
                                 *****************
                                 * O   R   C   A *
                                 *****************

                                            #,                                       
                                            ###                                      
                                            ####                                     
                                            #####                                    
                                            ######                                   
                                           ########,                                 
                                     ,,################,,,,,                         
                               ,,#################################,,                 
                          ,,##########################################,,             
                       ,#########################################, ''#####,          
                    ,#############################################,,   '####,        
                  ,##################################################,,,,####,       
                ,###########''''           ''''###############################       
              ,#####''   ,,,,##########,,,,          '''####'''          '####       
            ,##' ,,,,###########################,,,                        '##       
           ' ,,###''''                  '''############,,,                           
         ,,##''                                '''############,,,,        ,,,,,,###''
      ,#''                                            '''#######################'''  
     '                                                          ''''####''''         
             ,#######,   #######,   ,#######,      ##                                
            ,#'     '#,  ##    ##  ,#'     '#,    #''#        ######   ,####,        
            ##       ##  ##   ,#'  ##            #'  '#       #        #'  '#        
            ##       ##  #######   ##           ,######,      #####,   #    #        
            '#,     ,#'  ##    ##  '#,     ,#' ,#      #,         ##   #,  ,#        
             '#######'   ##     ##  '#######'  #'      '#     #####' # '####'        



                  #######################################################
                  #                        -***-                        #
                  #          Department of theory and spectroscopy      #
                  #    Directorship and core code : Frank Neese         #
                  #        Max Planck Institute fuer Kohlenforschung    #
                  #                Kaiser Wilhelm Platz 1               #
                  #                 D-45470 Muelheim/Ruhr               #
                  #                      Germany                        #
                  #                                                     #
                  #                  All rights reserved                #
                  #                        -***-                        #
                  #######################################################


                         Program Version 5.0.3 -  RELEASE  -


 With contributions from (in alphabetic order):
   Daniel Aravena         : Magnetic Suceptibility
   Michael Atanasov       : Ab Initio Ligand Field Theory (pilot matlab implementation)
   Alexander A. Auer      : GIAO ZORA, VPT2 properties, NMR spectrum
   Ute Becker             : Parallelization
   Giovanni Bistoni       : ED, misc. LED, open-shell LED, HFLD
   Martin Brehm           : Molecular dynamics
   Dmytro Bykov           : SCF Hessian
   Vijay G. Chilkuri      : MRCI spin determinant printing, contributions to CSF-ICE
   Dipayan Datta          : RHF DLPNO-CCSD density
   Achintya Kumar Dutta   : EOM-CC, STEOM-CC
   Dmitry Ganyushin       : Spin-Orbit,Spin-Spin,Magnetic field MRCI
   Miquel Garcia          : C-PCM and meta-GGA Hessian, CC/C-PCM, Gaussian charge scheme
   Yang Guo               : DLPNO-NEVPT2, F12-NEVPT2, CIM, IAO-localization
   Andreas Hansen         : Spin unrestricted coupled pair/coupled cluster methods
   Benjamin Helmich-Paris : MC-RPA, TRAH-SCF, COSX integrals
   Lee Huntington         : MR-EOM, pCC
   Robert Izsak           : Overlap fitted RIJCOSX, COSX-SCS-MP3, EOM
   Marcus Kettner         : VPT2
   Christian Kollmar      : KDIIS, OOCD, Brueckner-CCSD(T), CCSD density, CASPT2, CASPT2-K
   Simone Kossmann        : Meta GGA functionals, TD-DFT gradient, OOMP2, MP2 Hessian
   Martin Krupicka        : Initial AUTO-CI
   Lucas Lang             : DCDCAS
   Marvin Lechner         : AUTO-CI (C++ implementation), FIC-MRCC
   Dagmar Lenk            : GEPOL surface, SMD
   Dimitrios Liakos       : Extrapolation schemes; Compound Job, initial MDCI parallelization
   Dimitrios Manganas     : Further ROCIS development; embedding schemes
   Dimitrios Pantazis     : SARC Basis sets
   Anastasios Papadopoulos: AUTO-CI, single reference methods and gradients
   Taras Petrenko         : DFT Hessian,TD-DFT gradient, ASA, ECA, R-Raman, ABS, FL, XAS/XES, NRVS
   Peter Pinski           : DLPNO-MP2, DLPNO-MP2 Gradient
   Christoph Reimann      : Effective Core Potentials
   Marius Retegan         : Local ZFS, SOC
   Christoph Riplinger    : Optimizer, TS searches, QM/MM, DLPNO-CCSD(T), (RO)-DLPNO pert. Triples
   Tobias Risthaus        : Range-separated hybrids, TD-DFT gradient, RPA, STAB
   Michael Roemelt        : Original ROCIS implementation
   Masaaki Saitow         : Open-shell DLPNO-CCSD energy and density
   Barbara Sandhoefer     : DKH picture change effects
   Avijit Sen             : IP-ROCIS
   Kantharuban Sivalingam : CASSCF convergence, NEVPT2, FIC-MRCI
   Bernardo de Souza      : ESD, SOC TD-DFT
   Georgi Stoychev        : AutoAux, RI-MP2 NMR, DLPNO-MP2 response
   Willem Van den Heuvel  : Paramagnetic NMR
   Boris Wezisla          : Elementary symmetry handling
   Frank Wennmohs         : Technical directorship


 We gratefully acknowledge several colleagues who have allowed us to
 interface, adapt or use parts of their codes:
   Stefan Grimme, W. Hujo, H. Kruse, P. Pracht,  : VdW corrections, initial TS optimization,
                  C. Bannwarth, S. Ehlert          DFT functionals, gCP, sTDA/sTD-DF
   Ed Valeev, F. Pavosevic, A. Kumar             : LibInt (2-el integral package), F12 methods
   Garnet Chan, S. Sharma, J. Yang, R. Olivares  : DMRG
   Ulf Ekstrom                                   : XCFun DFT Library
   Mihaly Kallay                                 : mrcc  (arbitrary order and MRCC methods)
   Jiri Pittner, Ondrej Demel                    : Mk-CCSD
   Frank Weinhold                                : gennbo (NPA and NBO analysis)
   Christopher J. Cramer and Donald G. Truhlar   : smd solvation model
   Lars Goerigk                                  : TD-DFT with DH, B97 family of functionals
   V. Asgeirsson, H. Jonsson                     : NEB implementation
   FAccTs GmbH                                   : IRC, NEB, NEB-TS, DLPNO-Multilevel, CI-OPT
                                                   MM, QMMM, 2- and 3-layer-ONIOM, Crystal-QMMM,
                                                   LR-CPCM, SF, NACMEs, symmetry and pop. for TD-DFT,
                                                   nearIR, NL-DFT gradient (VV10), updates on ESD,
                                                   ML-optimized integration grids
   S Lehtola, MJT Oliveira, MAL Marques          : LibXC Library
   Liviu Ungur et al                             : ANISO software


 Your calculation uses the libint2 library for the computation of 2-el integrals
 For citations please refer to: http://libint.valeyev.net

 Your ORCA version has been built with support for libXC version: 5.1.0
 For citations please refer to: https://tddft.org/programs/libxc/

 This ORCA versions uses:
   CBLAS   interface :  Fast vector & matrix operations
   LAPACKE interface :  Fast linear algebra routines
   SCALAPACK package :  Parallel linear algebra routines
   Shared memory     :  Shared parallel matrices
   BLAS/LAPACK       :  OpenBLAS 0.3.15  USE64BITINT DYNAMIC_ARCH NO_AFFINITY Haswell SINGLE_THREADED
        Core in use  :  Haswell
   Copyright (c) 2011-2014, The OpenBLAS Project




***************************************
The coordinates will be read from file: pbe.xyz
***************************************


================================================================================

cite the ECPs for Au [Def2-ECP] as follows:
Ce-Yb(ecp-28): M. Dolg, H. Stoll, H.Preuss, J. Chem. Phys., 1989, 90, 1730-1734.
Y-Cd(ecp-28), Hf-Hg(ecp-46): D. Andrae,U. Haeussermann, M. Dolg, H. Stoll, H. Preuss, Theor. Chim. Acta, 1990, 77, 123-141.
In-Sb(ecp-28), Tl-Bi(ecp-46): B. Metz, H. Stoll, M. Dolg, J. Chem. Phys., 2000, 113, 2563-2569.
Te-Xe(ecp-28), Po-Rn(ecp-46): K. A. Peterson, D. Figgen, E. Goll, H. Stoll, M. Dolg, J. Chem. Phys., 2003, 119, 11113-11123.
Rb(ecp-28), Cs(ecp-46): T. Leininger, A. Nicklass, W. Kuechle, H. Stoll, M. Dolg, A. Bergner, Chem. Phys. Lett., 1996, 255, 274-280.
Sr(ecp-28), Ba(ecp-46): M. Kaupp, P. V. Schleyer, H. Stoll and H. Preuss, J. Chem. Phys., 1991, 94, 1360-1366.
La(ecp-46): M. Dolg, H. Stoll, A. Savin, H. Preuss, Theor. Chim. Acta, 1989, 75, 173-194.
Lu(ecp-28): X. Cao, M. Dolg, J. Chem. Phys., 2001, 115, 7348-7355.

ECP parameters for Au [Def2-ECP] have been obtained from:
TURBOMOLE (7.0.2)

----- Orbital basis set information -----
Your calculation utilizes the basis: def2-TZVP
   F. Weigend and R. Ahlrichs, Phys. Chem. Chem. Phys. 7, 3297 (2005).

----- AuxJ basis set information -----
Your calculation utilizes the auxiliary basis: def2/J
   F. Weigend, Phys. Chem. Chem. Phys. 8, 1057 (2006).

================================================================================
                                        WARNINGS
                       Please study these warnings very carefully!
================================================================================

Using LibXC functional ID 497 : Re-regularized SCAN exchange by Furness et al
[ 1]  J. W. Furness, A. D. Kaplan, J. Ning, J. P. Perdew, and J. Sun, J. Phys. Chem. Lett. 11, 8208 (2020)
[ 2]  J. W. Furness, A. D. Kaplan, J. Ning, J. P. Perdew, and J. Sun, J. Phys. Chem. Lett. 11, 9248 (2020)
Using LibXC functional ID 498 : Re-regularized SCAN correlation by Furness et al
[ 1]  J. W. Furness, A. D. Kaplan, J. Ning, J. P. Perdew, and J. Sun, J. Phys. Chem. Lett. 11, 8208 (2020)
[ 2]  J. W. Furness, A. D. Kaplan, J. Ning, J. P. Perdew, and J. Sun, J. Phys. Chem. Lett. 11, 9248 (2020)
Using LibXC functional ID 497 : Re-regularized SCAN exchange by Furness et al
[ 1]  J. W. Furness, A. D. Kaplan, J. Ning, J. P. Perdew, and J. Sun, J. Phys. Chem. Lett. 11, 8208 (2020)
[ 2]  J. W. Furness, A. D. Kaplan, J. Ning, J. P. Perdew, and J. Sun, J. Phys. Chem. Lett. 11, 9248 (2020)
Using LibXC functional ID 498 : Re-regularized SCAN correlation by Furness et al
[ 1]  J. W. Furness, A. D. Kaplan, J. Ning, J. P. Perdew, and J. Sun, J. Phys. Chem. Lett. 11, 8208 (2020)
[ 2]  J. W. Furness, A. D. Kaplan, J. Ning, J. P. Perdew, and J. Sun, J. Phys. Chem. Lett. 11, 9248 (2020)

WARNING: your system is open-shell and RHF/RKS was chosen
  ===> : WILL SWITCH to UHF/UKS


INFO   : the flag for use of the SHARK integral package has been found!



***************************************
The coordinates will be read from file: pbe.xyz
***************************************


================================================================================

cite the ECPs for Au [Def2-ECP] as follows:
Ce-Yb(ecp-28): M. Dolg, H. Stoll, H.Preuss, J. Chem. Phys., 1989, 90, 1730-1734.
Y-Cd(ecp-28), Hf-Hg(ecp-46): D. Andrae,U. Haeussermann, M. Dolg, H. Stoll, H. Preuss, Theor. Chim. Acta, 1990, 77, 123-141.
In-Sb(ecp-28), Tl-Bi(ecp-46): B. Metz, H. Stoll, M. Dolg, J. Chem. Phys., 2000, 113, 2563-2569.
Te-Xe(ecp-28), Po-Rn(ecp-46): K. A. Peterson, D. Figgen, E. Goll, H. Stoll, M. Dolg, J. Chem. Phys., 2003, 119, 11113-11123.
Rb(ecp-28), Cs(ecp-46): T. Leininger, A. Nicklass, W. Kuechle, H. Stoll, M. Dolg, A. Bergner, Chem. Phys. Lett., 1996, 255, 274-280.
Sr(ecp-28), Ba(ecp-46): M. Kaupp, P. V. Schleyer, H. Stoll and H. Preuss, J. Chem. Phys., 1991, 94, 1360-1366.
La(ecp-46): M. Dolg, H. Stoll, A. Savin, H. Preuss, Theor. Chim. Acta, 1989, 75, 173-194.
Lu(ecp-28): X. Cao, M. Dolg, J. Chem. Phys., 2001, 115, 7348-7355.

ECP parameters for Au [Def2-ECP] have been obtained from:
TURBOMOLE (7.0.2)

----- Orbital basis set information -----
Your calculation utilizes the basis: def2-TZVP
   F. Weigend and R. Ahlrichs, Phys. Chem. Chem. Phys. 7, 3297 (2005).

----- AuxJ basis set information -----
Your calculation utilizes the auxiliary basis: def2/J
   F. Weigend, Phys. Chem. Chem. Phys. 8, 1057 (2006).

================================================================================
                                        WARNINGS
                       Please study these warnings very carefully!
================================================================================

Using LibXC functional ID 497 : Re-regularized SCAN exchange by Furness et al
[ 1]  J. W. Furness, A. D. Kaplan, J. Ning, J. P. Perdew, and J. Sun, J. Phys. Chem. Lett. 11, 8208 (2020)
[ 2]  J. W. Furness, A. D. Kaplan, J. Ning, J. P. Perdew, and J. Sun, J. Phys. Chem. Lett. 11, 9248 (2020)
Using LibXC functional ID 498 : Re-regularized SCAN correlation by Furness et al
[ 1]  J. W. Furness, A. D. Kaplan, J. Ning, J. P. Perdew, and J. Sun, J. Phys. Chem. Lett. 11, 8208 (2020)
[ 2]  J. W. Furness, A. D. Kaplan, J. Ning, J. P. Perdew, and J. Sun, J. Phys. Chem. Lett. 11, 9248 (2020)
Using LibXC functional ID 497 : Re-regularized SCAN exchange by Furness et al
[ 1]  J. W. Furness, A. D. Kaplan, J. Ning, J. P. Perdew, and J. Sun, J. Phys. Chem. Lett. 11, 8208 (2020)
[ 2]  J. W. Furness, A. D. Kaplan, J. Ning, J. P. Perdew, and J. Sun, J. Phys. Chem. Lett. 11, 9248 (2020)
Using LibXC functional ID 498 : Re-regularized SCAN correlation by Furness et al
[ 1]  J. W. Furness, A. D. Kaplan, J. Ning, J. P. Perdew, and J. Sun, J. Phys. Chem. Lett. 11, 8208 (2020)
[ 2]  J. W. Furness, A. D. Kaplan, J. Ning, J. P. Perdew, and J. Sun, J. Phys. Chem. Lett. 11, 9248 (2020)

INFO   : the flag for use of the SHARK integral package has been found!

================================================================================
                                       INPUT FILE
================================================================================
NAME = scan.inp
|  1> !R2SCAN def2-TZVP VERYSLOWCONV
|  2> !KDIIS
|  3> %scf
|  4>   AutoTRAHIter 200
|  5>   maxiter 400
|  6> end
|  7> 
|  8> %pal nprocs 6 end 
|  9> 
| 10> *xyzfile 0 5 pbe.xyz
| 11> 
| 12> $new_job
| 13> 
| 14> !R2SCAN def2-TZVP VERYSLOWCONV
| 15> !KDIIS
| 16> %scf
| 17>   AutoTRAHIter 200
| 18>   maxiter 400
| 19> end
| 20> 
| 21> 
| 22> %pal nprocs 6 end 
| 23> 
| 24> *xyzfile 0 3 pbe.xyz
| 25> 
| 26> 
| 27> 
| 28> 
| 29> 
| 30>                          ****END OF INPUT****
================================================================================


                 $$$$$$$$$$$$$$$$$$$$$$$$$$$$$$$$$$$$$$$$$$$$$$ 
                 $ THERE ARE  2 JOBS TO BE PROCESSED THIS RUN $
                 $$$$$$$$$$$$$$$$$$$$$$$$$$$$$$$$$$$$$$$$$$$$$$ 




                 $$$$$$$$$$$$$$$$  JOB NUMBER  1 $$$$$$$$$$$$$$


                       ****************************
                       * Single Point Calculation *
                       ****************************

---------------------------------
CARTESIAN COORDINATES (ANGSTROEM)
---------------------------------
  Au     9.513202    6.507478    7.899486
  Au     7.728489    7.975505    9.574165
  Au    10.688125    8.274220    5.987570
  Au     7.877213   10.802665    8.853980
  Au     5.664341    9.126354    8.116392
  Au     6.601377    6.527542    7.390822
  Au    10.183516    9.091951    8.908622
  Au     9.642794   11.148453    6.619514
  Au     8.476865    6.762636    5.253573
  Au     4.420063   10.303679    5.954931
  Au     6.974726   11.164994    6.151823
  Au    12.100119   10.250593    7.295651
  Au     6.169039    8.306234    5.197828
  Au     8.638632    9.565747    4.445648
  Cr     8.182466    8.803935    7.024599

----------------------------
CARTESIAN COORDINATES (A.U.)
----------------------------
  NO LB      ZA    FRAG     MASS         X           Y           Z
   0 Au   19.0000*   0   196.966   17.977346   12.297350   14.927866
   1 Au   19.0000*   0   196.966   14.604728   15.071520   18.092549
   2 Au   19.0000*   0   196.966   20.197629   15.636011   11.314868
   3 Au   19.0000*   0   196.966   14.885775   20.414078   16.731597
   4 Au   19.0000*   0   196.966   10.704054   17.246309   15.337758
   5 Au   19.0000*   0   196.966   12.474795   12.335266   13.966629
   6 Au   19.0000*   0   196.966   19.244056   17.181298   16.834857
   7 Au   19.0000*   0   196.966   18.222240   21.067522   12.509068
   8 Au   19.0000*   0   196.966   16.018953   12.779530    9.927815
   9 Au   19.0000*   0   196.966    8.352708   19.471131   11.253188
  10 Au   19.0000*   0   196.966   13.180322   21.098781   11.625260
  11 Au   19.0000*   0   196.966   22.865911   19.370813   13.786783
  12 Au   19.0000*   0   196.966   11.657793   15.696508    9.822471
  13 Au   19.0000*   0   196.966   16.324649   18.076642    8.401056
  14 Cr   24.0000    0    52.000   15.462620   16.637026   13.274568
* core charge reduced due to ECP

--------------------------------
INTERNAL COORDINATES (ANGSTROEM)
--------------------------------
 Au     0   0   0     0.000000000000     0.00000000     0.00000000
 Au     1   0   0     2.853918751699     0.00000000     0.00000000
 Au     1   2   0     2.856089656483   109.38253621     0.00000000
 Au     2   1   3     2.921235243321   108.74281884   356.14901970
 Au     2   1   3     2.776735468069   111.71557464    61.00497399
 Au     2   1   3     2.852010938110    62.40380429    98.10720965
 Au     2   1   3     2.777868846726    60.88727874   317.85851277
 Au     4   2   1     2.868743136172   109.87772501     3.17038438
 Au     3   1   2     2.777284863172    60.83712242   263.10690296
 Au     5   2   1     2.757940873715   157.48202332   327.46478544
 Au    10   5   2     2.703133996319    69.66882822   323.25582073
 Au     8   4   2     2.702176869921   108.94978823   300.19740662
 Au    10   5   2     2.760779682717    67.68210098    38.81947698
 Au    11  10   5     2.870053757866   109.09006428    95.18677353
 Cr     9   3   1     2.718474595482    60.35389707    70.19025546

---------------------------
INTERNAL COORDINATES (A.U.)
---------------------------
 Au     0   0   0     0.000000000000     0.00000000     0.00000000
 Au     1   0   0     5.393124849173     0.00000000     0.00000000
 Au     1   2   0     5.397227264678   109.38253621     0.00000000
 Au     2   1   3     5.520334582635   108.74281884   356.14901970
 Au     2   1   3     5.247269580996   111.71557464    61.00497399
 Au     2   1   3     5.389519603976    62.40380429    98.10720965
 Au     2   1   3     5.249411356264    60.88727874   317.85851277
 Au     4   2   1     5.421138875931   109.87772501     3.17038438
 Au     3   1   2     5.248307787280    60.83712242   263.10690296
 Au     5   2   1     5.211752944869   157.48202332   327.46478544
 Au    10   5   2     5.108182956335    69.66882822   323.25582073
 Au     8   4   2     5.106374249568   108.94978823   300.19740662
 Au    10   5   2     5.217117516429    67.68210098    38.81947698
 Au    11  10   5     5.423615591997   109.09006428    95.18677353
 Cr     9   3   1     5.137172487482    60.35389707    70.19025546

---------------------
BASIS SET INFORMATION
---------------------
There are 2 groups of distinct atoms

 Group   1 Type Au  : 8s7p6d1f contracted to 6s4p3d1f pattern {311111/4111/411/1}
 Group   2 Type Cr  : 17s11p7d1f contracted to 6s4p4d1f pattern {842111/6311/4111/1}

Atom   0Au   basis set group =>   1
Atom   1Au   basis set group =>   1
Atom   2Au   basis set group =>   1
Atom   3Au   basis set group =>   1
Atom   4Au   basis set group =>   1
Atom   5Au   basis set group =>   1
Atom   6Au   basis set group =>   1
Atom   7Au   basis set group =>   1
Atom   8Au   basis set group =>   1
Atom   9Au   basis set group =>   1
Atom  10Au   basis set group =>   1
Atom  11Au   basis set group =>   1
Atom  12Au   basis set group =>   1
Atom  13Au   basis set group =>   1
Atom  14Cr   basis set group =>   2
---------------------------------
AUXILIARY/J BASIS SET INFORMATION
---------------------------------
There are 2 groups of distinct atoms

 Group   1 Type Au  : 11s5p5d3f3g contracted to 8s5p5d2f3g pattern {41111111/11111/11111/21/111}
 Group   2 Type Cr  : 19s5p5d3f3g contracted to 8s5p5d2f3g pattern {121111111/11111/11111/21/111}

Atom   0Au   basis set group =>   1
Atom   1Au   basis set group =>   1
Atom   2Au   basis set group =>   1
Atom   3Au   basis set group =>   1
Atom   4Au   basis set group =>   1
Atom   5Au   basis set group =>   1
Atom   6Au   basis set group =>   1
Atom   7Au   basis set group =>   1
Atom   8Au   basis set group =>   1
Atom   9Au   basis set group =>   1
Atom  10Au   basis set group =>   1
Atom  11Au   basis set group =>   1
Atom  12Au   basis set group =>   1
Atom  13Au   basis set group =>   1
Atom  14Cr   basis set group =>   2
-------------------------
ECP PARAMETER INFORMATION
-------------------------

 Group 1, Type Au ECP Def2-ECP (replacing 60 core electrons, lmax=3)

Atom   0Au   ECP group =>   1
Atom   1Au   ECP group =>   1
Atom   2Au   ECP group =>   1
Atom   3Au   ECP group =>   1
Atom   4Au   ECP group =>   1
Atom   5Au   ECP group =>   1
Atom   6Au   ECP group =>   1
Atom   7Au   ECP group =>   1
Atom   8Au   ECP group =>   1
Atom   9Au   ECP group =>   1
Atom  10Au   ECP group =>   1
Atom  11Au   ECP group =>   1
Atom  12Au   ECP group =>   1
Atom  13Au   ECP group =>   1



           ************************************************************
           *        Program running with 6 parallel MPI-processes     *
           *              working on a common directory               *
           ************************************************************
------------------------------------------------------------------------------
                           ORCA GTO INTEGRAL CALCULATION
                           -- RI-GTO INTEGRALS CHOSEN --
------------------------------------------------------------------------------
------------------------------------------------------------------------------
                   ___                                                        
                  /   \      - P O W E R E D   B Y -                         
                 /     \                                                     
                 |  |  |   _    _      __       _____    __    __             
                 |  |  |  | |  | |    /  \     |  _  \  |  |  /  |          
                  \  \/   | |  | |   /    \    | | | |  |  | /  /          
                 / \  \   | |__| |  /  /\  \   | |_| |  |  |/  /          
                |  |  |   |  __  | /  /__\  \  |    /   |      \           
                |  |  |   | |  | | |   __   |  |    \   |  |\   \          
                \     /   | |  | | |  |  |  |  | |\  \  |  | \   \       
                 \___/    |_|  |_| |__|  |__|  |_| \__\ |__|  \__/        
                                                                              
                      - O R C A' S   B I G   F R I E N D -                    
                                      &                                       
                       - I N T E G R A L  F E E D E R -                       
                                                                              
 v1 FN, 2020, v2 2021                                                         
------------------------------------------------------------------------------


Reading SHARK input file scan.SHARKINP.tmp ... ok
----------------------
SHARK INTEGRAL PACKAGE
----------------------

Number of atoms                             ...     15
Number of basis functions                   ...    605
Number of shells                            ...    211
Maximum angular momentum                    ...      3
Integral batch strategy                     ... SHARK/LIBINT Hybrid
RI-J (if used) integral strategy            ... SPLIT-RIJ (Revised 2003 algorithm where possible)
Printlevel                                  ...      1
Contraction scheme used                     ... SEGMENTED contraction
Coulomb Range Separation                    ... NOT USED
Exchange Range Separation                   ... NOT USED
Finite Nucleus Model                        ... NOT USED
Auxiliary Coulomb fitting basis             ... AVAILABLE
   # of basis functions in Aux-J            ...   1335
   # of shells in Aux-J                     ...    345
   Maximum angular momentum in Aux-J        ...      4
Auxiliary J/K fitting basis                 ... NOT available
Auxiliary Correlation fitting basis         ... NOT available
Auxiliary 'external' fitting basis          ... NOT available
Integral threshold                          ...     1.000000e-10
Primitive cut-off                           ...     1.000000e-11
Primitive pair pre-selection threshold      ...     1.000000e-11

Calculating pre-screening integrals         ... done (  0.3 sec) Dimension = 211
Organizing shell pair data                  ... done (  0.8 sec)
Shell pair information
Total number of shell pairs                 ...     22366
Shell pairs after pre-screening             ...     18019
Total number of primitive shell pairs       ...     59609
Primitive shell pairs kept                  ...     35033
          la=0 lb=0:   2823 shell pairs
          la=1 lb=0:   4096 shell pairs
          la=1 lb=1:   1539 shell pairs
          la=2 lb=0:   3594 shell pairs
          la=2 lb=1:   2500 shell pairs
          la=2 lb=2:   1022 shell pairs
          la=3 lb=0:    972 shell pairs
          la=3 lb=1:    734 shell pairs
          la=3 lb=2:    638 shell pairs
          la=3 lb=3:    101 shell pairs

Calculating one electron integrals          ... done (  0.3 sec)
Calculating ECP integrals                   ... done ( 21.0 sec)
Calculating RI/J V-Matrix + Cholesky decomp.... done (  2.2 sec)
Calculating Nuclear repulsion               ... done (  0.0 sec) ENN=   5651.558288062997 Eh

SHARK setup successfully completed in  25.9 seconds

Maximum memory used throughout the entire GTOINT-calculation: 34.8 MB


           ************************************************************
           *        Program running with 6 parallel MPI-processes     *
           *              working on a common directory               *
           ************************************************************
-------------------------------------------------------------------------------
                                 ORCA SCF
-------------------------------------------------------------------------------

------------
SCF SETTINGS
------------
Hamiltonian:
 Density Functional     Method          .... DFT(GTOs)
  Functional kind                       .... Exchange
  Functional name                       .... Re-regularized SCAN exchange by Furness et al
  Functional family                     .... MGGA
  Functional refs                              
    [ 0] J. W. Furness, A. D. Kaplan, J. Ning, J. P. Perdew, and J. Sun, J. Phys. Chem. Lett. 11, 8208 (2020)
    [ 1] J. W. Furness, A. D. Kaplan, J. Ning, J. P. Perdew, and J. Sun, J. Phys. Chem. Lett. 11, 9248 (2020)
  Functional external parameters         .... 8
 Parameter  0 :         c1 parameter
 Parameter  1 :         c2 parameter
 Parameter  2 :          d parameter
 Parameter  3 :         k1 parameter
 Parameter  4 :       taur parameter
 Parameter  5 :     alphar parameter
 Parameter  6 :        eta parameter
 Parameter  7 :        dp2 parameter
  Functional kind                       .... Correlation
  Functional name                       .... Re-regularized SCAN correlation by Furness et al
  Functional family                     .... MGGA
  Functional refs                              
    [ 0] J. W. Furness, A. D. Kaplan, J. Ning, J. P. Perdew, and J. Sun, J. Phys. Chem. Lett. 11, 8208 (2020)
    [ 1] J. W. Furness, A. D. Kaplan, J. Ning, J. P. Perdew, and J. Sun, J. Phys. Chem. Lett. 11, 9248 (2020)
  Functional external parameters         .... 0
 Gradients option       PostSCFGGA      .... off
   Density functional embedding theory  .... OFF
   NL short-range parameter             .... 12.300000
 RI-approximation to the Coulomb term is turned on
   Number of AuxJ basis functions       .... 1335


General Settings:
 Integral files         IntName         .... scan
 Hartree-Fock type      HFTyp           .... UHF
 Total Charge           Charge          ....    0
 Multiplicity           Mult            ....    5
 Number of Electrons    NEL             ....  290
 Basis Dimension        Dim             ....  605
 Nuclear Repulsion      ENuc            ....   5651.5582880630 Eh

Convergence Acceleration:
 DIIS                   CNVDIIS         .... off
 Trust-Rad. Augm. Hess. CNVTRAH         .... auto
   Auto Start mean grad. ratio tolernc. ....  1.125000
   Auto Start start iteration           ....   200
   Auto Start num. interpolation iter.  ....    10
   Max. Number of Micro iterations      ....    16
   Max. Number of Macro iterations      .... Maxiter - #DIIS iter
   Number of Davidson start vectors     ....     2
   Converg. threshold I  (grad. norm)   ....   5.000e-05
   Converg. threshold II (energy diff.) ....   1.000e-06
   Grad. Scal. Fac. for Micro threshold ....   0.100
   Minimum threshold for Micro iter.    ....   0.010
   NR start threshold (gradient norm)   ....   0.001
   Initial trust radius                 ....   0.400
   Minimum AH scaling param. (alpha)    ....   1.000
   Maximum AH scaling param. (alpha)    .... 1000.000
   Orbital update algorithm             .... Taylor
   White noise on init. David. guess    .... on
   Maximum white noise                  ....   0.010
   Quad. conv. algorithm                .... NR
 SOSCF                  CNVSOSCF        .... off
 Level Shifting         CNVShift        .... off
 Zerner damping         CNVZerner       .... off
 Static damping         CNVDamp         .... off
 Fernandez-Rico         CNVRico         .... off

SCF Procedure:
 Maximum # iterations   MaxIter         ....   400
 SCF integral mode      SCFMode         .... Direct
   Integral package                     .... SHARK and LIBINT hybrid scheme
 Reset frequency        DirectResetFreq ....    20
 Integral Threshold     Thresh          ....  1.000e-10 Eh
 Primitive CutOff       TCut            ....  1.000e-11 Eh

Convergence Tolerance:
 Convergence Check Mode ConvCheckMode   .... All-Criteria
 Convergence forced     ConvForced      .... 0
 Energy Change          TolE            ....  1.000e-06 Eh
 Max Density Change     TolMaxP         ....  1.000e-05
 RMS Density Change     TolRMSP         ....  1.000e-06


Diagonalization of the overlap matrix:
Smallest eigenvalue                        ... 5.419e-05
Time for diagonalization                   ...    0.112 sec
Threshold for overlap eigenvalues          ... 1.000e-08
Number of eigenvalues below threshold      ... 0
Time for construction of square roots      ...    0.245 sec
Total time needed                          ...    0.592 sec

Time for model grid setup =    1.897 sec

------------------------------
INITIAL GUESS: MODEL POTENTIAL
------------------------------
Loading Hartree-Fock densities                     ... done
  calling /media/Programs/ORCA501/orca scan_atom79.inp > scan_atom79.out in order to generate an atomic fitting density for atom 0 (Au with ECP) on-the-fly... 
    atom 0 (Au), assumed electronic state with S=2: 1s2 2s2 2p6 3s2 3p6 4s2 3d10 4p6 5s2 4d10 5p6 6s1 4f14 5d10           ... done
Calculating cut-offs                               ... done
Initializing the effective Hamiltonian             ... done
Setting up the integral package (SHARK)            ... done
Starting the Coulomb interaction                   ... done (   2.3 sec)
Reading the grid                                   ... done
Mapping shells                                     ... done
Starting the XC term evaluation                    ... done (   1.1 sec)
  promolecular density results
     # of electrons  =   1130.014613498
     EX              =  -5168.810714935
     EC              =    -68.867535027
     EX+EC           =  -5237.678249962
Transforming the Hamiltonian                       ... done (   0.8 sec)
Diagonalizing the Hamiltonian                      ... done (   0.9 sec)
Back transforming the eigenvectors                 ... done (   0.1 sec)
Now organizing SCF variables                       ... done
                      ------------------
                      INITIAL GUESS DONE (   9.1 sec)
                      ------------------
-------------------
DFT GRID GENERATION
-------------------

General Integration Accuracy     IntAcc      ... 4.388
Radial Grid Type                 RadialGrid  ... OptM3 with GC (2021)
Angular Grid (max. ang.)         AngularGrid ... 4 (Lebedev-302)
Angular grid pruning method      GridPruning ... 4 (adaptive)
Weight generation scheme         WeightScheme... Becke
Basis function cutoff            BFCut       ... 1.0000e-10
Integration weight cutoff        WCut        ... 1.0000e-14
Angular grids for H and He will be reduced by one unit
Partially contracted basis set               ... off
Rotationally invariant grid construction     ... off

Total number of grid points                  ...   165682
Total number of batches                      ...     2595
Average number of points per batch           ...       63
Average number of grid points per atom       ...    11045
Time for grid setup =    5.096 sec

--------------
SCF ITERATIONS
--------------
ITER       Energy         Delta-E        Max-DP      RMS-DP      [F,P]   Gradient Norm
               ***  Starting incremental Fock matrix formation  ***
                             ****Resetting KDIIS****
                             ****Turning on KDIIS(Cayley)****
  0  -2944.1292994207   0.000000000000 0.68286614  0.00213959  0.4209424   0.224547008
  1  -2945.2328404037  -1.103540983092 1.49249144  0.00406113  0.3765435   0.174437226
  2  -2945.8142004159  -0.581360012135 0.52747815  0.00192914  0.2977459   0.129634644
  3  -2946.1008651984  -0.286664782477 0.67684647  0.00224866  0.1739782   0.076088385
  4  -2946.1817858190  -0.080920620672 0.16469068  0.00068548  0.0664851   0.024673992
  5  -2946.2375875123  -0.055801693280 0.39776317  0.00078122  0.0398683   0.006592732
  6  -2946.2571486190  -0.019561106647 0.39285797  0.00101684  0.0348641   0.006429326
  7  -2946.2718514685  -0.014702849495 0.25096959  0.00061331  0.0337216   0.012833074
  8  -2946.2934561684  -0.021604699951 0.04868377  0.00025226  0.0082725   0.005049209
  9  -2946.2978798839  -0.004423715482 0.03989607  0.00015973  0.0091043   0.003101999
 10  -2946.2990009940  -0.001121110164 0.05813986  0.00014418  0.0063057   0.002690278
 11  -2946.3005034321  -0.001502438055 0.02403115  0.00006712  0.0059703   0.001288987
 12  -2946.3008217764  -0.000318344344 0.04293797  0.00010025  0.0038707   0.001336441
 13  -2946.3015598250  -0.000738048576 0.03156051  0.00007599  0.0051981   0.001245657
 14  -2946.3014320024   0.000127822577 0.01843917  0.00006816  0.0029665   0.001106471
 15  -2946.3018710896  -0.000439087169 0.00625589  0.00003789  0.0039361   0.000886300
 16  -2946.3019617747  -0.000090685099 0.00911589  0.00003965  0.0017757   0.000706072
 17  -2946.3019561681   0.000005606623 0.02349040  0.00004354  0.0013290   0.000634497
 18  -2946.3020948046  -0.000138636465 0.00412598  0.00001654  0.0024415   0.000462743
 19  -2946.3021355262  -0.000040721661 0.00846079  0.00002105  0.0009796   0.000334611
               *** Restarting incremental Fock matrix formation ***
                             ****Resetting KDIIS****
 20  -2946.3021474923  -0.000011966053 0.00275292  0.00000652  0.0023443   0.000420269
 21  -2946.3021603621  -0.000012869845 0.00262395  0.00000488  0.0017675   0.000243390
 22  -2946.3021733652  -0.000013003038 0.00192856  0.00000508  0.0017808   0.000192329
 23  -2946.3021916176  -0.000018252466 0.02596929  0.00005421  0.0015397   0.000152756
 24  -2946.3023208059  -0.000129188320 0.00141323  0.00000526  0.0002785   0.000119538
 25  -2946.3023258522  -0.000005046270 0.00371162  0.00000686  0.0003232   0.000035381
                          ***Energy convergence achieved***
 26  -2946.3023254713   0.000000380885 0.00097207  0.00000290  0.0002736   0.000051080
 27  -2946.3023276243  -0.000002153024 0.00322941  0.00000710  0.0002632   0.000031743
 28  -2946.3023241597   0.000003464677 0.00133089  0.00000761  0.0001298   0.000056397
 29  -2946.3023265989  -0.000002439201 0.00086926  0.00000169  0.0000745   0.000012304
                          ***Energy convergence achieved***
                           ***RMSP convergence achieved***
 30  -2946.3023265819   0.000000017008 0.00026248  0.00000099  0.0000751   0.000028736
 31  -2946.3023259242   0.000000657661 0.00069955  0.00000115  0.0000496   0.000012807
 32  -2946.3023258678   0.000000056395 0.00090904  0.00000184  0.0000282   0.000006297
 33  -2946.3023256216   0.000000246232 0.00197551  0.00000359  0.0000199   0.000009163
                           ***RMSP convergence achieved***
 34  -2946.3023250477   0.000000573866 0.00050087  0.00000088  0.0000160   0.000006122
 35  -2946.3023252787  -0.000000231016 0.00207170  0.00000327  0.0000165   0.000006264
 36  -2946.3023247400   0.000000538678 0.00069008  0.00000130  0.0000112   0.000003993
                           ***RMSP convergence achieved***
 37  -2946.3023249779  -0.000000237898 0.00032946  0.00000064  0.0000122   0.000005357
 38  -2946.3023247234   0.000000254588 0.00010063  0.00000047  0.0000062   0.000003152
 39  -2946.3023245917   0.000000131693 0.00113844  0.00000166  0.0000064   0.000003315
               *** Restarting incremental Fock matrix formation ***
                             ****Resetting KDIIS****
                           ***RMSP convergence achieved***
 40  -2946.3023255801  -0.000000988445 0.00034293  0.00000050  0.0000054   0.000002243
 41  -2946.3023252754   0.000000304756 0.00061220  0.00000089  0.0000053   0.000001993
 42  -2946.3023249579   0.000000317486 0.00100032  0.00000147  0.0000053   0.000001712
 43  -2946.3023250864  -0.000000128573 0.00158496  0.00000231  0.0000054   0.000001296
                           ***RMSP convergence achieved***
 44  -2946.3023251232  -0.000000036785 0.00037242  0.00000063  0.0000055   0.000000880
 45  -2946.3023253819  -0.000000258713 0.00026437  0.00000041  0.0000057   0.000000834
 46  -2946.3023254894  -0.000000107459 0.00029450  0.00000069  0.0000057   0.000000818
 47  -2946.3023256082  -0.000000118752 0.00012182  0.00000030  0.0000060   0.000000812

            ***Energy convergence in two consecutive cycles with***
                    ***'reasonable' density convergence***
                       *** signaling convergence ***

                    *** KDIIS BlockDiag ( 5.854 sec) ***

               *****************************************************
               *                     SUCCESS                       *
               *           SCF CONVERGED AFTER  48 CYCLES          *
               *****************************************************


----------------
TOTAL SCF ENERGY
----------------

Total Energy       :        -2946.30232548 Eh          -80172.96219 eV

Components:
Nuclear Repulsion  :         5651.55828806 Eh          153786.71938 eV
Electronic Energy  :        -8597.86061354 Eh         -233959.68157 eV
One Electron Energy:       -16073.26954323 Eh         -437375.90003 eV
Two Electron Energy:         7475.40892969 Eh          203416.21846 eV

Virial components:
Potential Energy   :        -4631.49012939 Eh         -126029.25362 eV
Kinetic Energy     :         1685.18780392 Eh           45856.29143 eV
Virial Ratio       :            2.74835251


DFT components:
N(Alpha)           :      147.000006281212 electrons
N(Beta)            :      143.000003560851 electrons
N(Total)           :      290.000009842063 electrons
E(X)               :     -217.686860235184 Eh       
E(C)               :      -12.023257052375 Eh       
E(XC)              :     -229.710117287560 Eh       
DFET-embed. en.    :        0.000000000000 Eh       

---------------
SCF CONVERGENCE
---------------

  Last Energy change         ...    1.3213e-07  Tolerance :   1.0000e-06
  Last MAX-Density change    ...    6.2405e-05  Tolerance :   1.0000e-05
  Last RMS-Density change    ...    1.6044e-07  Tolerance :   1.0000e-06

             **** THE GBW FILE WAS UPDATED (scan.gbw) ****
             **** DENSITY scan.scfp WAS UPDATED ****
             **** ENERGY FILE WAS UPDATED (scan.en.tmp) ****
----------------------
UHF SPIN CONTAMINATION
----------------------

Warning: in a DFT calculation there is little theoretical justification to 
         calculate <S**2> as in Hartree-Fock theory. We will do it anyways
         but you should keep in mind that the values have only limited relevance

Expectation value of <S**2>     :     6.414493
Ideal value S*(S+1) for S=2.0   :     6.000000
Deviation                       :     0.414493

             **** THE GBW FILE WAS UPDATED (scan.gbw) ****
             **** DENSITY scan.scfp WAS UPDATED ****
----------------
ORBITAL ENERGIES
----------------
                 SPIN UP ORBITALS
  NO   OCC          E(Eh)            E(eV) 
   0   1.0000    -215.287237     -5858.2635 
   1   1.0000     -24.588207      -669.0791 
   2   1.0000     -20.857099      -567.5505 
   3   1.0000     -20.853259      -567.4460 
   4   1.0000     -20.852691      -567.4306 
   5   1.0000      -4.124522      -112.2340 
   6   1.0000      -4.124500      -112.2334 
   7   1.0000      -4.120900      -112.1354 
   8   1.0000      -4.120676      -112.1293 
   9   1.0000      -4.119923      -112.1088 
  10   1.0000      -4.119887      -112.1078 
  11   1.0000      -4.119886      -112.1078 
  12   1.0000      -4.119856      -112.1070 
  13   1.0000      -4.118241      -112.0630 
  14   1.0000      -4.118204      -112.0620 
  15   1.0000      -4.110406      -111.8498 
  16   1.0000      -4.110348      -111.8482 
  17   1.0000      -4.107934      -111.7826 
  18   1.0000      -4.107871      -111.7808 
  19   1.0000      -2.910552       -79.2002 
  20   1.0000      -2.313637       -62.9573 
  21   1.0000      -2.313063       -62.9417 
  22   1.0000      -2.313038       -62.9410 
  23   1.0000      -2.311871       -62.9092 
  24   1.0000      -2.311808       -62.9075 
  25   1.0000      -2.309216       -62.8370 
  26   1.0000      -2.309124       -62.8345 
  27   1.0000      -2.308994       -62.8309 
  28   1.0000      -2.308361       -62.8137 
  29   1.0000      -2.308328       -62.8128 
  30   1.0000      -2.307822       -62.7990 
  31   1.0000      -2.307766       -62.7975 
  32   1.0000      -2.307711       -62.7960 
  33   1.0000      -2.307650       -62.7943 
  34   1.0000      -2.305624       -62.7392 
  35   1.0000      -2.305454       -62.7346 
  36   1.0000      -2.305023       -62.7229 
  37   1.0000      -2.304860       -62.7184 
  38   1.0000      -2.304495       -62.7085 
  39   1.0000      -2.303966       -62.6941 
  40   1.0000      -2.303842       -62.6907 
  41   1.0000      -2.303778       -62.6890 
  42   1.0000      -2.303230       -62.6741 
  43   1.0000      -2.303112       -62.6709 
  44   1.0000      -2.302870       -62.6643 
  45   1.0000      -2.302485       -62.6538 
  46   1.0000      -2.302382       -62.6510 
  47   1.0000      -2.301668       -62.6316 
  48   1.0000      -2.301537       -62.6280 
  49   1.0000      -2.301191       -62.6186 
  50   1.0000      -2.298636       -62.5491 
  51   1.0000      -2.298460       -62.5443 
  52   1.0000      -2.295224       -62.4562 
  53   1.0000      -2.294684       -62.4415 
  54   1.0000      -2.294019       -62.4234 
  55   1.0000      -2.293966       -62.4220 
  56   1.0000      -2.293947       -62.4215 
  57   1.0000      -2.293905       -62.4203 
  58   1.0000      -2.293811       -62.4178 
  59   1.0000      -2.293806       -62.4176 
  60   1.0000      -2.291904       -62.3659 
  61   1.0000      -2.290696       -62.3330 
  62   1.0000      -1.860534       -50.6277 
  63   1.0000      -1.856303       -50.5126 
  64   1.0000      -1.856261       -50.5114 
  65   1.0000      -0.440810       -11.9951 
  66   1.0000      -0.397262       -10.8101 
  67   1.0000      -0.391818       -10.6619 
  68   1.0000      -0.391445       -10.6518 
  69   1.0000      -0.384020       -10.4497 
  70   1.0000      -0.381528       -10.3819 
  71   1.0000      -0.381303       -10.3758 
  72   1.0000      -0.376870       -10.2552 
  73   1.0000      -0.376815       -10.2537 
  74   1.0000      -0.370645       -10.0858 
  75   1.0000      -0.361021        -9.8239 
  76   1.0000      -0.358563        -9.7570 
  77   1.0000      -0.358350        -9.7512 
  78   1.0000      -0.357557        -9.7296 
  79   1.0000      -0.356896        -9.7116 
  80   1.0000      -0.354458        -9.6453 
  81   1.0000      -0.352827        -9.6009 
  82   1.0000      -0.350860        -9.5474 
  83   1.0000      -0.348288        -9.4774 
  84   1.0000      -0.348170        -9.4742 
  85   1.0000      -0.347375        -9.4526 
  86   1.0000      -0.342767        -9.3272 
  87   1.0000      -0.340734        -9.2718 
  88   1.0000      -0.340599        -9.2682 
  89   1.0000      -0.333971        -9.0878 
  90   1.0000      -0.329737        -8.9726 
  91   1.0000      -0.328933        -8.9507 
  92   1.0000      -0.328674        -8.9437 
  93   1.0000      -0.325923        -8.8688 
  94   1.0000      -0.325341        -8.8530 
  95   1.0000      -0.320759        -8.7283 
  96   1.0000      -0.311591        -8.4788 
  97   1.0000      -0.311053        -8.4642 
  98   1.0000      -0.309198        -8.4137 
  99   1.0000      -0.309151        -8.4124 
 100   1.0000      -0.308714        -8.4005 
 101   1.0000      -0.302916        -8.2428 
 102   1.0000      -0.299907        -8.1609 
 103   1.0000      -0.299280        -8.1438 
 104   1.0000      -0.298171        -8.1136 
 105   1.0000      -0.294076        -8.0022 
 106   1.0000      -0.290933        -7.9167 
 107   1.0000      -0.289352        -7.8737 
 108   1.0000      -0.287167        -7.8142 
 109   1.0000      -0.285640        -7.7727 
 110   1.0000      -0.283469        -7.7136 
 111   1.0000      -0.281944        -7.6721 
 112   1.0000      -0.281091        -7.6489 
 113   1.0000      -0.280514        -7.6332 
 114   1.0000      -0.278574        -7.5804 
 115   1.0000      -0.277588        -7.5535 
 116   1.0000      -0.277557        -7.5527 
 117   1.0000      -0.276402        -7.5213 
 118   1.0000      -0.276026        -7.5111 
 119   1.0000      -0.274735        -7.4759 
 120   1.0000      -0.274323        -7.4647 
 121   1.0000      -0.271519        -7.3884 
 122   1.0000      -0.270233        -7.3534 
 123   1.0000      -0.270074        -7.3491 
 124   1.0000      -0.269187        -7.3249 
 125   1.0000      -0.266946        -7.2640 
 126   1.0000      -0.266721        -7.2578 
 127   1.0000      -0.262887        -7.1535 
 128   1.0000      -0.260941        -7.1006 
 129   1.0000      -0.260101        -7.0777 
 130   1.0000      -0.259741        -7.0679 
 131   1.0000      -0.256462        -6.9787 
 132   1.0000      -0.256285        -6.9739 
 133   1.0000      -0.253985        -6.9113 
 134   1.0000      -0.252323        -6.8660 
 135   1.0000      -0.248626        -6.7655 
 136   1.0000      -0.248067        -6.7502 
 137   1.0000      -0.243914        -6.6372 
 138   1.0000      -0.241073        -6.5599 
 139   1.0000      -0.236077        -6.4240 
 140   1.0000      -0.226586        -6.1657 
 141   1.0000      -0.221613        -6.0304 
 142   1.0000      -0.215126        -5.8539 
 143   1.0000      -0.213942        -5.8217 
 144   1.0000      -0.203628        -5.5410 
 145   1.0000      -0.191623        -5.2143 
 146   1.0000      -0.177141        -4.8203 
 147   0.0000      -0.170345        -4.6353 
 148   0.0000      -0.169256        -4.6057 
 149   0.0000      -0.138380        -3.7655 
 150   0.0000      -0.133383        -3.6295 
 151   0.0000      -0.114939        -3.1277 
 152   0.0000      -0.114435        -3.1139 
 153   0.0000      -0.109373        -2.9762 
 154   0.0000      -0.096647        -2.6299 
 155   0.0000      -0.059506        -1.6193 
 156   0.0000      -0.057540        -1.5657 
 157   0.0000      -0.053053        -1.4436 
 158   0.0000      -0.051247        -1.3945 
 159   0.0000      -0.048454        -1.3185 
 160   0.0000      -0.041812        -1.1378 
 161   0.0000      -0.021766        -0.5923 
 162   0.0000      -0.015252        -0.4150 
 163   0.0000      -0.012807        -0.3485 
 164   0.0000      -0.000003        -0.0001 
 165   0.0000       0.000224         0.0061 
 166   0.0000       0.001520         0.0414 
 167   0.0000       0.042093         1.1454 
 168   0.0000       0.044960         1.2234 
 169   0.0000       0.047952         1.3048 
 170   0.0000       0.049032         1.3342 
 171   0.0000       0.054416         1.4807 
 172   0.0000       0.058235         1.5847 
 173   0.0000       0.059073         1.6075 
 174   0.0000       0.059299         1.6136 
 175   0.0000       0.059691         1.6243 
 176   0.0000       0.073089         1.9889 
 177   0.0000       0.075621         2.0577 
 178   0.0000       0.080043         2.1781 
 179   0.0000       0.083651         2.2763 
 180   0.0000       0.089747         2.4421 
 181   0.0000       0.092180         2.5084 
 182   0.0000       0.092456         2.5158 
 183   0.0000       0.099395         2.7047 
 184   0.0000       0.100031         2.7220 
 185   0.0000       0.102377         2.7858 
 186   0.0000       0.109414         2.9773 
 187   0.0000       0.120573         3.2809 
 188   0.0000       0.128192         3.4883 
 189   0.0000       0.131941         3.5903 
 190   0.0000       0.134871         3.6700 
 191   0.0000       0.140450         3.8218 
 192   0.0000       0.144155         3.9227 
 193   0.0000       0.147661         4.0181 
 194   0.0000       0.149224         4.0606 
 195   0.0000       0.150055         4.0832 
 196   0.0000       0.153364         4.1732 
 197   0.0000       0.155682         4.2363 
 198   0.0000       0.160539         4.3685 
 199   0.0000       0.168984         4.5983 
 200   0.0000       0.169744         4.6190 
 201   0.0000       0.170256         4.6329 
 202   0.0000       0.185491         5.0475 
 203   0.0000       0.186418         5.0727 
 204   0.0000       0.190973         5.1966 
 205   0.0000       0.206628         5.6226 
 206   0.0000       0.210140         5.7182 
 207   0.0000       0.215636         5.8678 
 208   0.0000       0.219922         5.9844 
 209   0.0000       0.221394         6.0244 
 210   0.0000       0.228723         6.2239 
 211   0.0000       0.229780         6.2526 
 212   0.0000       0.231639         6.3032 
 213   0.0000       0.240386         6.5412 
 214   0.0000       0.242043         6.5863 
 215   0.0000       0.245022         6.6674 
 216   0.0000       0.250852         6.8260 
 217   0.0000       0.255256         6.9459 
 218   0.0000       0.263249         7.1634 
 219   0.0000       0.265675         7.2294 
 220   0.0000       0.265958         7.2371 
 221   0.0000       0.278951         7.5906 
 222   0.0000       0.288981         7.8636 
 223   0.0000       0.295341         8.0366 
 224   0.0000       0.298360         8.1188 
 225   0.0000       0.300579         8.1792 
 226   0.0000       0.300877         8.1873 
 227   0.0000       0.309935         8.4338 
 228   0.0000       0.311775         8.4838 
 229   0.0000       0.314325         8.5532 
 230   0.0000       0.320870         8.7313 
 231   0.0000       0.321642         8.7523 
 232   0.0000       0.335216         9.1217 
 233   0.0000       0.344110         9.3637 
 234   0.0000       0.344303         9.3689 
 235   0.0000       0.345539         9.4026 
 236   0.0000       0.350418         9.5354 
 237   0.0000       0.351276         9.5587 
 238   0.0000       0.354356         9.6425 
 239   0.0000       0.372119        10.1259 
 240   0.0000       0.373311        10.1583 
 241   0.0000       0.379536        10.3277 
 242   0.0000       0.380746        10.3606 
 243   0.0000       0.382744        10.4150 
 244   0.0000       0.389888        10.6094 
 245   0.0000       0.392842        10.6898 
 246   0.0000       0.398062        10.8318 
 247   0.0000       0.398366        10.8401 
 248   0.0000       0.402724        10.9587 
 249   0.0000       0.405493        11.0340 
 250   0.0000       0.409622        11.1464 
 251   0.0000       0.426331        11.6011 
 252   0.0000       0.426985        11.6188 
 253   0.0000       0.441546        12.0151 
 254   0.0000       0.444341        12.0911 
 255   0.0000       0.453387        12.3373 
 256   0.0000       0.454008        12.3542 
 257   0.0000       0.456075        12.4104 
 258   0.0000       0.467070        12.7096 
 259   0.0000       0.474358        12.9079 
 260   0.0000       0.475256        12.9324 
 261   0.0000       0.475951        12.9513 
 262   0.0000       0.480167        13.0660 
 263   0.0000       0.482498        13.1294 
 264   0.0000       0.485229        13.2038 
 265   0.0000       0.487985        13.2788 
 266   0.0000       0.492831        13.4106 
 267   0.0000       0.493355        13.4249 
 268   0.0000       0.505371        13.7518 
 269   0.0000       0.506574        13.7846 
 270   0.0000       0.518778        14.1167 
 271   0.0000       0.523122        14.2349 
 272   0.0000       0.526833        14.3358 
 273   0.0000       0.530880        14.4460 
 274   0.0000       0.533851        14.5268 
 275   0.0000       0.534337        14.5400 
 276   0.0000       0.540038        14.6952 
 277   0.0000       0.553240        15.0544 
 278   0.0000       0.554209        15.0808 
 279   0.0000       0.554961        15.1012 
 280   0.0000       0.557535        15.1713 
 281   0.0000       0.559166        15.2157 
 282   0.0000       0.573987        15.6190 
 283   0.0000       0.574851        15.6425 
 284   0.0000       0.576298        15.6819 
 285   0.0000       0.581222        15.8159 
 286   0.0000       0.581302        15.8180 
 287   0.0000       0.584268        15.8987 
 288   0.0000       0.584547        15.9063 
 289   0.0000       0.589997        16.0546 
 290   0.0000       0.590092        16.0572 
 291   0.0000       0.599722        16.3193 
 292   0.0000       0.600822        16.3492 
 293   0.0000       0.613435        16.6924 
 294   0.0000       0.626015        17.0347 
 295   0.0000       0.679076        18.4786 
 296   0.0000       0.688697        18.7404 
 297   0.0000       0.697675        18.9847 
 298   0.0000       0.701007        19.0754 
 299   0.0000       0.701858        19.0985 
 300   0.0000       0.704579        19.1726 
 301   0.0000       0.715329        19.4651 
 302   0.0000       0.729443        19.8492 
 303   0.0000       0.732433        19.9305 
 304   0.0000       0.741272        20.1710 
 305   0.0000       0.767560        20.8864 
 306   0.0000       0.801350        21.8058 
 307   0.0000       0.801484        21.8095 
 308   0.0000       0.801886        21.8204 
 309   0.0000       0.818561        22.2742 
 310   0.0000       0.824793        22.4438 
 311   0.0000       0.831329        22.6216 
 312   0.0000       0.839308        22.8387 
 313   0.0000       0.872865        23.7519 
 314   0.0000       0.895904        24.3788 
 315   0.0000       0.907356        24.6904 
 316   0.0000       0.912958        24.8429 
 317   0.0000       0.914245        24.8779 
 318   0.0000       0.922186        25.0939 
 319   0.0000       0.925306        25.1789 
 320   0.0000       0.937292        25.5050 
 321   0.0000       0.942352        25.6427 
 322   0.0000       0.949365        25.8335 
 323   0.0000       0.952449        25.9175 
 324   0.0000       0.953376        25.9427 
 325   0.0000       0.969898        26.3923 
 326   0.0000       0.970396        26.4058 
 327   0.0000       0.980457        26.6796 
 328   0.0000       0.996149        27.1066 
 329   0.0000       1.040125        28.3032 
 330   0.0000       1.144114        31.1329 
 331   0.0000       1.184773        32.2393 
 332   0.0000       1.196797        32.5665 
 333   0.0000       1.207723        32.8638 
 334   0.0000       1.225568        33.3494 
 335   0.0000       1.238350        33.6972 
 336   0.0000       1.252691        34.0875 
 337   0.0000       1.259204        34.2647 
 338   0.0000       1.273541        34.6548 
 339   0.0000       1.287056        35.0226 
 340   0.0000       1.327383        36.1199 
 341   0.0000       1.327890        36.1337 
 342   0.0000       1.338139        36.4126 
 343   0.0000       1.340991        36.4902 
 344   0.0000       1.345271        36.6067 
 345   0.0000       1.348323        36.6897 
 346   0.0000       1.365345        37.1529 
 347   0.0000       1.375661        37.4337 
 348   0.0000       1.380196        37.5570 
 349   0.0000       1.386532        37.7295 
 350   0.0000       1.393204        37.9110 
 351   0.0000       1.399518        38.0828 
 352   0.0000       1.410691        38.3868 
 353   0.0000       1.421083        38.6696 
 354   0.0000       1.425274        38.7837 
 355   0.0000       1.427271        38.8380 
 356   0.0000       1.429002        38.8851 
 357   0.0000       1.429647        38.9027 
 358   0.0000       1.435456        39.0607 
 359   0.0000       1.439022        39.1578 
 360   0.0000       1.448512        39.4160 
 361   0.0000       1.449798        39.4510 
 362   0.0000       1.458946        39.7000 
 363   0.0000       1.459518        39.7155 
 364   0.0000       1.461271        39.7632 
 365   0.0000       1.464760        39.8581 
 366   0.0000       1.466590        39.9080 
 367   0.0000       1.469547        39.9884 
 368   0.0000       1.470699        40.0198 
 369   0.0000       1.480365        40.2828 
 370   0.0000       1.480492        40.2862 
 371   0.0000       1.481980        40.3267 
 372   0.0000       1.496185        40.7133 
 373   0.0000       1.497683        40.7540 
 374   0.0000       1.498940        40.7882 
 375   0.0000       1.500114        40.8202 
 376   0.0000       1.500935        40.8425 
 377   0.0000       1.505729        40.9730 
 378   0.0000       1.510462        41.1018 
 379   0.0000       1.518484        41.3201 
 380   0.0000       1.522671        41.4340 
 381   0.0000       1.525387        41.5079 
 382   0.0000       1.526096        41.5272 
 383   0.0000       1.526669        41.5428 
 384   0.0000       1.532298        41.6960 
 385   0.0000       1.533142        41.7189 
 386   0.0000       1.533244        41.7217 
 387   0.0000       1.537449        41.8361 
 388   0.0000       1.539591        41.8944 
 389   0.0000       1.539772        41.8993 
 390   0.0000       1.540438        41.9175 
 391   0.0000       1.542794        41.9816 
 392   0.0000       1.544105        42.0172 
 393   0.0000       1.545560        42.0568 
 394   0.0000       1.547545        42.1108 
 395   0.0000       1.552742        42.2522 
 396   0.0000       1.553478        42.2723 
 397   0.0000       1.553733        42.2792 
 398   0.0000       1.554373        42.2966 
 399   0.0000       1.556195        42.3462 
 400   0.0000       1.558885        42.4194 
 401   0.0000       1.561297        42.4851 
 402   0.0000       1.561965        42.5032 
 403   0.0000       1.563667        42.5495 
 404   0.0000       1.565153        42.5900 
 405   0.0000       1.566589        42.6290 
 406   0.0000       1.567518        42.6543 
 407   0.0000       1.568208        42.6731 
 408   0.0000       1.568607        42.6840 
 409   0.0000       1.570728        42.7417 
 410   0.0000       1.571284        42.7568 
 411   0.0000       1.574099        42.8334 
 412   0.0000       1.578714        42.9590 
 413   0.0000       1.579126        42.9702 
 414   0.0000       1.581502        43.0349 
 415   0.0000       1.581543        43.0360 
 416   0.0000       1.581963        43.0474 
 417   0.0000       1.582537        43.0630 
 418   0.0000       1.583961        43.1018 
 419   0.0000       1.584535        43.1174 
 420   0.0000       1.587146        43.1884 
 421   0.0000       1.594610        43.3916 
 422   0.0000       1.594753        43.3954 
 423   0.0000       1.605006        43.6744 
 424   0.0000       1.605567        43.6897 
 425   0.0000       1.607607        43.7452 
 426   0.0000       1.611052        43.8389 
 427   0.0000       1.611221        43.8436 
 428   0.0000       1.615065        43.9481 
 429   0.0000       1.615608        43.9629 
 430   0.0000       1.617572        44.0164 
 431   0.0000       1.622256        44.1438 
 432   0.0000       1.624107        44.1942 
 433   0.0000       1.628116        44.3033 
 434   0.0000       1.628973        44.3266 
 435   0.0000       1.629063        44.3291 
 436   0.0000       1.632036        44.4099 
 437   0.0000       1.634230        44.4697 
 438   0.0000       1.635629        44.5077 
 439   0.0000       1.640578        44.6424 
 440   0.0000       1.641473        44.6668 
 441   0.0000       1.641735        44.6739 
 442   0.0000       1.643274        44.7158 
 443   0.0000       1.650559        44.9140 
 444   0.0000       1.651274        44.9335 
 445   0.0000       1.654767        45.0285 
 446   0.0000       1.655898        45.0593 
 447   0.0000       1.658328        45.1254 
 448   0.0000       1.658498        45.1300 
 449   0.0000       1.663767        45.2734 
 450   0.0000       1.670868        45.4666 
 451   0.0000       1.672449        45.5096 
 452   0.0000       1.673571        45.5402 
 453   0.0000       1.675025        45.5798 
 454   0.0000       1.675543        45.5938 
 455   0.0000       1.677919        45.6585 
 456   0.0000       1.683060        45.7984 
 457   0.0000       1.684299        45.8321 
 458   0.0000       1.686295        45.8864 
 459   0.0000       1.688969        45.9592 
 460   0.0000       1.697075        46.1798 
 461   0.0000       1.704439        46.3801 
 462   0.0000       1.707498        46.4634 
 463   0.0000       1.707578        46.4656 
 464   0.0000       1.713006        46.6133 
 465   0.0000       1.714887        46.6644 
 466   0.0000       1.726814        46.9890 
 467   0.0000       1.727553        47.0091 
 468   0.0000       1.748754        47.5860 
 469   0.0000       1.751408        47.6582 
 470   0.0000       1.760109        47.8950 
 471   0.0000       1.767802        48.1043 
 472   0.0000       1.773936        48.2712 
 473   0.0000       1.774850        48.2961 
 474   0.0000       1.790154        48.7126 
 475   0.0000       1.791324        48.7444 
 476   0.0000       1.794722        48.8369 
 477   0.0000       1.800524        48.9947 
 478   0.0000       1.816824        49.4383 
 479   0.0000       1.818163        49.4747 
 480   0.0000       1.829628        49.7867 
 481   0.0000       1.829711        49.7890 
 482   0.0000       1.834599        49.9220 
 483   0.0000       1.839553        50.0568 
 484   0.0000       1.840171        50.0736 
 485   0.0000       1.844107        50.1807 
 486   0.0000       1.845685        50.2236 
 487   0.0000       1.852476        50.4084 
 488   0.0000       1.857475        50.5445 
 489   0.0000       1.864756        50.7426 
 490   0.0000       1.870357        50.8950 
 491   0.0000       1.875879        51.0453 
 492   0.0000       1.878306        51.1113 
 493   0.0000       1.884794        51.2878 
 494   0.0000       1.890097        51.4321 
 495   0.0000       1.901502        51.7425 
 496   0.0000       1.920413        52.2571 
 497   0.0000       1.945922        52.9512 
 498   0.0000       1.967565        53.5402 
 499   0.0000       1.975324        53.7513 
 500   0.0000       1.989086        54.1258 
 501   0.0000       2.015471        54.8437 
 502   0.0000       2.022201        55.0269 
 503   0.0000       2.050859        55.8067 
 504   0.0000       2.079936        56.5979 
 505   0.0000       2.327854        63.3441 
 506   0.0000       2.354024        64.0562 
 507   0.0000       2.391392        65.0731 
 508   0.0000       2.408985        65.5518 
 509   0.0000       2.454409        66.7879 
 510   0.0000       2.457642        66.8758 
 511   0.0000       2.497317        67.9555 
 512   0.0000       2.501564        68.0710 
 513   0.0000       2.525153        68.7129 
 514   0.0000       2.529727        68.8374 
 515   0.0000       2.531986        68.8988 
 516   0.0000       2.552866        69.4670 
 517   0.0000       2.571409        69.9716 
 518   0.0000       2.583159        70.2913 
 519   0.0000       2.586885        70.3927 
 520   0.0000       2.599961        70.7485 
 521   0.0000       2.649715        72.1024 
 522   0.0000       2.665822        72.5407 
 523   0.0000       2.695275        73.3422 
 524   0.0000       2.722207        74.0750 
 525   0.0000       2.724896        74.1482 
 526   0.0000       2.731952        74.3402 
 527   0.0000       2.932871        79.8075 
 528   0.0000       2.941730        80.0485 
 529   0.0000       2.945746        80.1578 
 530   0.0000       2.950895        80.2979 
 531   0.0000       2.961955        80.5989 
 532   0.0000       2.977233        81.0146 
 533   0.0000       2.977607        81.0248 
 534   0.0000       3.167240        86.1850 
 535   0.0000      24.143156       656.9687 
 536   0.0000      24.157965       657.3716 
 537   0.0000      24.314999       661.6448 
 538   0.0000      24.409336       664.2118 
 539   0.0000      24.694494       671.9713 
 540   0.0000      25.015905       680.7174 
 541   0.0000      25.164866       684.7708 
 542   0.0000      25.330865       689.2879 
 543   0.0000      25.393690       690.9974 
 544   0.0000      25.522114       694.4920 
 545   0.0000      25.688918       699.0310 
 546   0.0000      25.736576       700.3278 
 547   0.0000      25.905657       704.9288 
 548   0.0000      25.941272       705.8979 
 549   0.0000      26.139762       711.2991 
 550   0.0000      26.362732       717.3664 
 551   0.0000      26.421310       718.9604 
 552   0.0000      26.542687       722.2632 
 553   0.0000      26.728802       727.3277 
 554   0.0000      26.772734       728.5231 
 555   0.0000      26.797736       729.2035 
 556   0.0000      26.811945       729.5901 
 557   0.0000      27.051023       736.0958 
 558   0.0000      27.074738       736.7411 
 559   0.0000      27.357897       744.4462 
 560   0.0000      27.382730       745.1220 
 561   0.0000      27.510286       748.5930 
 562   0.0000      27.530772       749.1504 
 563   0.0000      27.684621       753.3368 
 564   0.0000      27.740872       754.8675 
 565   0.0000      27.744686       754.9713 
 566   0.0000      27.998867       761.8879 
 567   0.0000      28.019395       762.4465 
 568   0.0000      28.521523       776.1101 
 569   0.0000      28.798203       783.6389 
 570   0.0000      29.012548       789.4716 
 571   0.0000      29.316809       797.7509 
 572   0.0000      29.340261       798.3891 
 573   0.0000      29.618917       805.9717 
 574   0.0000      29.946227       814.8783 
 575   0.0000      30.019955       816.8845 
 576   0.0000      33.447766       910.1600 
 577   0.0000      44.446767      1209.4580 
 578   0.0000      44.509125      1211.1549 
 579   0.0000      44.568832      1212.7796 
 580   0.0000      44.575735      1212.9674 
 581   0.0000      44.612735      1213.9742 
 582   0.0000      44.625048      1214.3093 
 583   0.0000      44.625396      1214.3188 
 584   0.0000      44.649823      1214.9835 
 585   0.0000      44.650902      1215.0128 
 586   0.0000      44.651365      1215.0254 
 587   0.0000      44.654854      1215.1204 
 588   0.0000      44.657858      1215.2021 
 589   0.0000      44.753078      1217.7932 
 590   0.0000      44.767269      1218.1793 
 591   0.0000     205.268299      5585.6344 
 592   0.0000     205.302783      5586.5728 
 593   0.0000     205.322908      5587.1204 
 594   0.0000     205.325152      5587.1814 
 595   0.0000     205.336923      5587.5017 
 596   0.0000     205.353468      5587.9520 
 597   0.0000     205.356979      5588.0475 
 598   0.0000     205.357962      5588.0742 
 599   0.0000     205.360520      5588.1438 
 600   0.0000     205.361962      5588.1831 
 601   0.0000     205.362359      5588.1939 
 602   0.0000     205.362599      5588.2004 
 603   0.0000     205.397043      5589.1377 
 604   0.0000     205.403780      5589.3210 

                 SPIN DOWN ORBITALS
  NO   OCC          E(Eh)            E(eV) 
   0   1.0000    -215.286671     -5858.2481 
   1   1.0000     -24.525974      -667.3857 
   2   1.0000     -20.812521      -566.3375 
   3   1.0000     -20.803837      -566.1012 
   4   1.0000     -20.803003      -566.0785 
   5   1.0000      -4.123915      -112.2174 
   6   1.0000      -4.123891      -112.2168 
   7   1.0000      -4.119359      -112.0935 
   8   1.0000      -4.119133      -112.0873 
   9   1.0000      -4.118948      -112.0823 
  10   1.0000      -4.118916      -112.0814 
  11   1.0000      -4.118915      -112.0814 
  12   1.0000      -4.118883      -112.0805 
  13   1.0000      -4.117613      -112.0460 
  14   1.0000      -4.117575      -112.0449 
  15   1.0000      -4.110113      -111.8419 
  16   1.0000      -4.110060      -111.8404 
  17   1.0000      -4.106802      -111.7518 
  18   1.0000      -4.106738      -111.7500 
  19   1.0000      -2.747996       -74.7768 
  20   1.0000      -2.312280       -62.9203 
  21   1.0000      -2.312248       -62.9195 
  22   1.0000      -2.311623       -62.9025 
  23   1.0000      -2.310938       -62.8838 
  24   1.0000      -2.310908       -62.8830 
  25   1.0000      -2.308139       -62.8077 
  26   1.0000      -2.308134       -62.8075 
  27   1.0000      -2.307179       -62.7815 
  28   1.0000      -2.307142       -62.7805 
  29   1.0000      -2.307048       -62.7780 
  30   1.0000      -2.306806       -62.7714 
  31   1.0000      -2.306737       -62.7695 
  32   1.0000      -2.306501       -62.7631 
  33   1.0000      -2.306432       -62.7612 
  34   1.0000      -2.304460       -62.7075 
  35   1.0000      -2.304352       -62.7046 
  36   1.0000      -2.303962       -62.6940 
  37   1.0000      -2.303704       -62.6870 
  38   1.0000      -2.303344       -62.6772 
  39   1.0000      -2.303216       -62.6737 
  40   1.0000      -2.302781       -62.6619 
  41   1.0000      -2.302459       -62.6531 
  42   1.0000      -2.302168       -62.6452 
  43   1.0000      -2.301801       -62.6352 
  44   1.0000      -2.301549       -62.6283 
  45   1.0000      -2.301501       -62.6270 
  46   1.0000      -2.301300       -62.6216 
  47   1.0000      -2.300865       -62.6097 
  48   1.0000      -2.300663       -62.6042 
  49   1.0000      -2.300466       -62.5989 
  50   1.0000      -2.298043       -62.5329 
  51   1.0000      -2.297851       -62.5277 
  52   1.0000      -2.293945       -62.4214 
  53   1.0000      -2.293887       -62.4198 
  54   1.0000      -2.293635       -62.4130 
  55   1.0000      -2.293582       -62.4115 
  56   1.0000      -2.293288       -62.4035 
  57   1.0000      -2.292871       -62.3922 
  58   1.0000      -2.292630       -62.3856 
  59   1.0000      -2.292599       -62.3848 
  60   1.0000      -2.291227       -62.3474 
  61   1.0000      -2.289879       -62.3108 
  62   1.0000      -1.708983       -46.5038 
  63   1.0000      -1.689342       -45.9693 
  64   1.0000      -1.688136       -45.9365 
  65   1.0000      -0.432681       -11.7739 
  66   1.0000      -0.394286       -10.7291 
  67   1.0000      -0.390563       -10.6278 
  68   1.0000      -0.389767       -10.6061 
  69   1.0000      -0.381150       -10.3716 
  70   1.0000      -0.376957       -10.2575 
  71   1.0000      -0.374723       -10.1967 
  72   1.0000      -0.371555       -10.1105 
  73   1.0000      -0.370925       -10.0934 
  74   1.0000      -0.364529        -9.9193 
  75   1.0000      -0.360376        -9.8063 
  76   1.0000      -0.357329        -9.7234 
  77   1.0000      -0.355525        -9.6743 
  78   1.0000      -0.354943        -9.6585 
  79   1.0000      -0.354337        -9.6420 
  80   1.0000      -0.352954        -9.6044 
  81   1.0000      -0.351046        -9.5524 
  82   1.0000      -0.348909        -9.4943 
  83   1.0000      -0.347560        -9.4576 
  84   1.0000      -0.346662        -9.4331 
  85   1.0000      -0.345718        -9.4075 
  86   1.0000      -0.342008        -9.3065 
  87   1.0000      -0.339444        -9.2367 
  88   1.0000      -0.339079        -9.2268 
  89   1.0000      -0.332860        -9.0576 
  90   1.0000      -0.328240        -8.9319 
  91   1.0000      -0.327812        -8.9202 
  92   1.0000      -0.327068        -8.9000 
  93   1.0000      -0.322851        -8.7852 
  94   1.0000      -0.322441        -8.7741 
  95   1.0000      -0.319655        -8.6983 
  96   1.0000      -0.308884        -8.4052 
  97   1.0000      -0.308126        -8.3845 
  98   1.0000      -0.307991        -8.3809 
  99   1.0000      -0.307516        -8.3679 
 100   1.0000      -0.307418        -8.3653 
 101   1.0000      -0.300668        -8.1816 
 102   1.0000      -0.295810        -8.0494 
 103   1.0000      -0.294501        -8.0138 
 104   1.0000      -0.292551        -7.9607 
 105   1.0000      -0.292294        -7.9537 
 106   1.0000      -0.288989        -7.8638 
 107   1.0000      -0.288049        -7.8382 
 108   1.0000      -0.285804        -7.7771 
 109   1.0000      -0.285112        -7.7583 
 110   1.0000      -0.283130        -7.7044 
 111   1.0000      -0.281768        -7.6673 
 112   1.0000      -0.279428        -7.6036 
 113   1.0000      -0.278392        -7.5754 
 114   1.0000      -0.277717        -7.5571 
 115   1.0000      -0.276792        -7.5319 
 116   1.0000      -0.276633        -7.5276 
 117   1.0000      -0.275985        -7.5099 
 118   1.0000      -0.275619        -7.5000 
 119   1.0000      -0.273558        -7.4439 
 120   1.0000      -0.272879        -7.4254 
 121   1.0000      -0.270799        -7.3688 
 122   1.0000      -0.269491        -7.3332 
 123   1.0000      -0.268237        -7.2991 
 124   1.0000      -0.267946        -7.2912 
 125   1.0000      -0.267129        -7.2689 
 126   1.0000      -0.265299        -7.2192 
 127   1.0000      -0.260597        -7.0912 
 128   1.0000      -0.259424        -7.0593 
 129   1.0000      -0.258597        -7.0368 
 130   1.0000      -0.258153        -7.0247 
 131   1.0000      -0.255350        -6.9484 
 132   1.0000      -0.255216        -6.9448 
 133   1.0000      -0.252254        -6.8642 
 134   1.0000      -0.251306        -6.8384 
 135   1.0000      -0.247915        -6.7461 
 136   1.0000      -0.247366        -6.7312 
 137   1.0000      -0.241989        -6.5849 
 138   1.0000      -0.238799        -6.4980 
 139   1.0000      -0.229383        -6.2418 
 140   1.0000      -0.208830        -5.6825 
 141   1.0000      -0.197712        -5.3800 
 142   1.0000      -0.195587        -5.3222 
 143   0.0000      -0.192232        -5.2309 
 144   0.0000      -0.140291        -3.8175 
 145   0.0000      -0.134284        -3.6541 
 146   0.0000      -0.116779        -3.1777 
 147   0.0000      -0.113480        -3.0880 
 148   0.0000      -0.106083        -2.8867 
 149   0.0000      -0.094015        -2.5583 
 150   0.0000      -0.092027        -2.5042 
 151   0.0000      -0.085995        -2.3400 
 152   0.0000      -0.079184        -2.1547 
 153   0.0000      -0.076231        -2.0744 
 154   0.0000      -0.072715        -1.9787 
 155   0.0000      -0.058867        -1.6019 
 156   0.0000      -0.054156        -1.4736 
 157   0.0000      -0.051622        -1.4047 
 158   0.0000      -0.046022        -1.2523 
 159   0.0000      -0.045984        -1.2513 
 160   0.0000      -0.035067        -0.9542 
 161   0.0000      -0.016145        -0.4393 
 162   0.0000      -0.006369        -0.1733 
 163   0.0000      -0.005338        -0.1453 
 164   0.0000       0.004820         0.1312 
 165   0.0000       0.006495         0.1767 
 166   0.0000       0.009027         0.2456 
 167   0.0000       0.045760         1.2452 
 168   0.0000       0.046712         1.2711 
 169   0.0000       0.049665         1.3515 
 170   0.0000       0.052389         1.4256 
 171   0.0000       0.058941         1.6039 
 172   0.0000       0.060032         1.6336 
 173   0.0000       0.060431         1.6444 
 174   0.0000       0.061637         1.6772 
 175   0.0000       0.062530         1.7015 
 176   0.0000       0.075752         2.0613 
 177   0.0000       0.077047         2.0966 
 178   0.0000       0.079770         2.1707 
 179   0.0000       0.086571         2.3557 
 180   0.0000       0.092103         2.5062 
 181   0.0000       0.093052         2.5321 
 182   0.0000       0.093905         2.5553 
 183   0.0000       0.100816         2.7433 
 184   0.0000       0.101211         2.7541 
 185   0.0000       0.102902         2.8001 
 186   0.0000       0.109090         2.9685 
 187   0.0000       0.121860         3.3160 
 188   0.0000       0.130280         3.5451 
 189   0.0000       0.132301         3.6001 
 190   0.0000       0.135762         3.6943 
 191   0.0000       0.142493         3.8774 
 192   0.0000       0.145329         3.9546 
 193   0.0000       0.152049         4.1375 
 194   0.0000       0.152424         4.1477 
 195   0.0000       0.153527         4.1777 
 196   0.0000       0.155879         4.2417 
 197   0.0000       0.157085         4.2745 
 198   0.0000       0.163045         4.4367 
 199   0.0000       0.172329         4.6893 
 200   0.0000       0.172443         4.6924 
 201   0.0000       0.176810         4.8112 
 202   0.0000       0.186172         5.0660 
 203   0.0000       0.186615         5.0780 
 204   0.0000       0.191576         5.2131 
 205   0.0000       0.214028         5.8240 
 206   0.0000       0.217930         5.9302 
 207   0.0000       0.220117         5.9897 
 208   0.0000       0.224125         6.0988 
 209   0.0000       0.231565         6.3012 
 210   0.0000       0.232590         6.3291 
 211   0.0000       0.235752         6.4151 
 212   0.0000       0.240414         6.5420 
 213   0.0000       0.241104         6.5608 
 214   0.0000       0.245222         6.6728 
 215   0.0000       0.246939         6.7196 
 216   0.0000       0.251117         6.8332 
 217   0.0000       0.259066         7.0496 
 218   0.0000       0.263285         7.1643 
 219   0.0000       0.266224         7.2443 
 220   0.0000       0.266655         7.2560 
 221   0.0000       0.281707         7.6656 
 222   0.0000       0.289087         7.8665 
 223   0.0000       0.294380         8.0105 
 224   0.0000       0.299393         8.1469 
 225   0.0000       0.300870         8.1871 
 226   0.0000       0.302565         8.2332 
 227   0.0000       0.311869         8.4864 
 228   0.0000       0.312033         8.4909 
 229   0.0000       0.316835         8.6215 
 230   0.0000       0.322410         8.7732 
 231   0.0000       0.324011         8.8168 
 232   0.0000       0.336907         9.1677 
 233   0.0000       0.344540         9.3754 
 234   0.0000       0.344787         9.3821 
 235   0.0000       0.346335         9.4243 
 236   0.0000       0.350510         9.5379 
 237   0.0000       0.352170         9.5830 
 238   0.0000       0.355743         9.6802 
[...]
      f+2     :     0.000765
      f-2     :     0.001148
      f+3     :     0.000785
      f-3     :     0.000886
  5 Aus       :     2.523919  s :     2.523919
      pz      :     2.183483  p :     6.435373
      px      :     2.146581
      py      :     2.105309
      dz2     :     1.973698  d :     9.905258
      dxz     :     1.985069
      dyz     :     1.992792
      dx2y2   :     1.995858
      dxy     :     1.957841
      f0      :     0.000520  f :     0.004985
      f+1     :     0.000726
      f-1     :     0.000861
      f+2     :     0.000850
      f-2     :     0.000674
      f+3     :     0.000791
      f-3     :     0.000564
  6 Aus       :     2.497326  s :     2.497326
      pz      :     2.133988  p :     6.536938
      px      :     2.202777
      py      :     2.200173
      dz2     :     1.987432  d :     9.903540
      dxz     :     1.951558
      dyz     :     1.996522
      dx2y2   :     1.978376
      dxy     :     1.989652
      f0      :     0.000759  f :     0.006026
      f+1     :     0.000887
      f-1     :     0.000630
      f+2     :     0.000840
      f-2     :     0.000975
      f+3     :     0.000779
      f-3     :     0.001155
  7 Aus       :     2.495822  s :     2.495822
      pz      :     2.174525  p :     6.555924
      px      :     2.275161
      py      :     2.106239
      dz2     :     1.971261  d :     9.888639
      dxz     :     1.984338
      dyz     :     1.998753
      dx2y2   :     1.966453
      dxy     :     1.967833
      f0      :     0.000655  f :     0.006676
      f+1     :     0.001121
      f-1     :     0.000646
      f+2     :     0.001012
      f-2     :     0.000747
      f+3     :     0.001331
      f-3     :     0.001164
  8 Aus       :     2.491498  s :     2.491498
      pz      :     2.143418  p :     6.494895
      px      :     2.222856
      py      :     2.128620
      dz2     :     1.992546  d :     9.875941
      dxz     :     1.987871
      dyz     :     1.951236
      dx2y2   :     1.967225
      dxy     :     1.977063
      f0      :     0.000837  f :     0.005804
      f+1     :     0.001031
      f-1     :     0.000688
      f+2     :     0.000758
      f-2     :     0.000692
      f+3     :     0.000724
      f-3     :     0.001073
  9 Aus       :     2.743081  s :     2.743081
      pz      :     2.071915  p :     6.227644
      px      :     2.079766
      py      :     2.075963
      dz2     :     1.972113  d :     9.876994
      dxz     :     1.985518
      dyz     :     1.974329
      dx2y2   :     1.981151
      dxy     :     1.963883
      f0      :     0.000491  f :     0.004356
      f+1     :     0.000693
      f-1     :     0.000474
      f+2     :     0.000433
      f-2     :     0.000681
      f+3     :     0.000820
      f-3     :     0.000765
 10 Aus       :     2.495611  s :     2.495611
      pz      :     2.167092  p :     6.556091
      px      :     2.283645
      py      :     2.105354
      dz2     :     1.977873  d :     9.888795
      dxz     :     1.983003
      dyz     :     1.990440
      dx2y2   :     1.960257
      dxy     :     1.977223
      f0      :     0.000826  f :     0.006669
      f+1     :     0.001137
      f-1     :     0.000539
      f+2     :     0.000800
      f-2     :     0.000762
      f+3     :     0.001371
      f-3     :     0.001233
 11 Aus       :     2.743169  s :     2.743169
      pz      :     2.069972  p :     6.228012
      px      :     2.082204
      py      :     2.075836
      dz2     :     1.982789  d :     9.876893
      dxz     :     1.975201
      dyz     :     1.969995
      dx2y2   :     1.981213
      dxy     :     1.967694
      f0      :     0.000479  f :     0.004364
      f+1     :     0.000580
      f-1     :     0.000326
      f+2     :     0.000611
      f-2     :     0.000867
      f+3     :     0.000758
      f-3     :     0.000743
 12 Aus       :     2.497096  s :     2.497096
      pz      :     2.128294  p :     6.537257
      px      :     2.192278
      py      :     2.216686
      dz2     :     1.994707  d :     9.903649
      dxz     :     1.953705
      dyz     :     1.988792
      dx2y2   :     1.980812
      dxy     :     1.985632
      f0      :     0.000757  f :     0.006024
      f+1     :     0.000812
      f-1     :     0.000819
      f+2     :     0.000593
      f-2     :     0.000866
      f+3     :     0.000961
      f-3     :     0.001218
 13 Aus       :     2.502891  s :     2.502891
      pz      :     2.087881  p :     6.420402
      px      :     2.154649
      py      :     2.177872
      dz2     :     1.954242  d :     9.907893
      dxz     :     1.988177
      dyz     :     1.990269
      dx2y2   :     1.985391
      dxy     :     1.989813
      f0      :     0.000715  f :     0.005121
      f+1     :     0.000659
      f-1     :     0.000825
      f+2     :     0.000679
      f-2     :     0.001039
      f+3     :     0.000461
      f-3     :     0.000743
 14 Crs       :     6.233955  s :     6.233955
      pz      :     4.206715  p :    12.586528
      px      :     4.183318
      py      :     4.196495
      dz2     :     1.334182  d :     6.654569
      dxz     :     1.252122
      dyz     :     1.301401
      dx2y2   :     1.315708
      dxy     :     1.451155
      f0      :     0.000316  f :     0.002002
      f+1     :     0.000256
      f-1     :     0.000319
      f+2     :     0.000366
      f-2     :     0.000227
      f+3     :     0.000327
      f-3     :     0.000191

SPIN
  0 Aus       :    -0.039812  s :    -0.039812
      pz      :    -0.035276  p :    -0.051911
      px      :    -0.004372
      py      :    -0.012263
      dz2     :     0.001245  d :    -0.000687
      dxz     :    -0.005048
      dyz     :    -0.000158
      dx2y2   :    -0.000025
      dxy     :     0.003299
      f0      :     0.000054  f :     0.000326
      f+1     :     0.000000
      f-1     :     0.000031
      f+2     :     0.000014
      f-2     :     0.000071
      f+3     :     0.000114
      f-3     :     0.000042
  1 Aus       :    -0.058348  s :    -0.058348
      pz      :    -0.007572  p :    -0.074740
      px      :    -0.027727
      py      :    -0.039440
      dz2     :     0.005787  d :     0.009979
      dxz     :     0.004237
      dyz     :     0.001705
      dx2y2   :     0.000241
      dxy     :    -0.001991
      f0      :     0.000192  f :     0.000471
      f+1     :     0.000071
      f-1     :     0.000158
      f+2     :     0.000016
      f-2     :     0.000030
      f+3     :    -0.000009
      f-3     :     0.000012
  2 Aus       :    -0.057749  s :    -0.057749
      pz      :    -0.017916  p :    -0.027909
      px      :     0.004669
      py      :    -0.014662
      dz2     :    -0.000369  d :     0.003968
      dxz     :     0.002482
      dyz     :    -0.004031
      dx2y2   :    -0.000234
      dxy     :     0.006120
      f0      :     0.000040  f :     0.000399
      f+1     :     0.000045
      f-1     :    -0.000006
      f+2     :     0.000109
      f-2     :     0.000065
      f+3     :     0.000071
      f-3     :     0.000074
  3 Aus       :    -0.079759  s :    -0.079759
      pz      :    -0.020838  p :    -0.065856
      px      :    -0.023141
      py      :    -0.021877
      dz2     :    -0.000366  d :     0.005046
      dxz     :     0.001394
      dyz     :     0.005144
      dx2y2   :    -0.001090
      dxy     :    -0.000036
      f0      :     0.000034  f :     0.000423
      f+1     :    -0.000010
      f-1     :     0.000134
      f+2     :     0.000155
      f-2     :     0.000053
      f+3     :     0.000026
      f-3     :     0.000030
  4 Aus       :    -0.057645  s :    -0.057645
      pz      :    -0.016408  p :    -0.027831
      px      :     0.004262
      py      :    -0.015684
      dz2     :    -0.001070  d :     0.003981
      dxz     :     0.008718
      dyz     :    -0.002616
      dx2y2   :    -0.000782
      dxy     :    -0.000269
      f0      :     0.000047  f :     0.000398
      f+1     :     0.000065
      f-1     :    -0.000009
      f+2     :     0.000137
      f-2     :     0.000026
      f+3     :     0.000073
      f-3     :     0.000058
  5 Aus       :    -0.039690  s :    -0.039690
      pz      :    -0.036827  p :    -0.051905
      px      :    -0.002595
      py      :    -0.012483
      dz2     :     0.001317  d :    -0.000736
      dxz     :    -0.006134
      dyz     :    -0.000987
      dx2y2   :     0.001196
      dxy     :     0.003871
      f0      :     0.000015  f :     0.000324
      f+1     :     0.000029
      f-1     :     0.000071
      f+2     :    -0.000016
      f-2     :     0.000021
      f+3     :     0.000151
      f-3     :     0.000052
  6 Aus       :    -0.057825  s :    -0.057825
      pz      :    -0.015709  p :    -0.027938
      px      :     0.003599
      py      :    -0.015829
      dz2     :     0.004918  d :     0.003889
      dxz     :     0.005796
      dyz     :     0.000871
      dx2y2   :    -0.003736
      dxy     :    -0.003959
      f0      :     0.000029  f :     0.000398
      f+1     :     0.000174
      f-1     :    -0.000011
      f+2     :     0.000118
      f-2     :     0.000068
      f+3     :     0.000006
      f-3     :     0.000016
  7 Aus       :    -0.037963  s :    -0.037963
      pz      :    -0.036206  p :    -0.042985
      px      :     0.002926
      py      :    -0.009705
      dz2     :     0.000530  d :     0.011311
      dxz     :    -0.006797
      dyz     :     0.001160
      dx2y2   :     0.012858
      dxy     :     0.003559
      f0      :     0.000010  f :     0.000374
      f+1     :     0.000025
      f-1     :     0.000049
      f+2     :     0.000010
      f-2     :     0.000043
      f+3     :     0.000162
      f-3     :     0.000075
  8 Aus       :    -0.058366  s :    -0.058366
      pz      :    -0.022989  p :    -0.074767
      px      :    -0.028278
      py      :    -0.023500
      dz2     :     0.001037  d :     0.009987
      dxz     :     0.002555
      dyz     :     0.005461
      dx2y2   :     0.001405
      dxy     :    -0.000470
      f0      :     0.000031  f :     0.000471
      f+1     :     0.000000
      f-1     :     0.000127
      f+2     :     0.000175
      f-2     :     0.000038
      f+3     :     0.000021
      f-3     :     0.000079
  9 Aus       :     0.048534  s :     0.048534
      pz      :    -0.018670  p :    -0.017864
      px      :     0.002455
      py      :    -0.001649
      dz2     :    -0.005654  d :    -0.018970
      dxz     :    -0.007154
      dyz     :    -0.005545
      dx2y2   :     0.000429
      dxy     :    -0.001046
      f0      :    -0.000007  f :    -0.000064
      f+1     :    -0.000015
      f-1     :    -0.000010
      f+2     :    -0.000012
      f-2     :    -0.000018
      f+3     :     0.000002
      f-3     :    -0.000005
 10 Aus       :    -0.037904  s :    -0.037904
      pz      :    -0.034007  p :    -0.042968
      px      :     0.000457
      py      :    -0.009418
      dz2     :     0.000723  d :     0.011318
      dxz     :    -0.006975
      dyz     :     0.002105
      dx2y2   :     0.012914
      dxy     :     0.002550
      f0      :     0.000032  f :     0.000374
      f+1     :     0.000008
      f-1     :     0.000028
      f+2     :     0.000047
      f-2     :     0.000060
      f+3     :     0.000120
      f-3     :     0.000079
 11 Aus       :     0.048410  s :     0.048410
      pz      :    -0.019516  p :    -0.017903
      px      :     0.003400
      py      :    -0.001787
      dz2     :    -0.002002  d :    -0.019005
      dxz     :    -0.009848
      dyz     :    -0.007208
      dx2y2   :    -0.000637
      dxy     :     0.000690
      f0      :    -0.000009  f :    -0.000063
      f+1     :    -0.000012
      f-1     :    -0.000001
      f+2     :    -0.000011
      f-2     :    -0.000029
      f+3     :     0.000000
      f-3     :    -0.000001
 12 Aus       :    -0.057850  s :    -0.057850
      pz      :    -0.016390  p :    -0.027916
      px      :     0.003096
      py      :    -0.014623
      dz2     :     0.005781  d :     0.003915
      dxz     :     0.000377
      dyz     :    -0.000559
      dx2y2   :    -0.004328
      dxy     :     0.002644
      f0      :     0.000013  f :     0.000397
      f+1     :     0.000129
      f-1     :     0.000014
      f+2     :     0.000115
      f-2     :     0.000097
      f+3     :     0.000011
      f-3     :     0.000018
 13 Aus       :    -0.079786  s :    -0.079786
      pz      :    -0.009166  p :    -0.065899
      px      :    -0.022777
      py      :    -0.033956
      dz2     :     0.004181  d :     0.004969
      dxz     :     0.004696
      dyz     :     0.002086
      dx2y2   :    -0.002607
      dxy     :    -0.003387
      f0      :     0.000187  f :     0.000421
      f+1     :     0.000077
      f-1     :     0.000153
      f+2     :    -0.000003
      f-2     :     0.000025
      f+3     :    -0.000014
      f-3     :    -0.000004
 14 Crs       :     0.019029  s :     0.019029
      pz      :     0.014095  p :     0.042787
      px      :     0.015765
      py      :     0.012927
      dz2     :     0.603449  d :     3.088596
      dxz     :     0.503797
      dyz     :     0.500509
      dx2y2   :     0.670467
      dxy     :     0.810374
      f0      :     0.000019  f :     0.000121
      f+1     :     0.000013
      f-1     :     0.000019
      f+2     :     0.000021
      f-2     :     0.000015
      f+3     :     0.000021
      f-3     :     0.000013


                      *****************************
                      * MAYER POPULATION ANALYSIS *
                      *****************************

  NA   - Mulliken gross atomic population
  ZA   - Total nuclear charge
  QA   - Mulliken gross atomic charge
  VA   - Mayer's total valence
  BVA  - Mayer's bonded valence
  FA   - Mayer's free valence

  ATOM       NA         ZA         QA         VA         BVA        FA
  0 Au    18.4745    19.0000     0.5255     1.6069     1.6036     0.0033
  1 Au    18.4427    19.0000     0.5573     1.7670     1.7605     0.0065
  2 Au    18.6712    19.0000     0.3288     1.8416     1.8313     0.0103
  3 Au    18.4099    19.0000     0.5901     1.5910     1.5798     0.0112
  4 Au    18.6720    19.0000     0.3280     1.8437     1.8334     0.0103
  5 Au    18.4744    19.0000     0.5256     1.6061     1.6028     0.0033
  6 Au    18.6707    19.0000     0.3293     1.8402     1.8299     0.0104
  7 Au    18.6704    19.0000     0.3296     1.9567     1.9536     0.0031
  8 Au    18.4429    19.0000     0.5571     1.7677     1.7612     0.0065
  9 Au    18.6960    19.0000     0.3040     1.4064     1.3965     0.0099
 10 Au    18.6705    19.0000     0.3295     1.9576     1.9545     0.0031
 11 Au    18.6968    19.0000     0.3032     1.4068     1.3970     0.0098
 12 Au    18.6713    19.0000     0.3287     1.8414     1.8311     0.0104
 13 Au    18.4101    19.0000     0.5899     1.5904     1.5791     0.0112
 14 Cr    29.9266    24.0000    -5.9266    10.5925     7.5216     3.0709

  Mayer bond orders larger than 0.100000
B(  0-Au,  1-Au) :   0.1703 B(  0-Au,  2-Au) :   0.1933 B(  0-Au,  5-Au) :   0.1264 
B(  0-Au,  6-Au) :   0.1942 B(  0-Au,  8-Au) :   0.1708 B(  0-Au, 14-Cr) :   0.5427 
B(  1-Au,  3-Au) :   0.1213 B(  1-Au,  4-Au) :   0.2392 B(  1-Au,  5-Au) :   0.1712 
B(  1-Au,  6-Au) :   0.2381 B(  1-Au, 14-Cr) :   0.5834 B(  2-Au,  6-Au) :   0.1044 
B(  2-Au,  8-Au) :   0.2386 B(  2-Au, 11-Au) :   0.2782 B(  2-Au, 13-Au) :   0.1556 
B(  2-Au, 14-Cr) :   0.5409 B(  3-Au,  4-Au) :   0.1553 B(  3-Au,  6-Au) :   0.1554 
B(  3-Au,  7-Au) :   0.1530 B(  3-Au, 10-Au) :   0.1516 B(  3-Au, 14-Cr) :   0.6517 
B(  4-Au,  5-Au) :   0.1933 B(  4-Au,  9-Au) :   0.2792 B(  4-Au, 12-Au) :   0.1048 
B(  4-Au, 14-Cr) :   0.5409 B(  5-Au,  8-Au) :   0.1708 B(  5-Au, 12-Au) :   0.1934 
B(  5-Au, 14-Cr) :   0.5426 B(  6-Au, 11-Au) :   0.2773 B(  6-Au, 14-Cr) :   0.5405 
B(  7-Au, 10-Au) :   0.3345 B(  7-Au, 11-Au) :   0.3683 B(  7-Au, 13-Au) :   0.1521 
B(  7-Au, 14-Cr) :   0.5270 B(  8-Au, 12-Au) :   0.2388 B(  8-Au, 13-Au) :   0.1210 
B(  8-Au, 14-Cr) :   0.5840 B(  9-Au, 10-Au) :   0.3684 B(  9-Au, 12-Au) :   0.2774 
B(  9-Au, 14-Cr) :   0.3734 B( 10-Au, 13-Au) :   0.1525 B( 10-Au, 14-Cr) :   0.5277 
B( 11-Au, 14-Cr) :   0.3747 B( 12-Au, 13-Au) :   0.1554 B( 12-Au, 14-Cr) :   0.5409 
B( 13-Au, 14-Cr) :   0.6510 

-------
TIMINGS
-------

Total SCF time: 0 days 0 hours 10 min 39 sec 

Total time                  ....     639.468 sec
Sum of individual times     ....     605.736 sec  ( 94.7%)

Fock matrix formation       ....     368.736 sec  ( 57.7%)
  Split-RI-J                ....      91.185 sec  ( 24.7% of F)
  XC integration            ....     237.467 sec  ( 64.4% of F)
    Basis function eval.    ....      13.212 sec  (  5.6% of XC)
    Density eval.           ....      97.050 sec  ( 40.9% of XC)
    XC-Functional eval.     ....       7.563 sec  (  3.2% of XC)
    XC-Potential eval.      ....     100.799 sec  ( 42.4% of XC)
Diagonalization             ....     225.978 sec  ( 35.3%)
Density matrix formation    ....       3.907 sec  (  0.6%)
Population analysis         ....       2.721 sec  (  0.4%)
Initial guess               ....       0.709 sec  (  0.1%)
Orbital Transformation      ....       0.000 sec  (  0.0%)
Orbital Orthonormalization  ....       0.436 sec  (  0.1%)
DIIS solution               ....       0.000 sec  (  0.0%)
Grid generation             ....       3.685 sec  (  0.6%)

Maximum memory used throughout the entire SCF-calculation: 102.6 MB

-------------------------   --------------------
FINAL SINGLE POINT ENERGY     -2946.321817967667
-------------------------   --------------------


                            ***************************************
                            *     ORCA property calculations      *
                            ***************************************

                                    ---------------------
                                    Active property flags
                                    ---------------------
   (+) Dipole Moment


------------------------------------------------------------------------------
                       ORCA ELECTRIC PROPERTIES CALCULATION
------------------------------------------------------------------------------

Dipole Moment Calculation                       ... on
Quadrupole Moment Calculation                   ... off
Polarizability Calculation                      ... off
GBWName                                         ... scan_job2.gbw
Electron density                                ... scan_job2.scfp
The origin for moment calculation is the CENTER OF MASS  = (15.479044, 16.975248 13.182575)

-------------
DIPOLE MOMENT
-------------
                                X             Y             Z
Electronic contribution:      0.31525       6.51041      -1.77117
Nuclear contribution   :     -0.31180      -6.42077       1.74638
                        -----------------------------------------
Total Dipole Moment    :      0.00344       0.08965      -0.02479
                        -----------------------------------------
Magnitude (a.u.)       :      0.09308
Magnitude (Debye)      :      0.23658



--------------------
Rotational spectrum 
--------------------
 
Rotational constants in cm-1:     0.001287     0.000950     0.000897 
Rotational constants in MHz :    38.577487    28.493121    26.890241 

 Dipole components along the rotational axes: 
x,y,z [a.u.] :     0.001515     0.093063    -0.000106 
x,y,z [Debye]:     0.003850     0.236547    -0.000269 

 

Timings for individual modules:

Sum of individual times         ...      667.900 sec (=  11.132 min)
GTO integral calculation        ...       27.521 sec (=   0.459 min)   4.1 %
SCF iterations                  ...      640.379 sec (=  10.673 min)  95.9 %



                             ****ORCA TERMINATED NORMALLY****
TOTAL RUN TIME: 0 days 0 hours 27 minutes 36 seconds 147 msec
