
                                 *****************
                                 * O   R   C   A *
                                 *****************

                                            #,                                       
                                            ###                                      
                                            ####                                     
                                            #####                                    
                                            ######                                   
                                           ########,                                 
                                     ,,################,,,,,                         
                               ,,#################################,,                 
                          ,,##########################################,,             
                       ,#########################################, ''#####,          
                    ,#############################################,,   '####,        
                  ,##################################################,,,,####,       
                ,###########''''           ''''###############################       
              ,#####''   ,,,,##########,,,,          '''####'''          '####       
            ,##' ,,,,###########################,,,                        '##       
           ' ,,###''''                  '''############,,,                           
         ,,##''                                '''############,,,,        ,,,,,,###''
      ,#''                                            '''#######################'''  
     '                                                          ''''####''''         
             ,#######,   #######,   ,#######,      ##                                
            ,#'     '#,  ##    ##  ,#'     '#,    #''#        ######   ,####,        
            ##       ##  ##   ,#'  ##            #'  '#       #        #'  '#        
            ##       ##  #######   ##           ,######,      #####,   #    #        
            '#,     ,#'  ##    ##  '#,     ,#' ,#      #,         ##   #,  ,#        
             '#######'   ##     ##  '#######'  #'      '#     #####' # '####'        



                  #######################################################
                  #                        -***-                        #
                  #          Department of theory and spectroscopy      #
                  #    Directorship and core code : Frank Neese         #
                  #        Max Planck Institute fuer Kohlenforschung    #
                  #                Kaiser Wilhelm Platz 1               #
                  #                 D-45470 Muelheim/Ruhr               #
                  #                      Germany                        #
                  #                                                     #
                  #                  All rights reserved                #
                  #                        -***-                        #
                  #######################################################


                         Program Version 5.0.3 -  RELEASE  -


 With contributions from (in alphabetic order):
   Daniel Aravena         : Magnetic Suceptibility
   Michael Atanasov       : Ab Initio Ligand Field Theory (pilot matlab implementation)
   Alexander A. Auer      : GIAO ZORA, VPT2 properties, NMR spectrum
   Ute Becker             : Parallelization
   Giovanni Bistoni       : ED, misc. LED, open-shell LED, HFLD
   Martin Brehm           : Molecular dynamics
   Dmytro Bykov           : SCF Hessian
   Vijay G. Chilkuri      : MRCI spin determinant printing, contributions to CSF-ICE
   Dipayan Datta          : RHF DLPNO-CCSD density
   Achintya Kumar Dutta   : EOM-CC, STEOM-CC
   Dmitry Ganyushin       : Spin-Orbit,Spin-Spin,Magnetic field MRCI
   Miquel Garcia          : C-PCM and meta-GGA Hessian, CC/C-PCM, Gaussian charge scheme
   Yang Guo               : DLPNO-NEVPT2, F12-NEVPT2, CIM, IAO-localization
   Andreas Hansen         : Spin unrestricted coupled pair/coupled cluster methods
   Benjamin Helmich-Paris : MC-RPA, TRAH-SCF, COSX integrals
   Lee Huntington         : MR-EOM, pCC
   Robert Izsak           : Overlap fitted RIJCOSX, COSX-SCS-MP3, EOM
   Marcus Kettner         : VPT2
   Christian Kollmar      : KDIIS, OOCD, Brueckner-CCSD(T), CCSD density, CASPT2, CASPT2-K
   Simone Kossmann        : Meta GGA functionals, TD-DFT gradient, OOMP2, MP2 Hessian
   Martin Krupicka        : Initial AUTO-CI
   Lucas Lang             : DCDCAS
   Marvin Lechner         : AUTO-CI (C++ implementation), FIC-MRCC
   Dagmar Lenk            : GEPOL surface, SMD
   Dimitrios Liakos       : Extrapolation schemes; Compound Job, initial MDCI parallelization
   Dimitrios Manganas     : Further ROCIS development; embedding schemes
   Dimitrios Pantazis     : SARC Basis sets
   Anastasios Papadopoulos: AUTO-CI, single reference methods and gradients
   Taras Petrenko         : DFT Hessian,TD-DFT gradient, ASA, ECA, R-Raman, ABS, FL, XAS/XES, NRVS
   Peter Pinski           : DLPNO-MP2, DLPNO-MP2 Gradient
   Christoph Reimann      : Effective Core Potentials
   Marius Retegan         : Local ZFS, SOC
   Christoph Riplinger    : Optimizer, TS searches, QM/MM, DLPNO-CCSD(T), (RO)-DLPNO pert. Triples
   Tobias Risthaus        : Range-separated hybrids, TD-DFT gradient, RPA, STAB
   Michael Roemelt        : Original ROCIS implementation
   Masaaki Saitow         : Open-shell DLPNO-CCSD energy and density
   Barbara Sandhoefer     : DKH picture change effects
   Avijit Sen             : IP-ROCIS
   Kantharuban Sivalingam : CASSCF convergence, NEVPT2, FIC-MRCI
   Bernardo de Souza      : ESD, SOC TD-DFT
   Georgi Stoychev        : AutoAux, RI-MP2 NMR, DLPNO-MP2 response
   Willem Van den Heuvel  : Paramagnetic NMR
   Boris Wezisla          : Elementary symmetry handling
   Frank Wennmohs         : Technical directorship


 We gratefully acknowledge several colleagues who have allowed us to
 interface, adapt or use parts of their codes:
   Stefan Grimme, W. Hujo, H. Kruse, P. Pracht,  : VdW corrections, initial TS optimization,
                  C. Bannwarth, S. Ehlert          DFT functionals, gCP, sTDA/sTD-DF
   Ed Valeev, F. Pavosevic, A. Kumar             : LibInt (2-el integral package), F12 methods
   Garnet Chan, S. Sharma, J. Yang, R. Olivares  : DMRG
   Ulf Ekstrom                                   : XCFun DFT Library
   Mihaly Kallay                                 : mrcc  (arbitrary order and MRCC methods)
   Jiri Pittner, Ondrej Demel                    : Mk-CCSD
   Frank Weinhold                                : gennbo (NPA and NBO analysis)
   Christopher J. Cramer and Donald G. Truhlar   : smd solvation model
   Lars Goerigk                                  : TD-DFT with DH, B97 family of functionals
   V. Asgeirsson, H. Jonsson                     : NEB implementation
   FAccTs GmbH                                   : IRC, NEB, NEB-TS, DLPNO-Multilevel, CI-OPT
                                                   MM, QMMM, 2- and 3-layer-ONIOM, Crystal-QMMM,
                                                   LR-CPCM, SF, NACMEs, symmetry and pop. for TD-DFT,
                                                   nearIR, NL-DFT gradient (VV10), updates on ESD,
                                                   ML-optimized integration grids
   S Lehtola, MJT Oliveira, MAL Marques          : LibXC Library
   Liviu Ungur et al                             : ANISO software


 Your calculation uses the libint2 library for the computation of 2-el integrals
 For citations please refer to: http://libint.valeyev.net

 Your ORCA version has been built with support for libXC version: 5.1.0
 For citations please refer to: https://tddft.org/programs/libxc/

 This ORCA versions uses:
   CBLAS   interface :  Fast vector & matrix operations
   LAPACKE interface :  Fast linear algebra routines
   SCALAPACK package :  Parallel linear algebra routines
   Shared memory     :  Shared parallel matrices
   BLAS/LAPACK       :  OpenBLAS 0.3.15  USE64BITINT DYNAMIC_ARCH NO_AFFINITY Sandybridge SINGLE_THREADED
        Core in use  :  Sandybridge
   Copyright (c) 2011-2014, The OpenBLAS Project




***************************************
The coordinates will be read from file: pbe.xyz
***************************************


================================================================================

cite the ECPs for Au [Def2-ECP] as follows:
Ce-Yb(ecp-28): M. Dolg, H. Stoll, H.Preuss, J. Chem. Phys., 1989, 90, 1730-1734.
Y-Cd(ecp-28), Hf-Hg(ecp-46): D. Andrae,U. Haeussermann, M. Dolg, H. Stoll, H. Preuss, Theor. Chim. Acta, 1990, 77, 123-141.
In-Sb(ecp-28), Tl-Bi(ecp-46): B. Metz, H. Stoll, M. Dolg, J. Chem. Phys., 2000, 113, 2563-2569.
Te-Xe(ecp-28), Po-Rn(ecp-46): K. A. Peterson, D. Figgen, E. Goll, H. Stoll, M. Dolg, J. Chem. Phys., 2003, 119, 11113-11123.
Rb(ecp-28), Cs(ecp-46): T. Leininger, A. Nicklass, W. Kuechle, H. Stoll, M. Dolg, A. Bergner, Chem. Phys. Lett., 1996, 255, 274-280.
Sr(ecp-28), Ba(ecp-46): M. Kaupp, P. V. Schleyer, H. Stoll and H. Preuss, J. Chem. Phys., 1991, 94, 1360-1366.
La(ecp-46): M. Dolg, H. Stoll, A. Savin, H. Preuss, Theor. Chim. Acta, 1989, 75, 173-194.
Lu(ecp-28): X. Cao, M. Dolg, J. Chem. Phys., 2001, 115, 7348-7355.

ECP parameters for Au [Def2-ECP] have been obtained from:
TURBOMOLE (7.0.2)

----- Orbital basis set information -----
Your calculation utilizes the basis: def2-TZVP
   F. Weigend and R. Ahlrichs, Phys. Chem. Chem. Phys. 7, 3297 (2005).

----- AuxJ basis set information -----
Your calculation utilizes the auxiliary basis: def2/J
   F. Weigend, Phys. Chem. Chem. Phys. 8, 1057 (2006).

================================================================================
                                        WARNINGS
                       Please study these warnings very carefully!
================================================================================


WARNING: your system is open-shell and RHF/RKS was chosen
  ===> : WILL SWITCH to UHF/UKS


INFO   : the flag for use of the SHARK integral package has been found!



***************************************
The coordinates will be read from file: pbe.xyz
***************************************


================================================================================

cite the ECPs for Au [Def2-ECP] as follows:
Ce-Yb(ecp-28): M. Dolg, H. Stoll, H.Preuss, J. Chem. Phys., 1989, 90, 1730-1734.
Y-Cd(ecp-28), Hf-Hg(ecp-46): D. Andrae,U. Haeussermann, M. Dolg, H. Stoll, H. Preuss, Theor. Chim. Acta, 1990, 77, 123-141.
In-Sb(ecp-28), Tl-Bi(ecp-46): B. Metz, H. Stoll, M. Dolg, J. Chem. Phys., 2000, 113, 2563-2569.
Te-Xe(ecp-28), Po-Rn(ecp-46): K. A. Peterson, D. Figgen, E. Goll, H. Stoll, M. Dolg, J. Chem. Phys., 2003, 119, 11113-11123.
Rb(ecp-28), Cs(ecp-46): T. Leininger, A. Nicklass, W. Kuechle, H. Stoll, M. Dolg, A. Bergner, Chem. Phys. Lett., 1996, 255, 274-280.
Sr(ecp-28), Ba(ecp-46): M. Kaupp, P. V. Schleyer, H. Stoll and H. Preuss, J. Chem. Phys., 1991, 94, 1360-1366.
La(ecp-46): M. Dolg, H. Stoll, A. Savin, H. Preuss, Theor. Chim. Acta, 1989, 75, 173-194.
Lu(ecp-28): X. Cao, M. Dolg, J. Chem. Phys., 2001, 115, 7348-7355.

ECP parameters for Au [Def2-ECP] have been obtained from:
TURBOMOLE (7.0.2)

----- Orbital basis set information -----
Your calculation utilizes the basis: def2-TZVP
   F. Weigend and R. Ahlrichs, Phys. Chem. Chem. Phys. 7, 3297 (2005).

----- AuxJ basis set information -----
Your calculation utilizes the auxiliary basis: def2/J
   F. Weigend, Phys. Chem. Chem. Phys. 8, 1057 (2006).

================================================================================
                                        WARNINGS
                       Please study these warnings very carefully!
================================================================================


INFO   : the flag for use of the SHARK integral package has been found!

================================================================================
                                       INPUT FILE
================================================================================
NAME = pbeSP.inp
|  1> !PBE def2-TZVP VERYSLOWCONV
|  2> !KDIIS
|  3> 
|  4> %scf
|  5>   AutoTRAHIter 200
|  6>   maxiter 400
|  7> end
|  8> 
|  9> 
| 10> %pal nprocs 6 end 
| 11> 
| 12> *xyzfile 0 6 pbe.xyz
| 13> 
| 14> $new_job
| 15> 
| 16> !PBE def2-TZVP VERYSLOWCONV
| 17> !KDIIS
| 18> 
| 19> %scf
| 20>   AutoTRAHIter 200
| 21>   maxiter 400
| 22> end
| 23>  
| 24> 
| 25> %pal nprocs 6 end 
| 26> 
| 27> *xyzfile 0 4 pbe.xyz
| 28> 
| 29> 
| 30> 
| 31> 
| 32> 
| 33>                          ****END OF INPUT****
================================================================================


                 $$$$$$$$$$$$$$$$$$$$$$$$$$$$$$$$$$$$$$$$$$$$$$ 
                 $ THERE ARE  2 JOBS TO BE PROCESSED THIS RUN $
                 $$$$$$$$$$$$$$$$$$$$$$$$$$$$$$$$$$$$$$$$$$$$$$ 




                 $$$$$$$$$$$$$$$$  JOB NUMBER  1 $$$$$$$$$$$$$$


                       ****************************
                       * Single Point Calculation *
                       ****************************

---------------------------------
CARTESIAN COORDINATES (ANGSTROEM)
---------------------------------
  Au    10.767950   12.175862    8.164332
  Au     8.312011    8.284408   10.479405
  Au    10.276731    9.844093    9.566493
  Au     6.568404    7.208827    8.713589
  Au    12.491259    9.787470    7.905995
  Au     6.150269    9.715466    7.238421
  Au     8.161119   11.406047    7.856120
  Au    10.925220    7.603137    7.419821
  Au    10.249192   10.177526    6.245914
  Au     8.637916    6.290105    6.853433
  Au     6.048141    7.143595    6.022553
  Au     8.180104    8.766752    5.257013
  Mn     8.555103    8.759659    7.858300

----------------------------
CARTESIAN COORDINATES (A.U.)
----------------------------
  NO LB      ZA    FRAG     MASS         X           Y           Z
   0 Au   19.0000*   0   196.966   20.348477   23.009044   15.428352
   1 Au   19.0000*   0   196.966   15.707425   15.655262   19.803205
   2 Au   19.0000*   0   196.966   19.420207   18.602639   18.078052
   3 Au   19.0000*   0   196.966   12.412484   13.622709   16.466296
   4 Au   19.0000*   0   196.966   23.605058   18.495638   14.940164
   5 Au   19.0000*   0   196.966   11.622323   18.359570   13.678633
   6 Au   19.0000*   0   196.966   15.422279   21.554305   14.845916
   7 Au   19.0000*   0   196.966   20.645673   14.367847   14.021430
   8 Au   19.0000*   0   196.966   19.368165   19.232736   11.803067
   9 Au   19.0000*   0   196.966   16.323296   11.886575   12.951112
  10 Au   19.0000*   0   196.966   11.429331   13.499437   11.380975
  11 Au   19.0000*   0   196.966   15.458156   16.566759    9.934315
  12 Mn   25.0000    0    54.940   16.166802   16.553356   14.850035
* core charge reduced due to ECP

--------------------------------
INTERNAL COORDINATES (ANGSTROEM)
--------------------------------
 Au     0   0   0     0.000000000000     0.00000000     0.00000000
 Au     1   0   0     5.151175847168     0.00000000     0.00000000
 Au     2   1   0     2.669484595721    18.91895223     0.00000000
 Au     2   1   3     2.704653016849   108.32246097   232.78248599
 Au     3   2   1     2.768500829917   141.43354368   238.97931433
 Au     4   2   1     2.938400267264    94.60344852   330.98215832
 Au     6   4   2     2.698728044590   108.26739790    17.23024233
 Au     5   3   2     2.731328364930    70.39609084    15.45893738
 Au     5   3   2     2.816891121896    73.37940405    82.33141714
 Au     8   5   3     2.697518728161   155.89774313    52.13914306
 Au     4   2   1     2.741642376138   140.59031638    17.24948287
 Au     9   5   3     2.692458433663   139.07395312   285.48421066
 Mn    12   9   5     2.628187044614    61.85133844    53.84167507

---------------------------
INTERNAL COORDINATES (A.U.)
---------------------------
 Au     0   0   0     0.000000000000     0.00000000     0.00000000
 Au     1   0   0     9.734311618818     0.00000000     0.00000000
 Au     2   1   0     5.044594804634    18.91895223     0.00000000
 Au     2   1   3     5.111053489129   108.32246097   232.78248599
 Au     3   2   1     5.231708370078   141.43354368   238.97931433
 Au     4   2   1     5.552771776970    94.60344852   330.98215832
 Au     6   4   2     5.099856914208   108.26739790    17.23024233
 Au     5   3   2     5.161462591529    70.39609084    15.45893738
 Au     5   3   2     5.323152769459    73.37940405    82.33141714
 Au     8   5   3     5.097571637348   155.89774313    52.13914306
 Au     4   2   1     5.180953248054   140.59031638    17.24948287
 Au     9   5   3     5.088009066590   139.07395312   285.48421066
 Mn    12   9   5     4.966553743040    61.85133844    53.84167507

---------------------
BASIS SET INFORMATION
---------------------
There are 2 groups of distinct atoms

 Group   1 Type Au  : 8s7p6d1f contracted to 6s4p3d1f pattern {311111/4111/411/1}
 Group   2 Type Mn  : 17s11p7d1f contracted to 6s4p4d1f pattern {842111/6311/4111/1}

Atom   0Au   basis set group =>   1
Atom   1Au   basis set group =>   1
Atom   2Au   basis set group =>   1
Atom   3Au   basis set group =>   1
Atom   4Au   basis set group =>   1
Atom   5Au   basis set group =>   1
Atom   6Au   basis set group =>   1
Atom   7Au   basis set group =>   1
Atom   8Au   basis set group =>   1
Atom   9Au   basis set group =>   1
Atom  10Au   basis set group =>   1
Atom  11Au   basis set group =>   1
Atom  12Mn   basis set group =>   2
---------------------------------
AUXILIARY/J BASIS SET INFORMATION
---------------------------------
There are 2 groups of distinct atoms

 Group   1 Type Au  : 11s5p5d3f3g contracted to 8s5p5d2f3g pattern {41111111/11111/11111/21/111}
 Group   2 Type Mn  : 19s5p5d3f3g contracted to 8s5p5d2f3g pattern {121111111/11111/11111/21/111}

Atom   0Au   basis set group =>   1
Atom   1Au   basis set group =>   1
Atom   2Au   basis set group =>   1
Atom   3Au   basis set group =>   1
Atom   4Au   basis set group =>   1
Atom   5Au   basis set group =>   1
Atom   6Au   basis set group =>   1
Atom   7Au   basis set group =>   1
Atom   8Au   basis set group =>   1
Atom   9Au   basis set group =>   1
Atom  10Au   basis set group =>   1
Atom  11Au   basis set group =>   1
Atom  12Mn   basis set group =>   2
-------------------------
ECP PARAMETER INFORMATION
-------------------------

 Group 1, Type Au ECP Def2-ECP (replacing 60 core electrons, lmax=3)

Atom   0Au   ECP group =>   1
Atom   1Au   ECP group =>   1
Atom   2Au   ECP group =>   1
Atom   3Au   ECP group =>   1
Atom   4Au   ECP group =>   1
Atom   5Au   ECP group =>   1
Atom   6Au   ECP group =>   1
Atom   7Au   ECP group =>   1
Atom   8Au   ECP group =>   1
Atom   9Au   ECP group =>   1
Atom  10Au   ECP group =>   1
Atom  11Au   ECP group =>   1



           ************************************************************
           *        Program running with 6 parallel MPI-processes     *
           *              working on a common directory               *
           ************************************************************
------------------------------------------------------------------------------
                           ORCA GTO INTEGRAL CALCULATION
                           -- RI-GTO INTEGRALS CHOSEN --
------------------------------------------------------------------------------
------------------------------------------------------------------------------
                   ___                                                        
                  /   \      - P O W E R E D   B Y -                         
                 /     \                                                     
                 |  |  |   _    _      __       _____    __    __             
                 |  |  |  | |  | |    /  \     |  _  \  |  |  /  |          
                  \  \/   | |  | |   /    \    | | | |  |  | /  /          
                 / \  \   | |__| |  /  /\  \   | |_| |  |  |/  /          
                |  |  |   |  __  | /  /__\  \  |    /   |      \           
                |  |  |   | |  | | |   __   |  |    \   |  |\   \          
                \     /   | |  | | |  |  |  |  | |\  \  |  | \   \       
                 \___/    |_|  |_| |__|  |__|  |_| \__\ |__|  \__/        
                                                                              
                      - O R C A' S   B I G   F R I E N D -                    
                                      &                                       
                       - I N T E G R A L  F E E D E R -                       
                                                                              
 v1 FN, 2020, v2 2021                                                         
------------------------------------------------------------------------------


Reading SHARK input file pbeSP.SHARKINP.tmp ... ok
----------------------
SHARK INTEGRAL PACKAGE
----------------------

Number of atoms                             ...     13
Number of basis functions                   ...    525
Number of shells                            ...    183
Maximum angular momentum                    ...      3
Integral batch strategy                     ... SHARK/LIBINT Hybrid
RI-J (if used) integral strategy            ... SPLIT-RIJ (Revised 2003 algorithm where possible)
Printlevel                                  ...      1
Contraction scheme used                     ... SEGMENTED contraction
Coulomb Range Separation                    ... NOT USED
Exchange Range Separation                   ... NOT USED
Finite Nucleus Model                        ... NOT USED
Auxiliary Coulomb fitting basis             ... AVAILABLE
   # of basis functions in Aux-J            ...   1157
   # of shells in Aux-J                     ...    299
   Maximum angular momentum in Aux-J        ...      4
Auxiliary J/K fitting basis                 ... NOT available
Auxiliary Correlation fitting basis         ... NOT available
Auxiliary 'external' fitting basis          ... NOT available
Integral threshold                          ...     1.000000e-10
Primitive cut-off                           ...     1.000000e-11
Primitive pair pre-selection threshold      ...     1.000000e-11

Calculating pre-screening integrals         ... done (  0.2 sec) Dimension = 183
Organizing shell pair data                  ... done (  0.4 sec)
Shell pair information
Total number of shell pairs                 ...     16836
Shell pairs after pre-screening             ...     13495
Total number of primitive shell pairs       ...     45389
Primitive shell pairs kept                  ...     26528
          la=0 lb=0:   2122 shell pairs
          la=1 lb=0:   3083 shell pairs
          la=1 lb=1:   1170 shell pairs
          la=2 lb=0:   2661 shell pairs
          la=2 lb=1:   1886 shell pairs
          la=2 lb=2:    778 shell pairs
          la=3 lb=0:    717 shell pairs
          la=3 lb=1:    543 shell pairs
          la=3 lb=2:    462 shell pairs
          la=3 lb=3:     73 shell pairs

Calculating one electron integrals          ... done (  0.1 sec)
Calculating ECP integrals                   ... done ( 14.3 sec)
Calculating RI/J V-Matrix + Cholesky decomp.... done (  0.1 sec)
Calculating Nuclear repulsion               ... done (  0.0 sec) ENN=   4308.025177322059 Eh

SHARK setup successfully completed in  15.6 seconds

Maximum memory used throughout the entire GTOINT-calculation: 30.5 MB


           ************************************************************
           *        Program running with 6 parallel MPI-processes     *
           *              working on a common directory               *
           ************************************************************
-------------------------------------------------------------------------------
                                 ORCA SCF
-------------------------------------------------------------------------------

------------
SCF SETTINGS
------------
Hamiltonian:
 Density Functional     Method          .... DFT(GTOs)
 Exchange Functional    Exchange        .... PBE
   PBE kappa parameter   XKappa         ....  0.804000
   PBE mue parameter    XMuePBE         ....  0.219520
 Correlation Functional Correlation     .... PBE
   PBE beta parameter  CBetaPBE         ....  0.066725
 LDA part of GGA corr.  LDAOpt          .... PW91-LDA
 Gradients option       PostSCFGGA      .... off
   Density functional embedding theory  .... OFF
   NL short-range parameter             ....  6.400000
 RI-approximation to the Coulomb term is turned on
   Number of AuxJ basis functions       .... 1157


General Settings:
 Integral files         IntName         .... pbeSP
 Hartree-Fock type      HFTyp           .... UHF
 Total Charge           Charge          ....    0
 Multiplicity           Mult            ....    6
 Number of Electrons    NEL             ....  253
 Basis Dimension        Dim             ....  525
 Nuclear Repulsion      ENuc            ....   4308.0251773221 Eh

Convergence Acceleration:
 DIIS                   CNVDIIS         .... off
 Trust-Rad. Augm. Hess. CNVTRAH         .... auto
   Auto Start mean grad. ratio tolernc. ....  1.125000
   Auto Start start iteration           ....   200
   Auto Start num. interpolation iter.  ....    10
   Max. Number of Micro iterations      ....    16
   Max. Number of Macro iterations      .... Maxiter - #DIIS iter
   Number of Davidson start vectors     ....     2
   Converg. threshold I  (grad. norm)   ....   5.000e-05
   Converg. threshold II (energy diff.) ....   1.000e-06
   Grad. Scal. Fac. for Micro threshold ....   0.100
   Minimum threshold for Micro iter.    ....   0.010
   NR start threshold (gradient norm)   ....   0.001
   Initial trust radius                 ....   0.400
   Minimum AH scaling param. (alpha)    ....   1.000
   Maximum AH scaling param. (alpha)    .... 1000.000
   Orbital update algorithm             .... Taylor
   White noise on init. David. guess    .... on
   Maximum white noise                  ....   0.010
   Quad. conv. algorithm                .... NR
 SOSCF                  CNVSOSCF        .... off
 Level Shifting         CNVShift        .... off
 Zerner damping         CNVZerner       .... off
 Static damping         CNVDamp         .... off
 Fernandez-Rico         CNVRico         .... off

SCF Procedure:
 Maximum # iterations   MaxIter         ....   400
 SCF integral mode      SCFMode         .... Direct
   Integral package                     .... SHARK and LIBINT hybrid scheme
 Reset frequency        DirectResetFreq ....    20
 Integral Threshold     Thresh          ....  1.000e-10 Eh
 Primitive CutOff       TCut            ....  1.000e-11 Eh

Convergence Tolerance:
 Convergence Check Mode ConvCheckMode   .... All-Criteria
 Convergence forced     ConvForced      .... 0
 Energy Change          TolE            ....  1.000e-06 Eh
 Max Density Change     TolMaxP         ....  1.000e-05
 RMS Density Change     TolRMSP         ....  1.000e-06


Diagonalization of the overlap matrix:
Smallest eigenvalue                        ... 3.350e-04
Time for diagonalization                   ...    0.107 sec
Threshold for overlap eigenvalues          ... 1.000e-08
Number of eigenvalues below threshold      ... 0
Time for construction of square roots      ...    0.080 sec
Total time needed                          ...    0.189 sec

Time for model grid setup =    0.918 sec

------------------------------
INITIAL GUESS: MODEL POTENTIAL
------------------------------
Loading Hartree-Fock densities                     ... done
  calling /home/ehlert/src/miniconda3/envs/orca500/Programs/ORCA501/orca pbeSP_atom79.inp > pbeSP_atom79.out in order to generate an atomic fitting density for atom 0 (Au with ECP) on-the-fly... 
    atom 0 (Au), assumed electronic state with S=2: 1s2 2s2 2p6 3s2 3p6 4s2 3d10 4p6 5s2 4d10 5p6 6s1 4f14 5d10           ... done
Calculating cut-offs                               ... done
Initializing the effective Hamiltonian             ... done
Setting up the integral package (SHARK)            ... done
Starting the Coulomb interaction                   ... done (   0.7 sec)
Reading the grid                                   ... done
Mapping shells                                     ... done
Starting the XC term evaluation                    ... done (   0.7 sec)
  promolecular density results
     # of electrons  =    973.013310962
     EX              =  -4440.458002404
     EC              =    -59.198363672
     EX+EC           =  -4499.656366075
Transforming the Hamiltonian                       ... done (   0.1 sec)
Diagonalizing the Hamiltonian                      ... done (   0.1 sec)
Back transforming the eigenvectors                 ... done (   0.0 sec)
Now organizing SCF variables                       ... done
                      ------------------
                      INITIAL GUESS DONE (   3.7 sec)
                      ------------------
-------------------
DFT GRID GENERATION
-------------------

General Integration Accuracy     IntAcc      ... 4.388
Radial Grid Type                 RadialGrid  ... OptM3 with GC (2021)
Angular Grid (max. ang.)         AngularGrid ... 4 (Lebedev-302)
Angular grid pruning method      GridPruning ... 4 (adaptive)
Weight generation scheme         WeightScheme... Becke
Basis function cutoff            BFCut       ... 1.0000e-10
Integration weight cutoff        WCut        ... 1.0000e-14
Angular grids for H and He will be reduced by one unit
Partially contracted basis set               ... off
Rotationally invariant grid construction     ... off

Total number of grid points                  ...   144808
Total number of batches                      ...     2270
Average number of points per batch           ...       63
Average number of grid points per atom       ...    11139
Time for grid setup =    2.451 sec

--------------
SCF ITERATIONS
--------------
ITER       Energy         Delta-E        Max-DP      RMS-DP      [F,P]   Gradient Norm
               ***  Starting incremental Fock matrix formation  ***
                             ****Resetting KDIIS****
                             ****Turning on KDIIS(Cayley)****
  0  -2778.7782660024   0.000000000000 0.19019228  0.00137755  0.3888711   0.217918891
  1  -2779.8468570985  -1.068591096067 0.57446515  0.00168388  0.3477921   0.165187077
  2  -2780.2842242641  -0.437367165593 0.16994221  0.00121538  0.2748123   0.124137541
  3  -2780.4986427422  -0.214418478091 0.13624410  0.00145150  0.1601080   0.071773407
  4  -2780.5681498699  -0.069507127726 0.04310234  0.00048016  0.0372854   0.019421206
  5  -2780.5993312692  -0.031181399354 0.18282503  0.00057363  0.0155220   0.006976377
  6  -2780.6121174119  -0.012786142672 0.03314051  0.00030739  0.0239838   0.005836438
  7  -2780.6215092005  -0.009391788544 0.01705371  0.00021202  0.0150339   0.003701453
  8  -2780.6254738790  -0.003964678534 0.03062782  0.00013898  0.0168065   0.005545467
  9  -2780.6304925629  -0.005018683928 0.00530901  0.00007263  0.0192834   0.002216189
 10  -2780.6333398239  -0.002847260977 0.00202072  0.00002075  0.0200737   0.002291390
 11  -2780.6340945248  -0.000754700859 0.00766846  0.00004090  0.0195370   0.002325953
 12  -2780.6355207085  -0.001426183751 0.01913960  0.00005663  0.0215737   0.002352996
 13  -2780.6360370518  -0.000516343306 0.01389197  0.00005586  0.0200391   0.002799632
 14  -2780.6374430441  -0.001405992297 0.00708691  0.00008591  0.0211821   0.002372232
 15  -2780.6406265739  -0.003183529799 0.00947926  0.00005588  0.0215832   0.002683636
 16  -2780.6428343314  -0.002207757443 0.02705113  0.00010023  0.0214977   0.002265231
 17  -2780.6455417612  -0.002707429818 0.01147090  0.00004981  0.0166075   0.003813420
 18  -2780.6468187165  -0.001276955357 0.01552472  0.00006511  0.0225941   0.002494486
 19  -2780.6491110969  -0.002292380344 0.00810298  0.00010457  0.0211039   0.002349154
               *** Restarting incremental Fock matrix formation ***
                             ****Resetting KDIIS****
 20  -2780.6531566167  -0.004045519800 0.00177493  0.00001753  0.0215592   0.002301635
 21  -2780.6539368684  -0.000780251708 0.00310840  0.00003677  0.0207997   0.002151875
 22  -2780.6555119760  -0.001575107640 0.00863242  0.00009659  0.0209971   0.002105525
 23  -2780.6595220590  -0.004010082970 0.06698790  0.00106772  0.0199339   0.002103176
 24  -2780.6538546415   0.005667417484 0.03137943  0.00041336  0.0439568   0.016665179
 25  -2780.6796423931  -0.025787751586 0.02787474  0.00044170  0.0073496   0.003030504
 26  -2780.6680169951   0.011625397969 0.03321014  0.00053861  0.0196587   0.007390087
 27  -2780.6804735772  -0.012456582020 0.00984006  0.00014165  0.0065471   0.003068288
 28  -2780.6807494364  -0.000275859255 0.00401170  0.00005884  0.0051261   0.002206343
 29  -2780.6814413592  -0.000691922752 0.00077002  0.00001085  0.0032184   0.000657197
 30  -2780.6815087019  -0.000067342769 0.00307078  0.00003622  0.0027836   0.000452390
 31  -2780.6816515846  -0.000142882714 0.00145325  0.00002410  0.0010442   0.000395863
 32  -2780.6816904332  -0.000038848604 0.00139448  0.00001594  0.0006828   0.000360802
 33  -2780.6816810134   0.000009419848 0.00094347  0.00001508  0.0009242   0.000508081
 34  -2780.6817143870  -0.000033373582 0.00072884  0.00000832  0.0003899   0.000125919
 35  -2780.6817186583  -0.000004271325 0.00046767  0.00000492  0.0004938   0.000172467
 36  -2780.6817205418  -0.000001883458 0.00042934  0.00000426  0.0003411   0.000102057
 37  -2780.6817232835  -0.000002741700 0.00030182  0.00000382  0.0003604   0.000076066
 38  -2780.6817258184  -0.000002534922 0.00042252  0.00000865  0.0003372   0.000066768
 39  -2780.6817309333  -0.000005114965 0.00030456  0.00000418  0.0003162   0.000095520
               *** Restarting incremental Fock matrix formation ***
                             ****Resetting KDIIS****
                           ***RMSP convergence achieved***
 40  -2780.6817296258   0.000001307505 0.00007705  0.00000065  0.0003208   0.000066295
                          ***Energy convergence achieved***
 41  -2780.6817300833  -0.000000457444 0.00016414  0.00000105  0.0003206   0.000050785
 42  -2780.6817306861  -0.000000602859 0.00016751  0.00000213  0.0003188   0.000047164
 43  -2780.6817320604  -0.000001374292 0.00410422  0.00003465  0.0003125   0.000042703
 44  -2780.6817480075  -0.000015947044 0.00072962  0.00000845  0.0002047   0.000060833
 45  -2780.6817508370  -0.000002829534 0.00305256  0.00000919  0.0001870   0.000026877
 46  -2780.6817527752  -0.000001938156 0.00025433  0.00000399  0.0001625   0.000033248
 47  -2780.6817539151  -0.000001139930 0.00069951  0.00001098  0.0001515   0.000030158
 48  -2780.6817561023  -0.000002187242 0.00100482  0.00001565  0.0001493   0.000052427
 49  -2780.6817582432  -0.000002140904 0.00017901  0.00000164  0.0000692   0.000027818
                          ***Energy convergence achieved***
 50  -2780.6817581673   0.000000075955 0.00038457  0.00000286  0.0000698   0.000034993
 51  -2780.6817586030  -0.000000435731 0.00021949  0.00000337  0.0000634   0.000031151
 52  -2780.6817589953  -0.000000392298 0.00013505  0.00000181  0.0000666   0.000016461
 53  -2780.6817588737   0.000000121624 0.00014769  0.00000193  0.0000662   0.000018098
                           ***RMSP convergence achieved***

            ***Energy convergence in two consecutive cycles with***
                    ***'reasonable' density convergence***
                       *** signaling convergence ***

                    *** KDIIS BlockDiag ( 0.280 sec) ***

               *****************************************************
               *                     SUCCESS                       *
               *           SCF CONVERGED AFTER  54 CYCLES          *
               *****************************************************


----------------
TOTAL SCF ENERGY
----------------

Total Energy       :        -2780.68175917 Eh          -75666.19746 eV

Components:
Nuclear Repulsion  :         4308.02517732 Eh          117227.32480 eV
Electronic Energy  :        -7088.70693649 Eh         -192893.52226 eV
One Electron Energy:       -13056.74359968 Eh         -355292.05605 eV
Two Electron Energy:         5968.03666318 Eh          162398.53379 eV

Virial components:
Potential Energy   :        -4479.20185931 Eh         -121885.27912 eV
Kinetic Energy     :         1698.52010013 Eh           46219.08166 eV
Virial Ratio       :            2.63712031


DFT components:
N(Alpha)           :      129.000019222680 electrons
N(Beta)            :      124.000019507705 electrons
N(Total)           :      253.000038730385 electrons
E(X)               :     -195.438459496349 Eh       
E(C)               :      -11.003906184188 Eh       
E(XC)              :     -206.442365680537 Eh       
DFET-embed. en.    :        0.000000000000 Eh       

---------------
SCF CONVERGENCE
---------------

  Last Energy change         ...   -2.9855e-07  Tolerance :   1.0000e-06
  Last MAX-Density change    ...    7.8364e-05  Tolerance :   1.0000e-05
  Last RMS-Density change    ...    8.7611e-07  Tolerance :   1.0000e-06

             **** THE GBW FILE WAS UPDATED (pbeSP.gbw) ****
             **** DENSITY pbeSP.scfp WAS UPDATED ****
             **** ENERGY FILE WAS UPDATED (pbeSP.en.tmp) ****
----------------------
UHF SPIN CONTAMINATION
----------------------

Warning: in a DFT calculation there is little theoretical justification to 
         calculate <S**2> as in Hartree-Fock theory. We will do it anyways
         but you should keep in mind that the values have only limited relevance

Expectation value of <S**2>     :     9.240959
Ideal value S*(S+1) for S=2.5   :     8.750000
Deviation                       :     0.490959

             **** THE GBW FILE WAS UPDATED (pbeSP.gbw) ****
             **** DENSITY pbeSP.scfp WAS UPDATED ****
----------------
ORBITAL ENERGIES
----------------
                 SPIN UP ORBITALS
  NO   OCC          E(Eh)            E(eV) 
   0   1.0000    -234.199027     -6372.8795 
   1   1.0000     -26.896640      -731.8948 
   2   1.0000     -23.045867      -627.1099 
   3   1.0000     -23.045079      -627.0885 
   4   1.0000     -23.044328      -627.0681 
   5   1.0000      -4.033094      -109.7461 
   6   1.0000      -4.031088      -109.6915 
   7   1.0000      -4.028818      -109.6297 
   8   1.0000      -4.026791      -109.5746 
   9   1.0000      -4.026055      -109.5545 
  10   1.0000      -4.025926      -109.5510 
  11   1.0000      -4.024635      -109.5159 
  12   1.0000      -4.024613      -109.5153 
  13   1.0000      -4.024114      -109.5017 
  14   1.0000      -4.021503      -109.4307 
  15   1.0000      -4.018430      -109.3470 
  16   1.0000      -4.018174      -109.3401 
  17   1.0000      -3.104977       -84.4907 
  18   1.0000      -2.250805       -61.2475 
  19   1.0000      -2.249959       -61.2245 
  20   1.0000      -2.245983       -61.1163 
  21   1.0000      -2.245699       -61.1086 
  22   1.0000      -2.244142       -61.0662 
  23   1.0000      -2.244092       -61.0649 
  24   1.0000      -2.243993       -61.0621 
  25   1.0000      -2.243796       -61.0568 
  26   1.0000      -2.243665       -61.0532 
  27   1.0000      -2.243313       -61.0437 
  28   1.0000      -2.241798       -61.0024 
  29   1.0000      -2.241266       -60.9879 
  30   1.0000      -2.240696       -60.9724 
  31   1.0000      -2.240544       -60.9683 
  32   1.0000      -2.239470       -60.9391 
  33   1.0000      -2.239387       -60.9368 
  34   1.0000      -2.239263       -60.9334 
  35   1.0000      -2.238931       -60.9244 
  36   1.0000      -2.238623       -60.9160 
  37   1.0000      -2.238330       -60.9081 
  38   1.0000      -2.236688       -60.8634 
  39   1.0000      -2.235545       -60.8323 
  40   1.0000      -2.234222       -60.7963 
  41   1.0000      -2.234036       -60.7912 
  42   1.0000      -2.233308       -60.7714 
  43   1.0000      -2.233136       -60.7667 
  44   1.0000      -2.232998       -60.7630 
  45   1.0000      -2.232749       -60.7562 
  46   1.0000      -2.232704       -60.7550 
  47   1.0000      -2.232578       -60.7515 
  48   1.0000      -2.232076       -60.7379 
  49   1.0000      -2.230924       -60.7065 
  50   1.0000      -2.230056       -60.6829 
  51   1.0000      -2.229782       -60.6755 
  52   1.0000      -2.229222       -60.6602 
  53   1.0000      -2.228147       -60.6310 
  54   1.0000      -2.009265       -54.6749 
  55   1.0000      -2.007080       -54.6154 
  56   1.0000      -2.006299       -54.5942 
  57   1.0000      -0.422533       -11.4977 
  58   1.0000      -0.390071       -10.6144 
  59   1.0000      -0.376603       -10.2479 
  60   1.0000      -0.371321       -10.1042 
  61   1.0000      -0.370185       -10.0732 
  62   1.0000      -0.367208        -9.9922 
  63   1.0000      -0.363353        -9.8873 
  64   1.0000      -0.362544        -9.8653 
  65   1.0000      -0.358482        -9.7548 
  66   1.0000      -0.354836        -9.6556 
  67   1.0000      -0.346583        -9.4310 
  68   1.0000      -0.345254        -9.3948 
  69   1.0000      -0.340567        -9.2673 
  70   1.0000      -0.337870        -9.1939 
  71   1.0000      -0.337593        -9.1864 
  72   1.0000      -0.335980        -9.1425 
  73   1.0000      -0.335787        -9.1372 
  74   1.0000      -0.333970        -9.0878 
  75   1.0000      -0.333709        -9.0807 
  76   1.0000      -0.328886        -8.9494 
  77   1.0000      -0.327083        -8.9004 
  78   1.0000      -0.321874        -8.7586 
  79   1.0000      -0.315651        -8.5893 
  80   1.0000      -0.314232        -8.5507 
  81   1.0000      -0.313106        -8.5200 
  82   1.0000      -0.312529        -8.5044 
  83   1.0000      -0.306273        -8.3341 
  84   1.0000      -0.304880        -8.2962 
  85   1.0000      -0.301400        -8.2015 
  86   1.0000      -0.300111        -8.1664 
  87   1.0000      -0.294594        -8.0163 
  88   1.0000      -0.293188        -7.9780 
  89   1.0000      -0.291599        -7.9348 
  90   1.0000      -0.291444        -7.9306 
  91   1.0000      -0.288284        -7.8446 
  92   1.0000      -0.286501        -7.7961 
  93   1.0000      -0.282526        -7.6879 
  94   1.0000      -0.280030        -7.6200 
  95   1.0000      -0.279580        -7.6078 
  96   1.0000      -0.278385        -7.5752 
  97   1.0000      -0.276064        -7.5121 
  98   1.0000      -0.274165        -7.4604 
  99   1.0000      -0.273412        -7.4399 
 100   1.0000      -0.272213        -7.4073 
 101   1.0000      -0.269632        -7.3371 
 102   1.0000      -0.269206        -7.3255 
 103   1.0000      -0.266004        -7.2383 
 104   1.0000      -0.265389        -7.2216 
 105   1.0000      -0.263752        -7.1771 
 106   1.0000      -0.263358        -7.1663 
 107   1.0000      -0.261291        -7.1101 
 108   1.0000      -0.260366        -7.0849 
 109   1.0000      -0.259069        -7.0496 
 110   1.0000      -0.257463        -7.0059 
 111   1.0000      -0.256143        -6.9700 
 112   1.0000      -0.254402        -6.9226 
 113   1.0000      -0.254299        -6.9198 
 114   1.0000      -0.250627        -6.8199 
 115   1.0000      -0.249610        -6.7922 
 116   1.0000      -0.249191        -6.7808 
 117   1.0000      -0.246563        -6.7093 
 118   1.0000      -0.244248        -6.6463 
 119   1.0000      -0.242252        -6.5920 
 120   1.0000      -0.240644        -6.5483 
 121   1.0000      -0.239855        -6.5268 
 122   1.0000      -0.237137        -6.4528 
 123   1.0000      -0.235703        -6.4138 
 124   1.0000      -0.232230        -6.3193 
 125   1.0000      -0.230483        -6.2718 
 126   1.0000      -0.218700        -5.9511 
 127   1.0000      -0.195259        -5.3133 
 128   1.0000      -0.186935        -5.0868 
 129   0.0000      -0.178692        -4.8625 
 130   0.0000      -0.142000        -3.8640 
 131   0.0000      -0.133844        -3.6421 
 132   0.0000      -0.130535        -3.5520 
 133   0.0000      -0.116355        -3.1662 
 134   0.0000      -0.104864        -2.8535 
 135   0.0000      -0.089981        -2.4485 
 136   0.0000      -0.066968        -1.8223 
 137   0.0000      -0.064723        -1.7612 
 138   0.0000      -0.055500        -1.5102 
 139   0.0000      -0.047610        -1.2955 
 140   0.0000      -0.038018        -1.0345 
 141   0.0000      -0.031946        -0.8693 
 142   0.0000      -0.031136        -0.8472 
 143   0.0000      -0.016894        -0.4597 
 144   0.0000      -0.001712        -0.0466 
 145   0.0000       0.001324         0.0360 
 146   0.0000       0.013139         0.3575 
 147   0.0000       0.014113         0.3840 
 148   0.0000       0.032951         0.8966 
 149   0.0000       0.037924         1.0320 
 150   0.0000       0.039681         1.0798 
 151   0.0000       0.040656         1.1063 
 152   0.0000       0.050748         1.3809 
 153   0.0000       0.053674         1.4605 
 154   0.0000       0.054397         1.4802 
 155   0.0000       0.061333         1.6690 
 156   0.0000       0.064381         1.7519 
 157   0.0000       0.066961         1.8221 
 158   0.0000       0.068663         1.8684 
 159   0.0000       0.071998         1.9592 
 160   0.0000       0.079136         2.1534 
 161   0.0000       0.085493         2.3264 
 162   0.0000       0.091415         2.4875 
 163   0.0000       0.099190         2.6991 
 164   0.0000       0.101195         2.7536 
 165   0.0000       0.109414         2.9773 
 166   0.0000       0.111519         3.0346 
 167   0.0000       0.127839         3.4787 
 168   0.0000       0.141141         3.8406 
 169   0.0000       0.144692         3.9373 
 170   0.0000       0.146530         3.9873 
 171   0.0000       0.147368         4.0101 
 172   0.0000       0.150063         4.0834 
 173   0.0000       0.155961         4.2439 
 174   0.0000       0.165292         4.4978 
 175   0.0000       0.166528         4.5315 
 176   0.0000       0.168044         4.5727 
 177   0.0000       0.174831         4.7574 
 178   0.0000       0.179494         4.8843 
 179   0.0000       0.193182         5.2568 
 180   0.0000       0.196417         5.3448 
 181   0.0000       0.210108         5.7173 
 182   0.0000       0.216068         5.8795 
 183   0.0000       0.218682         5.9506 
 184   0.0000       0.225097         6.1252 
 185   0.0000       0.226476         6.1627 
 186   0.0000       0.231354         6.2955 
 187   0.0000       0.238332         6.4854 
 188   0.0000       0.238556         6.4914 
 189   0.0000       0.246473         6.7069 
 190   0.0000       0.254940         6.9373 
 191   0.0000       0.261503         7.1158 
 192   0.0000       0.263268         7.1639 
 193   0.0000       0.264875         7.2076 
 194   0.0000       0.272168         7.4061 
 195   0.0000       0.274623         7.4729 
 196   0.0000       0.277403         7.5485 
 197   0.0000       0.279632         7.6092 
 198   0.0000       0.283207         7.7065 
 199   0.0000       0.283515         7.7148 
 200   0.0000       0.299153         8.1404 
 201   0.0000       0.301542         8.2054 
 202   0.0000       0.305622         8.3164 
 203   0.0000       0.308347         8.3906 
 204   0.0000       0.317515         8.6400 
 205   0.0000       0.326037         8.8719 
 206   0.0000       0.327368         8.9081 
 207   0.0000       0.330888         9.0039 
 208   0.0000       0.336534         9.1576 
 209   0.0000       0.347390         9.4530 
 210   0.0000       0.350107         9.5269 
 211   0.0000       0.355052         9.6615 
 212   0.0000       0.357786         9.7358 
 213   0.0000       0.362947         9.8763 
 214   0.0000       0.364176         9.9097 
 215   0.0000       0.371330        10.1044 
 216   0.0000       0.372104        10.1255 
 217   0.0000       0.386691        10.5224 
 218   0.0000       0.387230        10.5371 
 219   0.0000       0.388285        10.5658 
 220   0.0000       0.390231        10.6187 
 221   0.0000       0.402667        10.9571 
 222   0.0000       0.409230        11.1357 
 223   0.0000       0.417137        11.3509 
 224   0.0000       0.418476        11.3873 
 225   0.0000       0.427630        11.6364 
 226   0.0000       0.428695        11.6654 
 227   0.0000       0.431525        11.7424 
 228   0.0000       0.436815        11.8863 
 229   0.0000       0.448273        12.1981 
 230   0.0000       0.450272        12.2525 
 231   0.0000       0.462930        12.5970 
 232   0.0000       0.468097        12.7376 
 233   0.0000       0.470063        12.7911 
 234   0.0000       0.470925        12.8145 
 235   0.0000       0.473035        12.8719 
 236   0.0000       0.480293        13.0694 
 237   0.0000       0.481501        13.1023 
 238   0.0000       0.490638        13.3509 
 239   0.0000       0.499196        13.5838 
 240   0.0000       0.501968        13.6592 
 241   0.0000       0.504796        13.7362 
 242   0.0000       0.513628        13.9765 
 243   0.0000       0.517336        14.0774 
 244   0.0000       0.517552        14.0833 
 245   0.0000       0.527234        14.3468 
 246   0.0000       0.535140        14.5619 
 247   0.0000       0.537280        14.6201 
 248   0.0000       0.538038        14.6408 
 249   0.0000       0.555541        15.1170 
 250   0.0000       0.565027        15.3752 
 251   0.0000       0.565100        15.3771 
 252   0.0000       0.594930        16.1889 
 253   0.0000       0.626545        17.0492 
 254   0.0000       0.643211        17.5027 
 255   0.0000       0.653918        17.7940 
 256   0.0000       0.664235        18.0747 
 257   0.0000       0.674817        18.3627 
 258   0.0000       0.692292        18.8382 
 259   0.0000       0.696904        18.9637 
 260   0.0000       0.712165        19.3790 
 261   0.0000       0.715608        19.4727 
 262   0.0000       0.716429        19.4950 
 263   0.0000       0.730444        19.8764 
 264   0.0000       0.736995        20.0547 
 265   0.0000       0.756474        20.5847 
 266   0.0000       0.769922        20.9506 
 267   0.0000       0.778428        21.1821 
 268   0.0000       0.781664        21.2702 
 269   0.0000       0.793193        21.5839 
 270   0.0000       0.795517        21.6471 
 271   0.0000       0.800205        21.7747 
 272   0.0000       0.808398        21.9976 
 273   0.0000       0.813863        22.1463 
 274   0.0000       0.823609        22.4115 
 275   0.0000       0.837270        22.7833 
 276   0.0000       0.851242        23.1635 
 277   0.0000       0.858597        23.3636 
 278   0.0000       0.866849        23.5882 
 279   0.0000       0.870047        23.6752 
 280   0.0000       0.878418        23.9030 
 281   0.0000       0.908504        24.7217 
 282   0.0000       0.919564        25.0226 
 283   0.0000       0.923044        25.1173 
 284   0.0000       0.952577        25.9209 
 285   0.0000       0.963619        26.2214 
 286   0.0000       0.970872        26.4188 
 287   0.0000       0.995634        27.0926 
 288   0.0000       1.054268        28.6881 
 289   0.0000       1.096652        29.8414 
 290   0.0000       1.111408        30.2429 
 291   0.0000       1.131968        30.8024 
 292   0.0000       1.167097        31.7583 
 293   0.0000       1.202028        32.7088 
 294   0.0000       1.205528        32.8041 
 295   0.0000       1.219639        33.1881 
 296   0.0000       1.227466        33.4010 
 297   0.0000       1.256374        34.1877 
 298   0.0000       1.267815        34.4990 
 299   0.0000       1.292505        35.1709 
 300   0.0000       1.297712        35.3125 
 301   0.0000       1.303996        35.4835 
 302   0.0000       1.320449        35.9312 
 303   0.0000       1.320838        35.9418 
 304   0.0000       1.329064        36.1657 
 305   0.0000       1.334320        36.3087 
 306   0.0000       1.345460        36.6118 
 307   0.0000       1.368570        37.2407 
 308   0.0000       1.371331        37.3158 
 309   0.0000       1.379284        37.5322 
 310   0.0000       1.388800        37.7912 
 311   0.0000       1.388958        37.7955 
 312   0.0000       1.394140        37.9365 
 313   0.0000       1.397573        38.0299 
 314   0.0000       1.400812        38.1180 
 315   0.0000       1.404898        38.2292 
 316   0.0000       1.409396        38.3516 
 317   0.0000       1.410602        38.3844 
 318   0.0000       1.421388        38.6779 
 319   0.0000       1.422419        38.7060 
 320   0.0000       1.426607        38.8199 
 321   0.0000       1.428071        38.8598 
 322   0.0000       1.432250        38.9735 
 323   0.0000       1.432603        38.9831 
 324   0.0000       1.436041        39.0767 
 325   0.0000       1.442677        39.2572 
 326   0.0000       1.447941        39.4005 
 327   0.0000       1.450011        39.4568 
 328   0.0000       1.453121        39.5414 
 329   0.0000       1.457291        39.6549 
 330   0.0000       1.464457        39.8499 
 331   0.0000       1.467458        39.9316 
 332   0.0000       1.468697        39.9653 
 333   0.0000       1.471313        40.0365 
 334   0.0000       1.472505        40.0689 
 335   0.0000       1.473218        40.0883 
 336   0.0000       1.474054        40.1110 
 337   0.0000       1.479745        40.2659 
 338   0.0000       1.481598        40.3163 
 339   0.0000       1.482424        40.3388 
 340   0.0000       1.483550        40.3694 
 341   0.0000       1.485102        40.4117 
 342   0.0000       1.485666        40.4270 
 343   0.0000       1.489110        40.5207 
 344   0.0000       1.489611        40.5344 
 345   0.0000       1.493956        40.6526 
 346   0.0000       1.494718        40.6734 
 347   0.0000       1.497692        40.7543 
 348   0.0000       1.498871        40.7864 
 349   0.0000       1.500287        40.8249 
 350   0.0000       1.501858        40.8676 
 351   0.0000       1.503321        40.9074 
 352   0.0000       1.503855        40.9220 
 353   0.0000       1.505924        40.9783 
 354   0.0000       1.508511        41.0487 
 355   0.0000       1.508564        41.0501 
 356   0.0000       1.510644        41.1067 
 357   0.0000       1.513125        41.1742 
 358   0.0000       1.513882        41.1948 
 359   0.0000       1.515545        41.2401 
 360   0.0000       1.518850        41.3300 
 361   0.0000       1.520122        41.3646 
 362   0.0000       1.522197        41.4211 
 363   0.0000       1.522946        41.4415 
 364   0.0000       1.524641        41.4876 
 365   0.0000       1.529801        41.6280 
 366   0.0000       1.531149        41.6647 
 367   0.0000       1.535626        41.7865 
 368   0.0000       1.535891        41.7937 
 369   0.0000       1.536418        41.8081 
 370   0.0000       1.537630        41.8410 
 371   0.0000       1.540512        41.9195 
 372   0.0000       1.543384        41.9976 
 373   0.0000       1.545174        42.0463 
 374   0.0000       1.545603        42.0580 
 375   0.0000       1.546783        42.0901 
 376   0.0000       1.549444        42.1625 
 377   0.0000       1.550040        42.1787 
 378   0.0000       1.553050        42.2606 
 379   0.0000       1.553992        42.2863 
 380   0.0000       1.556597        42.3572 
 381   0.0000       1.559054        42.4240 
 382   0.0000       1.560280        42.4574 
 383   0.0000       1.561807        42.4989 
 384   0.0000       1.564698        42.5776 
 385   0.0000       1.567647        42.6578 
 386   0.0000       1.570474        42.7348 
 387   0.0000       1.572147        42.7803 
 388   0.0000       1.573078        42.8056 
 389   0.0000       1.573684        42.8221 
 390   0.0000       1.574925        42.8559 
 391   0.0000       1.582230        43.0547 
 392   0.0000       1.587878        43.2083 
 393   0.0000       1.588643        43.2292 
 394   0.0000       1.594726        43.3947 
 395   0.0000       1.596147        43.4334 
 396   0.0000       1.599961        43.5371 
 397   0.0000       1.602680        43.6111 
 398   0.0000       1.604076        43.6491 
 399   0.0000       1.609637        43.8004 
 400   0.0000       1.610070        43.8122 
 401   0.0000       1.617877        44.0247 
 402   0.0000       1.620652        44.1002 
 403   0.0000       1.623062        44.1658 
 404   0.0000       1.630690        44.3733 
 405   0.0000       1.631983        44.4085 
 406   0.0000       1.632705        44.4282 
 407   0.0000       1.643403        44.7193 
 408   0.0000       1.645038        44.7638 
 409   0.0000       1.661239        45.2046 
 410   0.0000       1.667513        45.3753 
 411   0.0000       1.673445        45.5367 
 412   0.0000       1.682287        45.7774 
 413   0.0000       1.684492        45.8374 
 414   0.0000       1.699090        46.2346 
 415   0.0000       1.715668        46.6857 
 416   0.0000       1.722567        46.8734 
 417   0.0000       1.734623        47.2015 
 418   0.0000       1.739689        47.3393 
 419   0.0000       1.743621        47.4463 
 420   0.0000       1.756085        47.7855 
 421   0.0000       1.766499        48.0689 
 422   0.0000       1.780166        48.4408 
 423   0.0000       1.791833        48.7583 
 424   0.0000       1.799839        48.9761 
 425   0.0000       1.807223        49.1770 
 426   0.0000       1.819413        49.5087 
 427   0.0000       1.834703        49.9248 
 428   0.0000       1.858764        50.5795 
 429   0.0000       1.866368        50.7865 
 430   0.0000       1.891156        51.4610 
 431   0.0000       1.896483        51.6059 
 432   0.0000       1.908902        51.9439 
 433   0.0000       1.918998        52.2186 
 434   0.0000       1.921619        52.2899 
 435   0.0000       1.940355        52.7997 
 436   0.0000       2.022695        55.0403 
 437   0.0000       2.120385        57.6986 
 438   0.0000       2.125024        57.8248 
 439   0.0000       2.173660        59.1483 
 440   0.0000       2.218456        60.3672 
 441   0.0000       2.268130        61.7189 
 442   0.0000       2.284374        62.1610 
 443   0.0000       2.317653        63.0665 
 444   0.0000       2.376565        64.6696 
 445   0.0000       2.378234        64.7150 
 446   0.0000       2.395927        65.1965 
 447   0.0000       2.434974        66.2590 
 448   0.0000       2.473775        67.3148 
 449   0.0000       2.479111        67.4600 
 450   0.0000       2.496597        67.9358 
 451   0.0000       2.553123        69.4740 
 452   0.0000       3.095798        84.2409 
 453   0.0000       3.177908        86.4753 
 454   0.0000       3.232063        87.9489 
 455   0.0000       3.247309        88.3638 
 456   0.0000       3.248445        88.3947 
 457   0.0000       3.258156        88.6589 
 458   0.0000       3.262229        88.7698 
 459   0.0000       3.274501        89.1037 
 460   0.0000       3.282720        89.3273 
 461   0.0000       3.383489        92.0694 
 462   0.0000       3.418861        93.0319 
 463   0.0000       3.441017        93.6348 
 464   0.0000       3.576104        97.3107 
 465   0.0000      23.791305       647.3943 
 466   0.0000      23.831988       648.5014 
 467   0.0000      23.901868       650.4029 
 468   0.0000      24.007732       653.2836 
 469   0.0000      24.193403       658.3360 
 470   0.0000      24.346333       662.4974 
 471   0.0000      24.446294       665.2175 
 472   0.0000      24.922175       678.1669 
 473   0.0000      25.015300       680.7009 
 474   0.0000      25.206238       685.8966 
 475   0.0000      25.290819       688.1982 
 476   0.0000      25.533398       694.7991 
 477   0.0000      25.632669       697.5004 
 478   0.0000      25.757068       700.8854 
 479   0.0000      25.875187       704.0996 
 480   0.0000      25.916497       705.2237 
 481   0.0000      25.997266       707.4216 
 482   0.0000      26.058771       709.0952 
 483   0.0000      26.222507       713.5507 
 484   0.0000      26.236574       713.9335 
 485   0.0000      26.479186       720.5353 
 486   0.0000      26.524500       721.7683 
 487   0.0000      26.629149       724.6160 
 488   0.0000      26.783862       728.8259 
 489   0.0000      26.906431       732.1612 
 490   0.0000      27.084479       737.0061 
 491   0.0000      27.134107       738.3566 
 492   0.0000      27.167267       739.2589 
 493   0.0000      27.464282       747.3411 
 494   0.0000      27.552037       749.7290 
 495   0.0000      27.591456       750.8017 
 496   0.0000      28.021466       762.5028 
 497   0.0000      28.418993       773.3201 
 498   0.0000      28.546224       776.7822 
 499   0.0000      29.529163       803.5294 
 500   0.0000      29.752964       809.6193 
 501   0.0000      43.880977      1194.0621 
 502   0.0000      43.944818      1195.7993 
 503   0.0000      43.983757      1196.8589 
 504   0.0000      44.014691      1197.7006 
 505   0.0000      44.063537      1199.0298 
 506   0.0000      44.064249      1199.0492 
 507   0.0000      44.091166      1199.7816 
 508   0.0000      44.130572      1200.8539 
 509   0.0000      44.146814      1201.2959 
 510   0.0000      44.164004      1201.7636 
 511   0.0000      44.201674      1202.7887 
 512   0.0000      44.272540      1204.7171 
 513   0.0000     205.082859      5580.5883 
 514   0.0000     205.109496      5581.3131 
 515   0.0000     205.123859      5581.7040 
 516   0.0000     205.137283      5582.0693 
 517   0.0000     205.159351      5582.6698 
 518   0.0000     205.163119      5582.7723 
 519   0.0000     205.168062      5582.9068 
 520   0.0000     205.185115      5583.3708 
 521   0.0000     205.189930      5583.5019 
 522   0.0000     205.198611      5583.7381 
 523   0.0000     205.213984      5584.1564 
 524   0.0000     205.238709      5584.8292 

                 SPIN DOWN ORBITALS
  NO   OCC          E(Eh)            E(eV) 
   0   1.0000    -234.198299     -6372.8597 
   1   1.0000     -26.831628      -730.1257 
   2   1.0000     -22.996799      -625.7747 
   3   1.0000     -22.996736      -625.7730 
   4   1.0000     -22.993596      -625.6876 
   5   1.0000      -4.032318      -109.7249 
   6   1.0000      -4.029240      -109.6412 
   7   1.0000      -4.027441      -109.5922 
   8   1.0000      -4.026212      -109.5588 
   9   1.0000      -4.024713      -109.5180 
  10   1.0000      -4.024595      -109.5148 
  11   1.0000      -4.023141      -109.4752 
  12   1.0000      -4.023139      -109.4752 
  13   1.0000      -4.022016      -109.4446 
  14   1.0000      -4.020683      -109.4083 
  15   1.0000      -4.017640      -109.3255 
  16   1.0000      -4.017376      -109.3184 
  17   1.0000      -2.945757       -80.1581 
  18   1.0000      -2.249968       -61.2247 
  19   1.0000      -2.247807       -61.1659 
  20   1.0000      -2.244558       -61.0775 
  21   1.0000      -2.244419       -61.0738 
  22   1.0000      -2.243090       -61.0376 
  23   1.0000      -2.242932       -61.0333 
  24   1.0000      -2.242901       -61.0324 
  25   1.0000      -2.242614       -61.0246 
  26   1.0000      -2.241608       -60.9973 
  27   1.0000      -2.241485       -60.9939 
  28   1.0000      -2.240436       -60.9654 
  29   1.0000      -2.238918       -60.9241 
  30   1.0000      -2.238804       -60.9210 
  31   1.0000      -2.238707       -60.9183 
  32   1.0000      -2.237981       -60.8986 
  33   1.0000      -2.237888       -60.8960 
  34   1.0000      -2.237464       -60.8845 
  35   1.0000      -2.237174       -60.8766 
  36   1.0000      -2.236898       -60.8691 
  37   1.0000      -2.236483       -60.8578 
  38   1.0000      -2.235593       -60.8336 
  39   1.0000      -2.234367       -60.8002 
  40   1.0000      -2.233444       -60.7751 
  41   1.0000      -2.233099       -60.7657 
  42   1.0000      -2.232095       -60.7384 
  43   1.0000      -2.231991       -60.7356 
  44   1.0000      -2.231906       -60.7332 
  45   1.0000      -2.231760       -60.7293 
  46   1.0000      -2.231630       -60.7257 
  47   1.0000      -2.231193       -60.7139 
  48   1.0000      -2.230948       -60.7072 
  49   1.0000      -2.230405       -60.6924 
  50   1.0000      -2.229171       -60.6588 
  51   1.0000      -2.228752       -60.6474 
  52   1.0000      -2.228357       -60.6367 
  53   1.0000      -2.226945       -60.5983 
  54   1.0000      -1.853479       -50.4357 
  55   1.0000      -1.853283       -50.4304 
  56   1.0000      -1.847140       -50.2632 
  57   1.0000      -0.414840       -11.2884 
  58   1.0000      -0.386797       -10.5253 
  59   1.0000      -0.369826       -10.0635 
  60   1.0000      -0.369480       -10.0541 
  61   1.0000      -0.365472        -9.9450 
  62   1.0000      -0.363040        -9.8788 
  63   1.0000      -0.356969        -9.7136 
  64   1.0000      -0.353342        -9.6149 
  65   1.0000      -0.352224        -9.5845 
  66   1.0000      -0.346794        -9.4367 
  67   1.0000      -0.342665        -9.3244 
  68   1.0000      -0.338589        -9.2135 
  69   1.0000      -0.337378        -9.1805 
  70   1.0000      -0.335060        -9.1175 
  71   1.0000      -0.334761        -9.1093 
  72   1.0000      -0.331950        -9.0328 
  73   1.0000      -0.330687        -8.9985 
  74   1.0000      -0.326365        -8.8808 
  75   1.0000      -0.325127        -8.8471 
  76   1.0000      -0.321558        -8.7500 
  77   1.0000      -0.319010        -8.6807 
  78   1.0000      -0.316175        -8.6036 
  79   1.0000      -0.314357        -8.5541 
  80   1.0000      -0.312435        -8.5018 
  81   1.0000      -0.309982        -8.4350 
  82   1.0000      -0.309272        -8.4157 
  83   1.0000      -0.303757        -8.2657 
  84   1.0000      -0.300192        -8.1686 
  85   1.0000      -0.296643        -8.0721 
  86   1.0000      -0.296157        -8.0588 
  87   1.0000      -0.291923        -7.9436 
  88   1.0000      -0.291576        -7.9342 
  89   1.0000      -0.289233        -7.8704 
  90   1.0000      -0.286973        -7.8089 
  91   1.0000      -0.284611        -7.7446 
  92   1.0000      -0.282171        -7.6783 
  93   1.0000      -0.278294        -7.5728 
  94   1.0000      -0.277991        -7.5645 
  95   1.0000      -0.277552        -7.5526 
  96   1.0000      -0.275871        -7.5068 
  97   1.0000      -0.272924        -7.4266 
  98   1.0000      -0.272868        -7.4251 
  99   1.0000      -0.271445        -7.3864 
 100   1.0000      -0.271074        -7.3763 
 101   1.0000      -0.268297        -7.3007 
 102   1.0000      -0.267590        -7.2815 
 103   1.0000      -0.265035        -7.2120 
 104   1.0000      -0.263600        -7.1729 
 105   1.0000      -0.262119        -7.1326 
 106   1.0000      -0.261086        -7.1045 
 107   1.0000      -0.260011        -7.0753 
 108   1.0000      -0.258692        -7.0394 
 109   1.0000      -0.256840        -6.9890 
 110   1.0000      -0.256050        -6.9675 
 111   1.0000      -0.252671        -6.8755 
 112   1.0000      -0.250363        -6.8127 
 113   1.0000      -0.249327        -6.7845 
 114   1.0000      -0.247213        -6.7270 
 115   1.0000      -0.245198        -6.6722 
 116   1.0000      -0.242671        -6.6034 
 117   1.0000      -0.242126        -6.5886 
 118   1.0000      -0.240805        -6.5526 
 119   1.0000      -0.237090        -6.4516 
 120   1.0000      -0.236889        -6.4461 
 121   1.0000      -0.223199        -6.0736 
 122   1.0000      -0.201066        -5.4713 
 123   1.0000      -0.200297        -5.4504 
 124   0.0000      -0.192391        -5.2352 
 125   0.0000      -0.146007        -3.9730 
 126   0.0000      -0.140204        -3.8151 
 127   0.0000      -0.134418        -3.6577 
 128   0.0000      -0.131045        -3.5659 
 129   0.0000      -0.127370        -3.4659 
 130   0.0000      -0.122305        -3.3281 
 131   0.0000      -0.119121        -3.2414 
 132   0.0000      -0.115345        -3.1387 
 133   0.0000      -0.112944        -3.0734 
 134   0.0000      -0.096370        -2.6224 
 135   0.0000      -0.077868        -2.1189 
 136   0.0000      -0.060998        -1.6598 
 137   0.0000      -0.059555        -1.6206 
 138   0.0000      -0.053038        -1.4432 
 139   0.0000      -0.040407        -1.0995 
 140   0.0000      -0.034716        -0.9447 
 141   0.0000      -0.028998        -0.7891 
 142   0.0000      -0.024041        -0.6542 
 143   0.0000      -0.010909        -0.2969 
 144   0.0000       0.001194         0.0325 
 145   0.0000       0.001736         0.0472 
 146   0.0000       0.017002         0.4627 
 147   0.0000       0.017248         0.4693 
 148   0.0000       0.037835         1.0296 
 149   0.0000       0.040934         1.1139 
 150   0.0000       0.043330         1.1791 
 151   0.0000       0.044323         1.2061 
 152   0.0000       0.053674         1.4606 
 153   0.0000       0.055984         1.5234 
 154   0.0000       0.057461         1.5636 
 155   0.0000       0.064548         1.7564 
 156   0.0000       0.066805         1.8178 
 157   0.0000       0.067368         1.8332 
 158   0.0000       0.071331         1.9410 
 159   0.0000       0.074718         2.0332 
 160   0.0000       0.082802         2.2531 
 161   0.0000       0.086731         2.3601 
 162   0.0000       0.094359         2.5676 
 163   0.0000       0.101480         2.7614 
 164   0.0000       0.105947         2.8830 
 165   0.0000       0.113919         3.0999 
 166   0.0000       0.115439         3.1413 
 167   0.0000       0.129322         3.5190 
 168   0.0000       0.144839         3.9413 
 169   0.0000       0.150118         4.0849 
 170   0.0000       0.152822         4.1585 
 171   0.0000       0.154207         4.1962 
 172   0.0000       0.155326         4.2266 
 173   0.0000       0.159826         4.3491 
 174   0.0000       0.170188         4.6311 
 175   0.0000       0.170685         4.6446 
 176   0.0000       0.173910         4.7323 
 177   0.0000       0.182700         4.9715 
 178   0.0000       0.183100         4.9824 
 179   0.0000       0.197644         5.3782 
 180   0.0000       0.199424         5.4266 
 181   0.0000       0.212590         5.7849 
 182   0.0000       0.217991         5.9318 
 183   0.0000       0.221728         6.0335 
 184   0.0000       0.226343         6.1591 
 185   0.0000       0.232870         6.3367 
 186   0.0000       0.235347         6.4041 
 187   0.0000       0.241585         6.5739 
 188   0.0000       0.245011         6.6671 
 189   0.0000       0.250351         6.8124 
 190   0.0000       0.256796         6.9878 
 191   0.0000       0.264196         7.1891 
 192   0.0000       0.266527         7.2526 
 193   0.0000       0.267808         7.2874 
 194   0.0000       0.272632         7.4187 
 195   0.0000       0.276178         7.5152 
 196   0.0000       0.278666         7.5829 
 197   0.0000       0.283398         7.7117 
 198   0.0000       0.284510         7.7419 
 199   0.0000       0.287191         7.8149 
 200   0.0000       0.301224         8.1967 
 201   0.0000       0.303754         8.2656 
 202   0.0000       0.308704         8.4003 
 203   0.0000       0.308931         8.4064 
 204   0.0000       0.319184         8.6855 
 205   0.0000       0.327272         8.9055 
 206   0.0000       0.330809         9.0018 
 207   0.0000       0.333298         9.0695 
 208   0.0000       0.339941         9.2503 
 209   0.0000       0.350148         9.5280 
 210   0.0000       0.351584         9.5671 
 211   0.0000       0.356416         9.6986 
 212   0.0000       0.358906         9.7663 
 213   0.0000       0.365527         9.9465 
 214   0.0000       0.367092         9.9891 
 215   0.0000       0.373224        10.1559 
 216   0.0000       0.374341        10.1863 
 217   0.0000       0.388106        10.5609 
 218   0.0000       0.389317        10.5939 
 219   0.0000       0.390945        10.6382 
 220   0.0000       0.395109        10.7515 
 221   0.0000       0.405072        11.0226 
 222   0.0000       0.411198        11.1893 
 223   0.0000       0.419790        11.4231 
 224   0.0000       0.422015        11.4836 
 225   0.0000       0.430080        11.7031 
 226   0.0000       0.432689        11.7741 
 227   0.0000       0.435760        11.8576 
 228   0.0000       0.439235        11.9522 
 229   0.0000       0.450890        12.2693 
 230   0.0000       0.453309        12.3352 
 231   0.0000       0.465470        12.6661 
 232   0.0000       0.471318        12.8252 
 233   0.0000       0.472839        12.8666 
 234   0.0000       0.474811        12.9203 
 235   0.0000       0.475078        12.9275 
 236   0.0000       0.483736        13.1631 
 237   0.0000       0.484566        13.1857 
 238   0.0000       0.494660        13.4604 
 239   0.0000       0.501661        13.6509 
 240   0.0000       0.504853        13.7378 
 241   0.0000       0.508140        13.8272 
 242   0.0000       0.518107        14.0984 
 243   0.0000       0.518869        14.1192 
 244   0.0000       0.519703        14.1418 
 245   0.0000       0.528487        14.3809 
 246   0.0000       0.537272        14.6199 
 247   0.0000       0.541796        14.7430 
 248   0.0000       0.543270        14.7831 
 249   0.0000       0.559992        15.2382 
 250   0.0000       0.568282        15.4638 
 251   0.0000       0.568508        15.4699 
 252   0.0000       0.606699        16.5091 
 253   0.0000       0.638112        17.3639 
 254   0.0000       0.653005        17.7692 
 255   0.0000       0.664239        18.0749 
 256   0.0000       0.671625        18.2759 
 257   0.0000       0.686116        18.6702 
 258   0.0000       0.698265        19.0008 
 259   0.0000       0.702079        19.1045 
 260   0.0000       0.717041        19.5117 
 261   0.0000       0.721269        19.6267 
 262   0.0000       0.723404        19.6848 
 263   0.0000       0.731681        19.9100 
 264   0.0000       0.741620        20.1805 
 265   0.0000       0.767389        20.8817 
 266   0.0000       0.771722        20.9996 
 267   0.0000       0.781140        21.2559 
 268   0.0000       0.782714        21.2987 
 269   0.0000       0.797587        21.7034 
 270   0.0000       0.798721        21.7343 
 271   0.0000       0.810821        22.0636 
 272   0.0000       0.811715        22.0879 
 273   0.0000       0.822290        22.3757 
 274   0.0000       0.827952        22.5297 
 275   0.0000       0.841969        22.9111 
 276   0.0000       0.854076        23.2406 
 277   0.0000       0.864586        23.5266 
 278   0.0000       0.874169        23.7874 
 279   0.0000       0.880081        23.9482 
 280   0.0000       0.882796        24.0221 
 281   0.0000       0.923272        25.1235 
 282   0.0000       0.927501        25.2386 
 283   0.0000       0.937390        25.5077 
 284   0.0000       0.963879        26.2285 
 285   0.0000       0.976876        26.5822 
 286   0.0000       0.982466        26.7343 
 287   0.0000       1.008509        27.4429 
 288   0.0000       1.064731        28.9728 
 289   0.0000       1.100080        29.9347 
 290   0.0000       1.112478        30.2721 
 291   0.0000       1.139705        31.0129 
 292   0.0000       1.172358        31.9015 
 293   0.0000       1.203918        32.7603 
 294   0.0000       1.208445        32.8835 
 295   0.0000       1.220841        33.2208 
 296   0.0000       1.228202        33.4211 
 297   0.0000       1.258861        34.2553 
 298   0.0000       1.269586        34.5472 
 299   0.0000       1.295365        35.2487 
 300   0.0000       1.298975        35.3469 
 301   0.0000       1.304283        35.4913 
 302   0.0000       1.322207        35.9791 
 303   0.0000       1.323774        36.0217 
 304   0.0000       1.332047        36.2468 
 305   0.0000       1.335594        36.3434 
 306   0.0000       1.347032        36.6546 
 307   0.0000       1.370949        37.3054 
 308   0.0000       1.373638        37.3786 
 309   0.0000       1.380121        37.5550 
 310   0.0000       1.389530        37.8110 
 311   0.0000       1.391427        37.8627 
 312   0.0000       1.397427        38.0259 
 313   0.0000       1.400382        38.1063 
 314   0.0000       1.403932        38.2029 
 315   0.0000       1.406820        38.2815 
 316   0.0000       1.411501        38.4089 
 317   0.0000       1.412487        38.4357 
 318   0.0000       1.423536        38.7364 
 319   0.0000       1.424172        38.7537 
 320   0.0000       1.427949        38.8565 
 321   0.0000       1.429358        38.8948 
 322   0.0000       1.433408        39.0050 
 323   0.0000       1.436663        39.0936 
 324   0.0000       1.438334        39.1391 
 325   0.0000       1.445453        39.3328 
 326   0.0000       1.449311        39.4378 
 327   0.0000       1.451193        39.4890 
 328   0.0000       1.453887        39.5623 
 329   0.0000       1.458904        39.6988 
 330   0.0000       1.465206        39.8703 
 331   0.0000       1.468518        39.9604 
 332   0.0000       1.471415        40.0392 
 333   0.0000       1.473456        40.0948 
 334   0.0000       1.474639        40.1270 
 335   0.0000       1.475166        40.1413 
 336   0.0000       1.475689        40.1555 
 337   0.0000       1.482459        40.3398 
 338   0.0000       1.482768        40.3482 
 339   0.0000       1.484821        40.4040 
 340   0.0000       1.485277        40.4164 
 341   0.0000       1.486893        40.4604 
 342   0.0000       1.488259        40.4976 
 343   0.0000       1.490905        40.5696 
 344   0.0000       1.491159        40.5765 
 345   0.0000       1.494716        40.6733 
 346   0.0000       1.497888        40.7596 
 347   0.0000       1.499169        40.7945 
 348   0.0000       1.500995        40.8441 
 349   0.0000       1.501410        40.8555 
 350   0.0000       1.504520        40.9401 
 351   0.0000       1.505498        40.9667 
 352   0.0000       1.505971        40.9795 
 353   0.0000       1.508457        41.0472 
 354   0.0000       1.510170        41.0938 
 355   0.0000       1.510450        41.1014 
 356   0.0000       1.513197        41.1762 
 357   0.0000       1.514974        41.2246 
 358   0.0000       1.516154        41.2566 
 359   0.0000       1.517704        41.2988 
 360   0.0000       1.521011        41.3888 
 361   0.0000       1.523086        41.4453 
 362   0.0000       1.524242        41.4767 
 363   0.0000       1.526671        41.5428 
 364   0.0000       1.527725        41.5715 
 365   0.0000       1.532606        41.7043 
 366   0.0000       1.533609        41.7316 
 367   0.0000       1.538051        41.8525 
 368   0.0000       1.538359        41.8609 
 369   0.0000       1.539663        41.8963 
 370   0.0000       1.540387        41.9161 
 371   0.0000       1.541727        41.9525 
 372   0.0000       1.544515        42.0284 
 373   0.0000       1.547463        42.1086 
 374   0.0000       1.547762        42.1168 
 375   0.0000       1.548965        42.1495 
 376   0.0000       1.551469        42.2176 
 377   0.0000       1.552722        42.2517 
 378   0.0000       1.554435        42.2983 
 379   0.0000       1.557455        42.3805 
 380   0.0000       1.561449        42.4892 
 381   0.0000       1.561745        42.4972 
 382   0.0000       1.562513        42.5182 
 383   0.0000       1.564890        42.5828 
 384   0.0000       1.567032        42.6411 
 385   0.0000       1.571034        42.7500 
 386   0.0000       1.572779        42.7975 
 387   0.0000       1.574389        42.8413 
 388   0.0000       1.574704        42.8499 
 389   0.0000       1.575391        42.8686 
 390   0.0000       1.577221        42.9184 
 391   0.0000       1.585812        43.1521 
 392   0.0000       1.593123        43.3511 
 393   0.0000       1.595665        43.4203 
 394   0.0000       1.599302        43.5192 
 395   0.0000       1.599876        43.5348 
 396   0.0000       1.601610        43.5820 
 397   0.0000       1.605209        43.6800 
 398   0.0000       1.607082        43.7309 
[...]
----------------------------------------------------
CHARGE
  0 Aus       :     2.696980  s :     2.696980
      pz      :     2.081694  p :     6.357141
      px      :     2.148421
      py      :     2.127025
      dz2     :     1.976571  d :     9.888968
      dxz     :     1.986807
      dyz     :     1.959288
      dx2y2   :     1.972369
      dxy     :     1.993933
      f0      :     0.000460  f :     0.004506
      f+1     :     0.000412
      f-1     :     0.000666
      f+2     :     0.000823
      f-2     :     0.000540
      f+3     :     0.000808
      f-3     :     0.000797
  1 Aus       :     2.708561  s :     2.708561
      pz      :     2.077035  p :     6.296562
      px      :     2.132632
      py      :     2.086895
      dz2     :     1.939265  d :     9.835156
      dxz     :     1.963154
      dyz     :     1.966222
      dx2y2   :     1.989527
      dxy     :     1.976989
      f0      :     0.000698  f :     0.004518
      f+1     :     0.000759
      f-1     :     0.000515
      f+2     :     0.000491
      f-2     :     0.000837
      f+3     :     0.000513
      f-3     :     0.000704
  2 Aus       :     2.549345  s :     2.549345
      pz      :     2.157251  p :     6.603879
      px      :     2.226758
      py      :     2.219870
      dz2     :     1.979019  d :     9.878903
      dxz     :     1.960253
      dyz     :     1.986869
      dx2y2   :     1.979348
      dxy     :     1.973414
      f0      :     0.000814  f :     0.006557
      f+1     :     0.000828
      f-1     :     0.000622
      f+2     :     0.001322
      f-2     :     0.001120
      f+3     :     0.000851
      f-3     :     0.001000
  3 Aus       :     2.604706  s :     2.604706
      pz      :     2.229941  p :     6.499592
      px      :     2.138255
      py      :     2.131395
      dz2     :     1.977030  d :     9.869951
      dxz     :     1.965415
      dyz     :     1.981537
      dx2y2   :     1.981974
      dxy     :     1.963995
      f0      :     0.001261  f :     0.005793
      f+1     :     0.000984
      f-1     :     0.000619
      f+2     :     0.000895
      f-2     :     0.000933
      f+3     :     0.000438
      f-3     :     0.000663
  4 Aus       :     2.697408  s :     2.697408
      pz      :     2.085012  p :     6.358408
      px      :     2.109820
      py      :     2.163576
      dz2     :     1.978438  d :     9.888914
      dxz     :     1.963488
      dyz     :     1.979368
      dx2y2   :     1.966002
      dxy     :     2.001619
      f0      :     0.000473  f :     0.004519
      f+1     :     0.000693
      f-1     :     0.000353
      f+2     :     0.000831
      f-2     :     0.000609
      f+3     :     0.000916
      f-3     :     0.000645
  5 Aus       :     2.646369  s :     2.646369
      pz      :     2.120158  p :     6.444490
      px      :     2.113292
      py      :     2.211041
      dz2     :     1.970736  d :     9.843487
      dxz     :     1.977435
      dyz     :     1.977840
      dx2y2   :     1.976021
      dxy     :     1.941455
      f0      :     0.000610  f :     0.004995
      f+1     :     0.000503
      f-1     :     0.000448
      f+2     :     0.000835
      f-2     :     0.000761
      f+3     :     0.000770
      f-3     :     0.001068
  6 Aus       :     2.596013  s :     2.596013
      pz      :     2.096634  p :     6.488455
      px      :     2.261360
      py      :     2.130461
      dz2     :     1.983285  d :     9.848395
      dxz     :     1.982818
      dyz     :     1.981195
      dx2y2   :     1.948698
      dxy     :     1.952398
      f0      :     0.000561  f :     0.005654
      f+1     :     0.000702
      f-1     :     0.000501
      f+2     :     0.000486
      f-2     :     0.000872
      f+3     :     0.001163
      f-3     :     0.001369
  7 Aus       :     2.596840  s :     2.596840
      pz      :     2.095215  p :     6.487870
      px      :     2.196090
      py      :     2.196565
      dz2     :     1.982997  d :     9.847803
      dxz     :     1.972007
      dyz     :     1.988575
      dx2y2   :     1.975530
      dxy     :     1.928694
      f0      :     0.000555  f :     0.005659
      f+1     :     0.000621
      f-1     :     0.000563
      f+2     :     0.000530
      f-2     :     0.000810
      f+3     :     0.001305
      f-3     :     0.001275
  8 Aus       :     2.515937  s :     2.515937
      pz      :     2.169418  p :     6.606508
      px      :     2.225917
      py      :     2.211173
      dz2     :     1.984591  d :     9.896077
      dxz     :     1.968530
      dyz     :     1.990781
      dx2y2   :     1.985899
      dxy     :     1.966275
      f0      :     0.000828  f :     0.006660
      f+1     :     0.000793
      f-1     :     0.000711
      f+2     :     0.001270
      f-2     :     0.001204
      f+3     :     0.000796
      f-3     :     0.001058
  9 Aus       :     2.646016  s :     2.646016
      pz      :     2.112885  p :     6.445196
      px      :     2.233426
      py      :     2.098886
      dz2     :     1.973646  d :     9.844280
      dxz     :     1.973186
      dyz     :     1.973538
      dx2y2   :     1.942737
      dxy     :     1.981174
      f0      :     0.000584  f :     0.005007
      f+1     :     0.000585
      f-1     :     0.000409
      f+2     :     0.000840
      f-2     :     0.000717
      f+3     :     0.000805
      f-3     :     0.001067
 10 Aus       :     2.668314  s :     2.668314
      pz      :     2.126460  p :     6.384019
      px      :     2.123550
      py      :     2.134009
      dz2     :     1.968841  d :     9.897013
      dxz     :     1.978369
      dyz     :     1.979880
      dx2y2   :     1.994988
      dxy     :     1.974935
      f0      :     0.000958  f :     0.004658
      f+1     :     0.000740
      f-1     :     0.000555
      f+2     :     0.000618
      f-2     :     0.000438
      f+3     :     0.000571
      f-3     :     0.000779
 11 Aus       :     2.571102  s :     2.571102
      pz      :     2.093378  p :     6.478855
      px      :     2.207330
      py      :     2.178148
      dz2     :     1.923662  d :     9.872513
      dxz     :     1.990715
      dyz     :     1.993507
      dx2y2   :     1.995158
      dxy     :     1.969470
      f0      :     0.000918  f :     0.005588
      f+1     :     0.000800
      f-1     :     0.000581
      f+2     :     0.000648
      f-2     :     0.000950
      f+3     :     0.000661
      f-3     :     0.001031
 12 Mns       :     6.298174  s :     6.298174
      pz      :     4.225727  p :    12.644924
      px      :     4.205293
      py      :     4.213904
      dz2     :     1.393016  d :     6.631511
      dxz     :     1.281856
      dyz     :     1.248257
      dx2y2   :     1.369248
      dxy     :     1.339133
      f0      :     0.000262  f :     0.001252
      f+1     :     0.000166
      f-1     :     0.000158
      f+2     :     0.000131
      f-2     :     0.000162
      f+3     :     0.000134
      f-3     :     0.000239

SPIN
  0 Aus       :     0.030928  s :     0.030928
      pz      :    -0.019384  p :    -0.012979
      px      :     0.001483
      py      :     0.004922
      dz2     :    -0.002309  d :    -0.022884
      dxz     :     0.000800
      dyz     :    -0.021132
      dx2y2   :    -0.001019
      dxy     :     0.000776
      f0      :     0.000002  f :    -0.000062
      f+1     :    -0.000008
      f-1     :    -0.000001
      f+2     :    -0.000057
      f-2     :    -0.000002
      f+3     :    -0.000002
      f-3     :     0.000006
  1 Aus       :    -0.045357  s :    -0.045357
      pz      :    -0.005987  p :    -0.088161
      px      :    -0.055109
      py      :    -0.027066
      dz2     :     0.013548  d :     0.010284
      dxz     :    -0.008363
      dyz     :     0.004555
      dx2y2   :     0.000016
      dxy     :     0.000528
      f0      :     0.000234  f :     0.000367
      f+1     :     0.000081
      f-1     :     0.000128
      f+2     :     0.000005
      f-2     :     0.000020
      f+3     :    -0.000014
      f-3     :    -0.000088
  2 Aus       :    -0.092642  s :    -0.092642
      pz      :    -0.021371  p :    -0.015476
      px      :     0.004730
      py      :     0.001165
      dz2     :     0.008621  d :     0.047197
      dxz     :     0.018299
      dyz     :     0.006400
      dx2y2   :     0.014273
      dxy     :    -0.000396
      f0      :     0.000026  f :     0.000468
      f+1     :     0.000085
      f-1     :     0.000029
      f+2     :     0.000142
      f-2     :     0.000145
      f+3     :     0.000029
      f-3     :     0.000012
  3 Aus       :    -0.112393  s :    -0.112393
      pz      :    -0.027275  p :    -0.026776
      px      :     0.001358
      py      :    -0.000859
      dz2     :    -0.002822  d :     0.023738
      dxz     :     0.005179
      dyz     :     0.004497
      dx2y2   :     0.007947
      dxy     :     0.008937
      f0      :     0.000006  f :     0.000349
      f+1     :     0.000040
      f-1     :     0.000024
      f+2     :    -0.000000
      f-2     :     0.000110
      f+3     :     0.000085
      f-3     :     0.000085
  4 Aus       :     0.031064  s :     0.031064
      pz      :    -0.018353  p :    -0.013224
      px      :     0.003937
      py      :     0.001192
      dz2     :    -0.002144  d :    -0.023462
      dxz     :    -0.020198
      dyz     :    -0.000288
      dx2y2   :     0.000100
      dxy     :    -0.000931
      f0      :     0.000002  f :    -0.000064
      f+1     :    -0.000008
      f-1     :    -0.000002
      f+2     :    -0.000051
      f-2     :    -0.000007
      f+3     :     0.000002
      f-3     :    -0.000001
  5 Aus       :    -0.031632  s :    -0.031632
      pz      :    -0.017097  p :    -0.029612
      px      :     0.003829
      py      :    -0.016344
      dz2     :     0.001014  d :     0.004687
      dxz     :     0.004249
      dyz     :    -0.022564
      dx2y2   :     0.008668
      dxy     :     0.013320
      f0      :     0.000024  f :     0.000396
      f+1     :     0.000059
      f-1     :     0.000015
      f+2     :     0.000026
      f-2     :     0.000037
      f+3     :     0.000077
      f-3     :     0.000158
  6 Aus       :    -0.050363  s :    -0.050363
      pz      :    -0.007057  p :    -0.014279
      px      :    -0.015541
      py      :     0.008319
      dz2     :    -0.001191  d :     0.014556
      dxz     :    -0.018260
      dyz     :     0.010599
      dx2y2   :     0.015132
      dxy     :     0.008276
      f0      :     0.000030  f :     0.000393
      f+1     :    -0.000003
      f-1     :     0.000085
      f+2     :     0.000071
      f-2     :    -0.000036
      f+3     :     0.000104
      f-3     :     0.000141
  7 Aus       :    -0.050965  s :    -0.050965
      pz      :    -0.005308  p :    -0.013784
      px      :     0.012958
      py      :    -0.021434
      dz2     :    -0.001627  d :     0.015543
      dxz     :     0.010347
      dyz     :    -0.015017
      dx2y2   :     0.006559
      dxy     :     0.015280
      f0      :     0.000033  f :     0.000400
      f+1     :     0.000062
      f-1     :     0.000013
      f+2     :     0.000016
      f-2     :     0.000044
      f+3     :     0.000088
      f-3     :     0.000143
  8 Aus       :    -0.074781  s :    -0.074781
      pz      :    -0.021618  p :    -0.021692
      px      :    -0.000518
      py      :     0.000445
      dz2     :     0.000663  d :     0.015341
      dxz     :     0.005396
      dyz     :     0.006187
      dx2y2   :     0.007665
      dxy     :    -0.004571
      f0      :     0.000009  f :     0.000293
      f+1     :     0.000046
      f-1     :     0.000035
      f+2     :     0.000056
      f-2     :     0.000139
      f+3     :     0.000014
      f-3     :    -0.000006
  9 Aus       :    -0.031227  s :    -0.031227
      pz      :    -0.014092  p :    -0.030043
      px      :    -0.015240
      py      :    -0.000712
      dz2     :     0.003160  d :     0.003241
      dxz     :    -0.021513
      dyz     :     0.004837
      dx2y2   :     0.010931
      dxy     :     0.005826
      f0      :     0.000029  f :     0.000383
      f+1     :    -0.000016
      f-1     :     0.000071
      f+2     :     0.000119
      f-2     :    -0.000006
      f+3     :     0.000058
      f-3     :     0.000128
 10 Aus       :    -0.027217  s :    -0.027217
      pz      :    -0.037432  p :    -0.039592
      px      :    -0.000427
      py      :    -0.001733
      dz2     :    -0.011522  d :    -0.019232
      dxz     :    -0.003659
      dyz     :    -0.000767
      dx2y2   :    -0.000118
      dxy     :    -0.003165
      f0      :    -0.000010  f :    -0.000062
      f+1     :    -0.000002
      f-1     :    -0.000003
      f+2     :    -0.000007
      f-2     :    -0.000014
      f+3     :    -0.000005
      f-3     :    -0.000021
 11 Aus       :    -0.091527  s :    -0.091527
      pz      :    -0.014866  p :    -0.044417
      px      :    -0.018639
      py      :    -0.010912
      dz2     :     0.017408  d :     0.016807
      dxz     :     0.007053
      dyz     :     0.008184
      dx2y2   :    -0.002048
      dxy     :    -0.013791
      f0      :     0.000277  f :     0.000440
      f+1     :     0.000120
      f-1     :     0.000098
      f+2     :    -0.000003
      f-2     :    -0.000029
      f+3     :    -0.000004
      f-3     :    -0.000018
 12 Mns       :     0.019740  s :     0.019740
      pz      :     0.012694  p :     0.034900
      px      :     0.010270
      py      :     0.011936
      dz2     :     0.615703  d :     3.752350
      dxz     :     0.762479
      dyz     :     0.811452
      dx2y2   :     0.808597
      dxy     :     0.754119
      f0      :     0.000005  f :     0.000038
      f+1     :     0.000006
      f-1     :     0.000006
      f+2     :     0.000006
      f-2     :     0.000003
      f+3     :     0.000007
      f-3     :     0.000006


                      *****************************
                      * MAYER POPULATION ANALYSIS *
                      *****************************

  NA   - Mulliken gross atomic population
  ZA   - Total nuclear charge
  QA   - Mulliken gross atomic charge
  VA   - Mayer's total valence
  BVA  - Mayer's bonded valence
  FA   - Mayer's free valence

  ATOM       NA         ZA         QA         VA         BVA        FA
  0 Au    18.6640    19.0000     0.3360     1.4640     1.4598     0.0042
  1 Au    18.7644    19.0000     0.2356     1.5672     1.5599     0.0073
  2 Au    19.0081    19.0000    -0.0081     2.0220     1.9816     0.0404
  3 Au    18.7748    19.0000     0.2252     1.6593     1.6098     0.0495
  4 Au    18.6698    19.0000     0.3302     1.4681     1.4639     0.0042
  5 Au    18.8261    19.0000     0.1739     1.6722     1.6668     0.0055
  6 Au    18.9332    19.0000     0.0668     1.8965     1.8842     0.0123
  7 Au    18.9337    19.0000     0.0663     1.8992     1.8866     0.0126
  8 Au    18.9315    19.0000     0.0685     1.9727     1.9424     0.0303
  9 Au    18.8254    19.0000     0.1746     1.6737     1.6683     0.0054
 10 Au    18.6629    19.0000     0.3371     1.4752     1.4679     0.0073
 11 Au    18.8308    19.0000     0.1692     1.8295     1.7944     0.0350
 12 Mn    27.1752    25.0000    -2.1752     8.5015     5.2144     3.2871

  Mayer bond orders larger than 0.100000
B(  0-Au,  2-Au) :   0.3265 B(  0-Au,  4-Au) :   0.1183 B(  0-Au,  6-Au) :   0.4148 
B(  0-Au,  8-Au) :   0.2641 B(  1-Au,  2-Au) :   0.4162 B(  1-Au,  3-Au) :   0.2770 
B(  1-Au, 12-Mn) :   0.5640 B(  2-Au,  4-Au) :   0.3226 B(  2-Au,  8-Au) :   0.1054 
B(  2-Au, 12-Mn) :   0.4945 B(  3-Au,  5-Au) :   0.1474 B(  3-Au,  9-Au) :   0.1503 
B(  3-Au, 10-Au) :   0.2993 B(  3-Au, 12-Mn) :   0.5238 B(  4-Au,  7-Au) :   0.4199 
B(  4-Au,  8-Au) :   0.2650 B(  5-Au,  6-Au) :   0.3480 B(  5-Au,  9-Au) :   0.1028 
B(  5-Au, 10-Au) :   0.2285 B(  5-Au, 11-Au) :   0.1290 B(  5-Au, 12-Mn) :   0.5308 
B(  6-Au,  8-Au) :   0.1606 B(  6-Au, 12-Mn) :   0.6046 B(  7-Au,  8-Au) :   0.1612 
B(  7-Au,  9-Au) :   0.3501 B(  7-Au, 12-Mn) :   0.6057 B(  8-Au, 11-Au) :   0.3682 
B(  8-Au, 12-Mn) :   0.4711 B(  9-Au, 10-Au) :   0.2251 B(  9-Au, 11-Au) :   0.1316 
B(  9-Au, 12-Mn) :   0.5273 B( 10-Au, 11-Au) :   0.2926 B( 10-Au, 12-Mn) :   0.1166 
B( 11-Au, 12-Mn) :   0.6258 

-------
TIMINGS
-------

Total SCF time: 0 days 0 hours 1 min 16 sec 

Total time                  ....      76.335 sec
Sum of individual times     ....      74.284 sec  ( 97.3%)

Fock matrix formation       ....      65.747 sec  ( 86.1%)
  Split-RI-J                ....      23.488 sec  ( 35.7% of F)
  XC integration            ....      41.415 sec  ( 63.0% of F)
    Basis function eval.    ....       5.867 sec  ( 14.2% of XC)
    Density eval.           ....      19.324 sec  ( 46.7% of XC)
    XC-Functional eval.     ....       0.861 sec  (  2.1% of XC)
    XC-Potential eval.      ....      12.928 sec  ( 31.2% of XC)
Diagonalization             ....       5.361 sec  (  7.0%)
Density matrix formation    ....       0.205 sec  (  0.3%)
Population analysis         ....       0.196 sec  (  0.3%)
Initial guess               ....       0.412 sec  (  0.5%)
Orbital Transformation      ....       0.000 sec  (  0.0%)
Orbital Orthonormalization  ....       0.344 sec  (  0.5%)
DIIS solution               ....       0.000 sec  (  0.0%)
Grid generation             ....       2.363 sec  (  3.1%)

Maximum memory used throughout the entire SCF-calculation: 80.6 MB

-------------------------   --------------------
FINAL SINGLE POINT ENERGY     -2780.692486030208
-------------------------   --------------------


                            ***************************************
                            *     ORCA property calculations      *
                            ***************************************

                                    ---------------------
                                    Active property flags
                                    ---------------------
   (+) Dipole Moment


------------------------------------------------------------------------------
                       ORCA ELECTRIC PROPERTIES CALCULATION
------------------------------------------------------------------------------

Dipole Moment Calculation                       ... on
Quadrupole Moment Calculation                   ... off
Polarizability Calculation                      ... off
GBWName                                         ... pbeSP_job2.gbw
Electron density                                ... pbeSP_job2.scfp
The origin for moment calculation is the CENTER OF MASS  = (16.798881, 17.059284 14.453510)

-------------
DIPOLE MOMENT
-------------
                                X             Y             Z
Electronic contribution:     12.37481       9.92391      -7.88072
Nuclear contribution   :    -12.45215      -9.96694       7.81166
                        -----------------------------------------
Total Dipole Moment    :     -0.07734      -0.04303      -0.06906
                        -----------------------------------------
Magnitude (a.u.)       :      0.11226
Magnitude (Debye)      :      0.28535



--------------------
Rotational spectrum 
--------------------
 
Rotational constants in cm-1:     0.001799     0.001040     0.001021 
Rotational constants in MHz :    53.942579    31.169120    30.597360 

 Dipole components along the rotational axes: 
x,y,z [a.u.] :    -0.099727    -0.003979    -0.051396 
x,y,z [Debye]:    -0.253485    -0.010115    -0.130639 

 

Timings for individual modules:

Sum of individual times         ...       92.438 sec (=   1.541 min)
GTO integral calculation        ...       15.835 sec (=   0.264 min)  17.1 %
SCF iterations                  ...       76.603 sec (=   1.277 min)  82.9 %



                             ****ORCA TERMINATED NORMALLY****
TOTAL RUN TIME: 0 days 0 hours 5 minutes 49 seconds 520 msec
