
                                 *****************
                                 * O   R   C   A *
                                 *****************

                                            #,                                       
                                            ###                                      
                                            ####                                     
                                            #####                                    
                                            ######                                   
                                           ########,                                 
                                     ,,################,,,,,                         
                               ,,#################################,,                 
                          ,,##########################################,,             
                       ,#########################################, ''#####,          
                    ,#############################################,,   '####,        
                  ,##################################################,,,,####,       
                ,###########''''           ''''###############################       
              ,#####''   ,,,,##########,,,,          '''####'''          '####       
            ,##' ,,,,###########################,,,                        '##       
           ' ,,###''''                  '''############,,,                           
         ,,##''                                '''############,,,,        ,,,,,,###''
      ,#''                                            '''#######################'''  
     '                                                          ''''####''''         
             ,#######,   #######,   ,#######,      ##                                
            ,#'     '#,  ##    ##  ,#'     '#,    #''#        ######   ,####,        
            ##       ##  ##   ,#'  ##            #'  '#       #        #'  '#        
            ##       ##  #######   ##           ,######,      #####,   #    #        
            '#,     ,#'  ##    ##  '#,     ,#' ,#      #,         ##   #,  ,#        
             '#######'   ##     ##  '#######'  #'      '#     #####' # '####'        



                  #######################################################
                  #                        -***-                        #
                  #          Department of theory and spectroscopy      #
                  #    Directorship and core code : Frank Neese         #
                  #        Max Planck Institute fuer Kohlenforschung    #
                  #                Kaiser Wilhelm Platz 1               #
                  #                 D-45470 Muelheim/Ruhr               #
                  #                      Germany                        #
                  #                                                     #
                  #                  All rights reserved                #
                  #                        -***-                        #
                  #######################################################


                         Program Version 5.0.3 -  RELEASE  -


 With contributions from (in alphabetic order):
   Daniel Aravena         : Magnetic Suceptibility
   Michael Atanasov       : Ab Initio Ligand Field Theory (pilot matlab implementation)
   Alexander A. Auer      : GIAO ZORA, VPT2 properties, NMR spectrum
   Ute Becker             : Parallelization
   Giovanni Bistoni       : ED, misc. LED, open-shell LED, HFLD
   Martin Brehm           : Molecular dynamics
   Dmytro Bykov           : SCF Hessian
   Vijay G. Chilkuri      : MRCI spin determinant printing, contributions to CSF-ICE
   Dipayan Datta          : RHF DLPNO-CCSD density
   Achintya Kumar Dutta   : EOM-CC, STEOM-CC
   Dmitry Ganyushin       : Spin-Orbit,Spin-Spin,Magnetic field MRCI
   Miquel Garcia          : C-PCM and meta-GGA Hessian, CC/C-PCM, Gaussian charge scheme
   Yang Guo               : DLPNO-NEVPT2, F12-NEVPT2, CIM, IAO-localization
   Andreas Hansen         : Spin unrestricted coupled pair/coupled cluster methods
   Benjamin Helmich-Paris : MC-RPA, TRAH-SCF, COSX integrals
   Lee Huntington         : MR-EOM, pCC
   Robert Izsak           : Overlap fitted RIJCOSX, COSX-SCS-MP3, EOM
   Marcus Kettner         : VPT2
   Christian Kollmar      : KDIIS, OOCD, Brueckner-CCSD(T), CCSD density, CASPT2, CASPT2-K
   Simone Kossmann        : Meta GGA functionals, TD-DFT gradient, OOMP2, MP2 Hessian
   Martin Krupicka        : Initial AUTO-CI
   Lucas Lang             : DCDCAS
   Marvin Lechner         : AUTO-CI (C++ implementation), FIC-MRCC
   Dagmar Lenk            : GEPOL surface, SMD
   Dimitrios Liakos       : Extrapolation schemes; Compound Job, initial MDCI parallelization
   Dimitrios Manganas     : Further ROCIS development; embedding schemes
   Dimitrios Pantazis     : SARC Basis sets
   Anastasios Papadopoulos: AUTO-CI, single reference methods and gradients
   Taras Petrenko         : DFT Hessian,TD-DFT gradient, ASA, ECA, R-Raman, ABS, FL, XAS/XES, NRVS
   Peter Pinski           : DLPNO-MP2, DLPNO-MP2 Gradient
   Christoph Reimann      : Effective Core Potentials
   Marius Retegan         : Local ZFS, SOC
   Christoph Riplinger    : Optimizer, TS searches, QM/MM, DLPNO-CCSD(T), (RO)-DLPNO pert. Triples
   Tobias Risthaus        : Range-separated hybrids, TD-DFT gradient, RPA, STAB
   Michael Roemelt        : Original ROCIS implementation
   Masaaki Saitow         : Open-shell DLPNO-CCSD energy and density
   Barbara Sandhoefer     : DKH picture change effects
   Avijit Sen             : IP-ROCIS
   Kantharuban Sivalingam : CASSCF convergence, NEVPT2, FIC-MRCI
   Bernardo de Souza      : ESD, SOC TD-DFT
   Georgi Stoychev        : AutoAux, RI-MP2 NMR, DLPNO-MP2 response
   Willem Van den Heuvel  : Paramagnetic NMR
   Boris Wezisla          : Elementary symmetry handling
   Frank Wennmohs         : Technical directorship


 We gratefully acknowledge several colleagues who have allowed us to
 interface, adapt or use parts of their codes:
   Stefan Grimme, W. Hujo, H. Kruse, P. Pracht,  : VdW corrections, initial TS optimization,
                  C. Bannwarth, S. Ehlert          DFT functionals, gCP, sTDA/sTD-DF
   Ed Valeev, F. Pavosevic, A. Kumar             : LibInt (2-el integral package), F12 methods
   Garnet Chan, S. Sharma, J. Yang, R. Olivares  : DMRG
   Ulf Ekstrom                                   : XCFun DFT Library
   Mihaly Kallay                                 : mrcc  (arbitrary order and MRCC methods)
   Jiri Pittner, Ondrej Demel                    : Mk-CCSD
   Frank Weinhold                                : gennbo (NPA and NBO analysis)
   Christopher J. Cramer and Donald G. Truhlar   : smd solvation model
   Lars Goerigk                                  : TD-DFT with DH, B97 family of functionals
   V. Asgeirsson, H. Jonsson                     : NEB implementation
   FAccTs GmbH                                   : IRC, NEB, NEB-TS, DLPNO-Multilevel, CI-OPT
                                                   MM, QMMM, 2- and 3-layer-ONIOM, Crystal-QMMM,
                                                   LR-CPCM, SF, NACMEs, symmetry and pop. for TD-DFT,
                                                   nearIR, NL-DFT gradient (VV10), updates on ESD,
                                                   ML-optimized integration grids
   S Lehtola, MJT Oliveira, MAL Marques          : LibXC Library
   Liviu Ungur et al                             : ANISO software


 Your calculation uses the libint2 library for the computation of 2-el integrals
 For citations please refer to: http://libint.valeyev.net

 Your ORCA version has been built with support for libXC version: 5.1.0
 For citations please refer to: https://tddft.org/programs/libxc/

 This ORCA versions uses:
   CBLAS   interface :  Fast vector & matrix operations
   LAPACKE interface :  Fast linear algebra routines
   SCALAPACK package :  Parallel linear algebra routines
   Shared memory     :  Shared parallel matrices
   BLAS/LAPACK       :  OpenBLAS 0.3.15  USE64BITINT DYNAMIC_ARCH NO_AFFINITY Sandybridge SINGLE_THREADED
        Core in use  :  Sandybridge
   Copyright (c) 2011-2014, The OpenBLAS Project




***************************************
The coordinates will be read from file: pbe.xyz
***************************************


================================================================================

cite the ECPs for Au [Def2-ECP] as follows:
Ce-Yb(ecp-28): M. Dolg, H. Stoll, H.Preuss, J. Chem. Phys., 1989, 90, 1730-1734.
Y-Cd(ecp-28), Hf-Hg(ecp-46): D. Andrae,U. Haeussermann, M. Dolg, H. Stoll, H. Preuss, Theor. Chim. Acta, 1990, 77, 123-141.
In-Sb(ecp-28), Tl-Bi(ecp-46): B. Metz, H. Stoll, M. Dolg, J. Chem. Phys., 2000, 113, 2563-2569.
Te-Xe(ecp-28), Po-Rn(ecp-46): K. A. Peterson, D. Figgen, E. Goll, H. Stoll, M. Dolg, J. Chem. Phys., 2003, 119, 11113-11123.
Rb(ecp-28), Cs(ecp-46): T. Leininger, A. Nicklass, W. Kuechle, H. Stoll, M. Dolg, A. Bergner, Chem. Phys. Lett., 1996, 255, 274-280.
Sr(ecp-28), Ba(ecp-46): M. Kaupp, P. V. Schleyer, H. Stoll and H. Preuss, J. Chem. Phys., 1991, 94, 1360-1366.
La(ecp-46): M. Dolg, H. Stoll, A. Savin, H. Preuss, Theor. Chim. Acta, 1989, 75, 173-194.
Lu(ecp-28): X. Cao, M. Dolg, J. Chem. Phys., 2001, 115, 7348-7355.

ECP parameters for Au [Def2-ECP] have been obtained from:
TURBOMOLE (7.0.2)

----- Orbital basis set information -----
Your calculation utilizes the basis: def2-TZVP
   F. Weigend and R. Ahlrichs, Phys. Chem. Chem. Phys. 7, 3297 (2005).

----- AuxJ basis set information -----
Your calculation utilizes the auxiliary basis: def2/J
   F. Weigend, Phys. Chem. Chem. Phys. 8, 1057 (2006).

================================================================================
                                        WARNINGS
                       Please study these warnings very carefully!
================================================================================

Using LibXC functional ID 497 : Re-regularized SCAN exchange by Furness et al
[ 1]  J. W. Furness, A. D. Kaplan, J. Ning, J. P. Perdew, and J. Sun, J. Phys. Chem. Lett. 11, 8208 (2020)
[ 2]  J. W. Furness, A. D. Kaplan, J. Ning, J. P. Perdew, and J. Sun, J. Phys. Chem. Lett. 11, 9248 (2020)
Using LibXC functional ID 498 : Re-regularized SCAN correlation by Furness et al
[ 1]  J. W. Furness, A. D. Kaplan, J. Ning, J. P. Perdew, and J. Sun, J. Phys. Chem. Lett. 11, 8208 (2020)
[ 2]  J. W. Furness, A. D. Kaplan, J. Ning, J. P. Perdew, and J. Sun, J. Phys. Chem. Lett. 11, 9248 (2020)
Using LibXC functional ID 497 : Re-regularized SCAN exchange by Furness et al
[ 1]  J. W. Furness, A. D. Kaplan, J. Ning, J. P. Perdew, and J. Sun, J. Phys. Chem. Lett. 11, 8208 (2020)
[ 2]  J. W. Furness, A. D. Kaplan, J. Ning, J. P. Perdew, and J. Sun, J. Phys. Chem. Lett. 11, 9248 (2020)
Using LibXC functional ID 498 : Re-regularized SCAN correlation by Furness et al
[ 1]  J. W. Furness, A. D. Kaplan, J. Ning, J. P. Perdew, and J. Sun, J. Phys. Chem. Lett. 11, 8208 (2020)
[ 2]  J. W. Furness, A. D. Kaplan, J. Ning, J. P. Perdew, and J. Sun, J. Phys. Chem. Lett. 11, 9248 (2020)

WARNING: your system is open-shell and RHF/RKS was chosen
  ===> : WILL SWITCH to UHF/UKS


INFO   : the flag for use of the SHARK integral package has been found!



***************************************
The coordinates will be read from file: pbe.xyz
***************************************


================================================================================

cite the ECPs for Au [Def2-ECP] as follows:
Ce-Yb(ecp-28): M. Dolg, H. Stoll, H.Preuss, J. Chem. Phys., 1989, 90, 1730-1734.
Y-Cd(ecp-28), Hf-Hg(ecp-46): D. Andrae,U. Haeussermann, M. Dolg, H. Stoll, H. Preuss, Theor. Chim. Acta, 1990, 77, 123-141.
In-Sb(ecp-28), Tl-Bi(ecp-46): B. Metz, H. Stoll, M. Dolg, J. Chem. Phys., 2000, 113, 2563-2569.
Te-Xe(ecp-28), Po-Rn(ecp-46): K. A. Peterson, D. Figgen, E. Goll, H. Stoll, M. Dolg, J. Chem. Phys., 2003, 119, 11113-11123.
Rb(ecp-28), Cs(ecp-46): T. Leininger, A. Nicklass, W. Kuechle, H. Stoll, M. Dolg, A. Bergner, Chem. Phys. Lett., 1996, 255, 274-280.
Sr(ecp-28), Ba(ecp-46): M. Kaupp, P. V. Schleyer, H. Stoll and H. Preuss, J. Chem. Phys., 1991, 94, 1360-1366.
La(ecp-46): M. Dolg, H. Stoll, A. Savin, H. Preuss, Theor. Chim. Acta, 1989, 75, 173-194.
Lu(ecp-28): X. Cao, M. Dolg, J. Chem. Phys., 2001, 115, 7348-7355.

ECP parameters for Au [Def2-ECP] have been obtained from:
TURBOMOLE (7.0.2)

----- Orbital basis set information -----
Your calculation utilizes the basis: def2-TZVP
   F. Weigend and R. Ahlrichs, Phys. Chem. Chem. Phys. 7, 3297 (2005).

----- AuxJ basis set information -----
Your calculation utilizes the auxiliary basis: def2/J
   F. Weigend, Phys. Chem. Chem. Phys. 8, 1057 (2006).

================================================================================
                                        WARNINGS
                       Please study these warnings very carefully!
================================================================================

Using LibXC functional ID 497 : Re-regularized SCAN exchange by Furness et al
[ 1]  J. W. Furness, A. D. Kaplan, J. Ning, J. P. Perdew, and J. Sun, J. Phys. Chem. Lett. 11, 8208 (2020)
[ 2]  J. W. Furness, A. D. Kaplan, J. Ning, J. P. Perdew, and J. Sun, J. Phys. Chem. Lett. 11, 9248 (2020)
Using LibXC functional ID 498 : Re-regularized SCAN correlation by Furness et al
[ 1]  J. W. Furness, A. D. Kaplan, J. Ning, J. P. Perdew, and J. Sun, J. Phys. Chem. Lett. 11, 8208 (2020)
[ 2]  J. W. Furness, A. D. Kaplan, J. Ning, J. P. Perdew, and J. Sun, J. Phys. Chem. Lett. 11, 9248 (2020)
Using LibXC functional ID 497 : Re-regularized SCAN exchange by Furness et al
[ 1]  J. W. Furness, A. D. Kaplan, J. Ning, J. P. Perdew, and J. Sun, J. Phys. Chem. Lett. 11, 8208 (2020)
[ 2]  J. W. Furness, A. D. Kaplan, J. Ning, J. P. Perdew, and J. Sun, J. Phys. Chem. Lett. 11, 9248 (2020)
Using LibXC functional ID 498 : Re-regularized SCAN correlation by Furness et al
[ 1]  J. W. Furness, A. D. Kaplan, J. Ning, J. P. Perdew, and J. Sun, J. Phys. Chem. Lett. 11, 8208 (2020)
[ 2]  J. W. Furness, A. D. Kaplan, J. Ning, J. P. Perdew, and J. Sun, J. Phys. Chem. Lett. 11, 9248 (2020)

INFO   : the flag for use of the SHARK integral package has been found!

================================================================================
                                       INPUT FILE
================================================================================
NAME = scan.inp
|  1> !R2SCAN def2-TZVP VERYSLOWCONV
|  2> !KDIIS
|  3> %scf
|  4>   AutoTRAHIter 200
|  5>   maxiter 400
|  6> end
|  7> 
|  8> %pal nprocs 6 end 
|  9> 
| 10> *xyzfile 0 6 pbe.xyz
| 11> 
| 12> $new_job
| 13> 
| 14> !R2SCAN def2-TZVP VERYSLOWCONV
| 15> !KDIIS
| 16> %scf
| 17>   AutoTRAHIter 200
| 18>   maxiter 400
| 19> end
| 20> 
| 21> 
| 22> %pal nprocs 6 end 
| 23> 
| 24> *xyzfile 0 4 pbe.xyz
| 25> 
| 26> 
| 27> 
| 28> 
| 29> 
| 30>                          ****END OF INPUT****
================================================================================


                 $$$$$$$$$$$$$$$$$$$$$$$$$$$$$$$$$$$$$$$$$$$$$$ 
                 $ THERE ARE  2 JOBS TO BE PROCESSED THIS RUN $
                 $$$$$$$$$$$$$$$$$$$$$$$$$$$$$$$$$$$$$$$$$$$$$$ 




                 $$$$$$$$$$$$$$$$  JOB NUMBER  1 $$$$$$$$$$$$$$


                       ****************************
                       * Single Point Calculation *
                       ****************************

---------------------------------
CARTESIAN COORDINATES (ANGSTROEM)
---------------------------------
  Au    10.767950   12.175862    8.164332
  Au     8.312011    8.284408   10.479405
  Au    10.276731    9.844093    9.566493
  Au     6.568404    7.208827    8.713589
  Au    12.491259    9.787470    7.905995
  Au     6.150269    9.715466    7.238421
  Au     8.161119   11.406047    7.856120
  Au    10.925220    7.603137    7.419821
  Au    10.249192   10.177526    6.245914
  Au     8.637916    6.290105    6.853433
  Au     6.048141    7.143595    6.022553
  Au     8.180104    8.766752    5.257013
  Mn     8.555103    8.759659    7.858300

----------------------------
CARTESIAN COORDINATES (A.U.)
----------------------------
  NO LB      ZA    FRAG     MASS         X           Y           Z
   0 Au   19.0000*   0   196.966   20.348477   23.009044   15.428352
   1 Au   19.0000*   0   196.966   15.707425   15.655262   19.803205
   2 Au   19.0000*   0   196.966   19.420207   18.602639   18.078052
   3 Au   19.0000*   0   196.966   12.412484   13.622709   16.466296
   4 Au   19.0000*   0   196.966   23.605058   18.495638   14.940164
   5 Au   19.0000*   0   196.966   11.622323   18.359570   13.678633
   6 Au   19.0000*   0   196.966   15.422279   21.554305   14.845916
   7 Au   19.0000*   0   196.966   20.645673   14.367847   14.021430
   8 Au   19.0000*   0   196.966   19.368165   19.232736   11.803067
   9 Au   19.0000*   0   196.966   16.323296   11.886575   12.951112
  10 Au   19.0000*   0   196.966   11.429331   13.499437   11.380975
  11 Au   19.0000*   0   196.966   15.458156   16.566759    9.934315
  12 Mn   25.0000    0    54.940   16.166802   16.553356   14.850035
* core charge reduced due to ECP

--------------------------------
INTERNAL COORDINATES (ANGSTROEM)
--------------------------------
 Au     0   0   0     0.000000000000     0.00000000     0.00000000
 Au     1   0   0     5.151175847168     0.00000000     0.00000000
 Au     2   1   0     2.669484595721    18.91895223     0.00000000
 Au     2   1   3     2.704653016849   108.32246097   232.78248599
 Au     3   2   1     2.768500829917   141.43354368   238.97931433
 Au     4   2   1     2.938400267264    94.60344852   330.98215832
 Au     6   4   2     2.698728044590   108.26739790    17.23024233
 Au     5   3   2     2.731328364930    70.39609084    15.45893738
 Au     5   3   2     2.816891121896    73.37940405    82.33141714
 Au     8   5   3     2.697518728161   155.89774313    52.13914306
 Au     4   2   1     2.741642376138   140.59031638    17.24948287
 Au     9   5   3     2.692458433663   139.07395312   285.48421066
 Mn    12   9   5     2.628187044614    61.85133844    53.84167507

---------------------------
INTERNAL COORDINATES (A.U.)
---------------------------
 Au     0   0   0     0.000000000000     0.00000000     0.00000000
 Au     1   0   0     9.734311618818     0.00000000     0.00000000
 Au     2   1   0     5.044594804634    18.91895223     0.00000000
 Au     2   1   3     5.111053489129   108.32246097   232.78248599
 Au     3   2   1     5.231708370078   141.43354368   238.97931433
 Au     4   2   1     5.552771776970    94.60344852   330.98215832
 Au     6   4   2     5.099856914208   108.26739790    17.23024233
 Au     5   3   2     5.161462591529    70.39609084    15.45893738
 Au     5   3   2     5.323152769459    73.37940405    82.33141714
 Au     8   5   3     5.097571637348   155.89774313    52.13914306
 Au     4   2   1     5.180953248054   140.59031638    17.24948287
 Au     9   5   3     5.088009066590   139.07395312   285.48421066
 Mn    12   9   5     4.966553743040    61.85133844    53.84167507

---------------------
BASIS SET INFORMATION
---------------------
There are 2 groups of distinct atoms

 Group   1 Type Au  : 8s7p6d1f contracted to 6s4p3d1f pattern {311111/4111/411/1}
 Group   2 Type Mn  : 17s11p7d1f contracted to 6s4p4d1f pattern {842111/6311/4111/1}

Atom   0Au   basis set group =>   1
Atom   1Au   basis set group =>   1
Atom   2Au   basis set group =>   1
Atom   3Au   basis set group =>   1
Atom   4Au   basis set group =>   1
Atom   5Au   basis set group =>   1
Atom   6Au   basis set group =>   1
Atom   7Au   basis set group =>   1
Atom   8Au   basis set group =>   1
Atom   9Au   basis set group =>   1
Atom  10Au   basis set group =>   1
Atom  11Au   basis set group =>   1
Atom  12Mn   basis set group =>   2
---------------------------------
AUXILIARY/J BASIS SET INFORMATION
---------------------------------
There are 2 groups of distinct atoms

 Group   1 Type Au  : 11s5p5d3f3g contracted to 8s5p5d2f3g pattern {41111111/11111/11111/21/111}
 Group   2 Type Mn  : 19s5p5d3f3g contracted to 8s5p5d2f3g pattern {121111111/11111/11111/21/111}

Atom   0Au   basis set group =>   1
Atom   1Au   basis set group =>   1
Atom   2Au   basis set group =>   1
Atom   3Au   basis set group =>   1
Atom   4Au   basis set group =>   1
Atom   5Au   basis set group =>   1
Atom   6Au   basis set group =>   1
Atom   7Au   basis set group =>   1
Atom   8Au   basis set group =>   1
Atom   9Au   basis set group =>   1
Atom  10Au   basis set group =>   1
Atom  11Au   basis set group =>   1
Atom  12Mn   basis set group =>   2
-------------------------
ECP PARAMETER INFORMATION
-------------------------

 Group 1, Type Au ECP Def2-ECP (replacing 60 core electrons, lmax=3)

Atom   0Au   ECP group =>   1
Atom   1Au   ECP group =>   1
Atom   2Au   ECP group =>   1
Atom   3Au   ECP group =>   1
Atom   4Au   ECP group =>   1
Atom   5Au   ECP group =>   1
Atom   6Au   ECP group =>   1
Atom   7Au   ECP group =>   1
Atom   8Au   ECP group =>   1
Atom   9Au   ECP group =>   1
Atom  10Au   ECP group =>   1
Atom  11Au   ECP group =>   1



           ************************************************************
           *        Program running with 6 parallel MPI-processes     *
           *              working on a common directory               *
           ************************************************************
------------------------------------------------------------------------------
                           ORCA GTO INTEGRAL CALCULATION
                           -- RI-GTO INTEGRALS CHOSEN --
------------------------------------------------------------------------------
------------------------------------------------------------------------------
                   ___                                                        
                  /   \      - P O W E R E D   B Y -                         
                 /     \                                                     
                 |  |  |   _    _      __       _____    __    __             
                 |  |  |  | |  | |    /  \     |  _  \  |  |  /  |          
                  \  \/   | |  | |   /    \    | | | |  |  | /  /          
                 / \  \   | |__| |  /  /\  \   | |_| |  |  |/  /          
                |  |  |   |  __  | /  /__\  \  |    /   |      \           
                |  |  |   | |  | | |   __   |  |    \   |  |\   \          
                \     /   | |  | | |  |  |  |  | |\  \  |  | \   \       
                 \___/    |_|  |_| |__|  |__|  |_| \__\ |__|  \__/        
                                                                              
                      - O R C A' S   B I G   F R I E N D -                    
                                      &                                       
                       - I N T E G R A L  F E E D E R -                       
                                                                              
 v1 FN, 2020, v2 2021                                                         
------------------------------------------------------------------------------


Reading SHARK input file scan.SHARKINP.tmp ... ok
----------------------
SHARK INTEGRAL PACKAGE
----------------------

Number of atoms                             ...     13
Number of basis functions                   ...    525
Number of shells                            ...    183
Maximum angular momentum                    ...      3
Integral batch strategy                     ... SHARK/LIBINT Hybrid
RI-J (if used) integral strategy            ... SPLIT-RIJ (Revised 2003 algorithm where possible)
Printlevel                                  ...      1
Contraction scheme used                     ... SEGMENTED contraction
Coulomb Range Separation                    ... NOT USED
Exchange Range Separation                   ... NOT USED
Finite Nucleus Model                        ... NOT USED
Auxiliary Coulomb fitting basis             ... AVAILABLE
   # of basis functions in Aux-J            ...   1157
   # of shells in Aux-J                     ...    299
   Maximum angular momentum in Aux-J        ...      4
Auxiliary J/K fitting basis                 ... NOT available
Auxiliary Correlation fitting basis         ... NOT available
Auxiliary 'external' fitting basis          ... NOT available
Integral threshold                          ...     1.000000e-10
Primitive cut-off                           ...     1.000000e-11
Primitive pair pre-selection threshold      ...     1.000000e-11

Calculating pre-screening integrals         ... done (  0.2 sec) Dimension = 183
Organizing shell pair data                  ... done (  0.5 sec)
Shell pair information
Total number of shell pairs                 ...     16836
Shell pairs after pre-screening             ...     13495
Total number of primitive shell pairs       ...     45389
Primitive shell pairs kept                  ...     26528
          la=0 lb=0:   2122 shell pairs
          la=1 lb=0:   3083 shell pairs
          la=1 lb=1:   1170 shell pairs
          la=2 lb=0:   2661 shell pairs
          la=2 lb=1:   1886 shell pairs
          la=2 lb=2:    778 shell pairs
          la=3 lb=0:    717 shell pairs
          la=3 lb=1:    543 shell pairs
          la=3 lb=2:    462 shell pairs
          la=3 lb=3:     73 shell pairs

Calculating one electron integrals          ... done (  0.1 sec)
Calculating ECP integrals                   ... done ( 14.2 sec)
Calculating RI/J V-Matrix + Cholesky decomp.... done (  0.1 sec)
Calculating Nuclear repulsion               ... done (  0.0 sec) ENN=   4308.025177322059 Eh

SHARK setup successfully completed in  15.8 seconds

Maximum memory used throughout the entire GTOINT-calculation: 30.5 MB


           ************************************************************
           *        Program running with 6 parallel MPI-processes     *
           *              working on a common directory               *
           ************************************************************
-------------------------------------------------------------------------------
                                 ORCA SCF
-------------------------------------------------------------------------------

------------
SCF SETTINGS
------------
Hamiltonian:
 Density Functional     Method          .... DFT(GTOs)
  Functional kind                       .... Exchange
  Functional name                       .... Re-regularized SCAN exchange by Furness et al
  Functional family                     .... MGGA
  Functional refs                              
    [ 0] J. W. Furness, A. D. Kaplan, J. Ning, J. P. Perdew, and J. Sun, J. Phys. Chem. Lett. 11, 8208 (2020)
    [ 1] J. W. Furness, A. D. Kaplan, J. Ning, J. P. Perdew, and J. Sun, J. Phys. Chem. Lett. 11, 9248 (2020)
  Functional external parameters         .... 8
 Parameter  0 :         c1 parameter
 Parameter  1 :         c2 parameter
 Parameter  2 :          d parameter
 Parameter  3 :         k1 parameter
 Parameter  4 :       taur parameter
 Parameter  5 :     alphar parameter
 Parameter  6 :        eta parameter
 Parameter  7 :        dp2 parameter
  Functional kind                       .... Correlation
  Functional name                       .... Re-regularized SCAN correlation by Furness et al
  Functional family                     .... MGGA
  Functional refs                              
    [ 0] J. W. Furness, A. D. Kaplan, J. Ning, J. P. Perdew, and J. Sun, J. Phys. Chem. Lett. 11, 8208 (2020)
    [ 1] J. W. Furness, A. D. Kaplan, J. Ning, J. P. Perdew, and J. Sun, J. Phys. Chem. Lett. 11, 9248 (2020)
  Functional external parameters         .... 0
 Gradients option       PostSCFGGA      .... off
   Density functional embedding theory  .... OFF
   NL short-range parameter             .... 12.300000
 RI-approximation to the Coulomb term is turned on
   Number of AuxJ basis functions       .... 1157


General Settings:
 Integral files         IntName         .... scan
 Hartree-Fock type      HFTyp           .... UHF
 Total Charge           Charge          ....    0
 Multiplicity           Mult            ....    6
 Number of Electrons    NEL             ....  253
 Basis Dimension        Dim             ....  525
 Nuclear Repulsion      ENuc            ....   4308.0251773221 Eh

Convergence Acceleration:
 DIIS                   CNVDIIS         .... off
 Trust-Rad. Augm. Hess. CNVTRAH         .... auto
   Auto Start mean grad. ratio tolernc. ....  1.125000
   Auto Start start iteration           ....   200
   Auto Start num. interpolation iter.  ....    10
   Max. Number of Micro iterations      ....    16
   Max. Number of Macro iterations      .... Maxiter - #DIIS iter
   Number of Davidson start vectors     ....     2
   Converg. threshold I  (grad. norm)   ....   5.000e-05
   Converg. threshold II (energy diff.) ....   1.000e-06
   Grad. Scal. Fac. for Micro threshold ....   0.100
   Minimum threshold for Micro iter.    ....   0.010
   NR start threshold (gradient norm)   ....   0.001
   Initial trust radius                 ....   0.400
   Minimum AH scaling param. (alpha)    ....   1.000
   Maximum AH scaling param. (alpha)    .... 1000.000
   Orbital update algorithm             .... Taylor
   White noise on init. David. guess    .... on
   Maximum white noise                  ....   0.010
   Quad. conv. algorithm                .... NR
 SOSCF                  CNVSOSCF        .... off
 Level Shifting         CNVShift        .... off
 Zerner damping         CNVZerner       .... off
 Static damping         CNVDamp         .... off
 Fernandez-Rico         CNVRico         .... off

SCF Procedure:
 Maximum # iterations   MaxIter         ....   400
 SCF integral mode      SCFMode         .... Direct
   Integral package                     .... SHARK and LIBINT hybrid scheme
 Reset frequency        DirectResetFreq ....    20
 Integral Threshold     Thresh          ....  1.000e-10 Eh
 Primitive CutOff       TCut            ....  1.000e-11 Eh

Convergence Tolerance:
 Convergence Check Mode ConvCheckMode   .... All-Criteria
 Convergence forced     ConvForced      .... 0
 Energy Change          TolE            ....  1.000e-06 Eh
 Max Density Change     TolMaxP         ....  1.000e-05
 RMS Density Change     TolRMSP         ....  1.000e-06


Diagonalization of the overlap matrix:
Smallest eigenvalue                        ... 3.350e-04
Time for diagonalization                   ...    0.107 sec
Threshold for overlap eigenvalues          ... 1.000e-08
Number of eigenvalues below threshold      ... 0
Time for construction of square roots      ...    0.076 sec
Total time needed                          ...    0.186 sec

Time for model grid setup =    0.813 sec

------------------------------
INITIAL GUESS: MODEL POTENTIAL
------------------------------
Loading Hartree-Fock densities                     ... done
  calling /home/ehlert/src/miniconda3/envs/orca500/Programs/ORCA501/orca scan_atom79.inp > scan_atom79.out in order to generate an atomic fitting density for atom 0 (Au with ECP) on-the-fly... 
    atom 0 (Au), assumed electronic state with S=2: 1s2 2s2 2p6 3s2 3p6 4s2 3d10 4p6 5s2 4d10 5p6 6s1 4f14 5d10           ... done
Calculating cut-offs                               ... done
Initializing the effective Hamiltonian             ... done
Setting up the integral package (SHARK)            ... done
Starting the Coulomb interaction                   ... done (   0.8 sec)
Reading the grid                                   ... done
Mapping shells                                     ... done
Starting the XC term evaluation                    ... done (   0.8 sec)
  promolecular density results
     # of electrons  =    973.013310962
     EX              =  -4440.458002404
     EC              =    -59.198363672
     EX+EC           =  -4499.656366075
Transforming the Hamiltonian                       ... done (   0.1 sec)
Diagonalizing the Hamiltonian                      ... done (   0.1 sec)
Back transforming the eigenvectors                 ... done (   0.0 sec)
Now organizing SCF variables                       ... done
                      ------------------
                      INITIAL GUESS DONE (   3.8 sec)
                      ------------------
-------------------
DFT GRID GENERATION
-------------------

General Integration Accuracy     IntAcc      ... 4.388
Radial Grid Type                 RadialGrid  ... OptM3 with GC (2021)
Angular Grid (max. ang.)         AngularGrid ... 4 (Lebedev-302)
Angular grid pruning method      GridPruning ... 4 (adaptive)
Weight generation scheme         WeightScheme... Becke
Basis function cutoff            BFCut       ... 1.0000e-10
Integration weight cutoff        WCut        ... 1.0000e-14
Angular grids for H and He will be reduced by one unit
Partially contracted basis set               ... off
Rotationally invariant grid construction     ... off

Total number of grid points                  ...   144808
Total number of batches                      ...     2270
Average number of points per batch           ...       63
Average number of grid points per atom       ...    11139
Time for grid setup =    2.585 sec

--------------
SCF ITERATIONS
--------------
ITER       Energy         Delta-E        Max-DP      RMS-DP      [F,P]   Gradient Norm
               ***  Starting incremental Fock matrix formation  ***
                             ****Resetting KDIIS****
                             ****Turning on KDIIS(Cayley)****
  0  -2779.1426303888   0.000000000000 0.18405044  0.00130184  0.3934726   0.221101613
  1  -2780.1947997226  -1.052169333799 0.52471550  0.00161212  0.3521842   0.169652390
  2  -2780.6548082280  -0.460008505337 0.12578761  0.00124542  0.2786522   0.128149612
  3  -2780.9043731799  -0.249564951918 0.16973024  0.00154934  0.1629503   0.074326104
  4  -2780.9988954982  -0.094522318297 0.07065142  0.00050465  0.0407473   0.018735148
  5  -2781.0310154687  -0.032119970490 0.14400618  0.00051560  0.0181372   0.007163847
  6  -2781.0468488351  -0.015833366474 0.03456401  0.00033648  0.0212996   0.004830489
  7  -2781.0578683445  -0.011019509328 0.01695318  0.00020631  0.0157653   0.004107748
  8  -2781.0643309691  -0.006462624605 0.01719637  0.00010082  0.0179228   0.004436065
  9  -2781.0676782794  -0.003347310365 0.00690923  0.00006116  0.0215541   0.002399917
 10  -2781.0700881722  -0.002409892808 0.00870627  0.00003383  0.0225774   0.002662926
 11  -2781.0708129296  -0.000724757363 0.01267705  0.00007789  0.0216271   0.003020555
 12  -2781.0723183987  -0.001505469073 0.01903401  0.00008247  0.0247119   0.003503443
 13  -2781.0710839080   0.001234490711 0.00564842  0.00006701  0.0238110   0.003457335
 14  -2781.0709000807   0.000183827263 0.05829911  0.00024479  0.0234582   0.003671051
 15  -2781.0785059953  -0.007605914595 0.03136485  0.00013969  0.0185447   0.004520165
 16  -2781.0832008855  -0.004694890246 0.00251944  0.00002511  0.0231626   0.002766013
 17  -2781.0820350846   0.001165800923 0.02368996  0.00023111  0.0227196   0.003012327
 18  -2781.0704176513   0.011617433324 0.04704744  0.00019683  0.0238595   0.004205509
 19  -2781.0639673708   0.006450280547 0.01789171  0.00027802  0.0181614   0.005175810
               *** Restarting incremental Fock matrix formation ***
                             ****Resetting KDIIS****
 20  -2781.0747894536  -0.010822082861 0.00835718  0.00004553  0.0212800   0.005148004
 21  -2781.0769111540  -0.002121700420 0.00357450  0.00004928  0.0216161   0.003805072
 22  -2781.0794955971  -0.002584443094 0.00605838  0.00007439  0.0225548   0.003287599
 23  -2781.0831336023  -0.003638005187 0.03948169  0.00052375  0.0241976   0.002775350
 24  -2781.0569419672   0.026191635072 0.06849753  0.00092211  0.0190523   0.006264015
 25  -2781.0129455475   0.043996419721 0.10505799  0.00152737  0.0462708   0.018446527
 26  -2781.0949232342  -0.081977686721 0.01736366  0.00023914  0.0223993   0.005078143
 27  -2781.0864721912   0.008451043071 0.04360783  0.00050938  0.0205183   0.005242005
 28  -2781.1087873734  -0.022315182183 0.02778780  0.00024326  0.0190902   0.007666163
 29  -2781.1186821600  -0.009894786673 0.06305203  0.00088839  0.0139046   0.005554392
 30  -2781.0790373900   0.039644770052 0.08172471  0.00106602  0.0913029   0.018180098
 31  -2781.1101701851  -0.031132795080 0.04209875  0.00068159  0.0152678   0.006192526
 32  -2781.1281394196  -0.017969234515 0.02945247  0.00028257  0.0088027   0.004835156
 33  -2781.1282488612  -0.000109441608 0.01024797  0.00010190  0.0067423   0.003485527
 34  -2781.1299874157  -0.001738554531 0.01002014  0.00007040  0.0053836   0.002429370
 35  -2781.1308010183  -0.000813602582 0.01439614  0.00018700  0.0052748   0.001487267
 36  -2781.1310620839  -0.000261065561 0.00984443  0.00011294  0.0069634   0.002317464
 37  -2781.1317227064  -0.000660622544 0.00383774  0.00003284  0.0023579   0.000976492
 38  -2781.1318472611  -0.000124554705 0.00281891  0.00003909  0.0016662   0.000554654
 39  -2781.1319336321  -0.000086370953 0.00235108  0.00001554  0.0010085   0.000350800
               *** Restarting incremental Fock matrix formation ***
                             ****Resetting KDIIS****
 40  -2781.1319430932  -0.000009461123 0.00058836  0.00000308  0.0008086   0.000340301
 41  -2781.1319520083  -0.000008915114 0.00028888  0.00000251  0.0006879   0.000225177
 42  -2781.1319537510  -0.000001742681 0.00039369  0.00000446  0.0006912   0.000185081
 43  -2781.1319598735  -0.000006122504 0.00195416  0.00002633  0.0005615   0.000131643
 44  -2781.1319698652  -0.000009991717 0.00127170  0.00000893  0.0003928   0.000152781
                          ***Energy convergence achieved***
 45  -2781.1319701129  -0.000000247664 0.00057002  0.00000700  0.0003674   0.000041998
 46  -2781.1319706827  -0.000000569863 0.00029077  0.00000342  0.0003392   0.000050058
 47  -2781.1319731229  -0.000002440216 0.00134277  0.00001677  0.0003191   0.000044547
 48  -2781.1319720835   0.000001039406 0.00108180  0.00001463  0.0002345   0.000088300
 49  -2781.1319771040  -0.000005020441 0.00072115  0.00000734  0.0001819   0.000039344
                          ***Energy convergence achieved***
 50  -2781.1319769145   0.000000189493 0.00053663  0.00000648  0.0001401   0.000042844
 51  -2781.1319794221  -0.000002507619 0.00035698  0.00000320  0.0001102   0.000036191
                          ***Energy convergence achieved***
 52  -2781.1319800137  -0.000000591557 0.00069325  0.00000765  0.0001046   0.000027997
 53  -2781.1319806218  -0.000000608125 0.00053491  0.00000536  0.0000715   0.000036272
 54  -2781.1319835021  -0.000002880320 0.00054565  0.00000640  0.0000952   0.000033303
 55  -2781.1319806927   0.000002809441 0.00059246  0.00000623  0.0000684   0.000037763
                           ***RMSP convergence achieved***
 56  -2781.1319834521  -0.000002759404 0.00008543  0.00000083  0.0000484   0.000023665
                          ***Energy convergence achieved***
 57  -2781.1319830397   0.000000412330 0.00007377  0.00000081  0.0000481   0.000018649
 58  -2781.1319831594  -0.000000119712 0.00015960  0.00000128  0.0000453   0.000012879
                           ***RMSP convergence achieved***
 59  -2781.1319839513  -0.000000791892 0.00029324  0.00000095  0.0000425   0.000009869
               *** Restarting incremental Fock matrix formation ***
                             ****Resetting KDIIS****

            ***Energy convergence in two consecutive cycles with***
                    ***'reasonable' density convergence***
                       *** signaling convergence ***

                    *** KDIIS BlockDiag ( 0.271 sec) ***

               *****************************************************
               *                     SUCCESS                       *
               *           SCF CONVERGED AFTER  60 CYCLES          *
               *****************************************************


----------------
TOTAL SCF ENERGY
----------------

Total Energy       :        -2781.13198389 Eh          -75678.44870 eV

Components:
Nuclear Repulsion  :         4308.02517732 Eh          117227.32480 eV
Electronic Energy  :        -7089.15716121 Eh         -192905.77350 eV
One Electron Energy:       -13059.62555227 Eh         -355370.47796 eV
Two Electron Energy:         5970.46839106 Eh          162464.70447 eV

Virial components:
Potential Energy   :        -4480.90157994 Eh         -121931.53087 eV
Kinetic Energy     :         1699.76959605 Eh           46253.08217 eV
Virial Ratio       :            2.63618175


DFT components:
N(Alpha)           :      129.000017321620 electrons
N(Beta)            :      124.000018129544 electrons
N(Total)           :      253.000035451163 electrons
E(X)               :     -196.761151961886 Eh       
E(C)               :      -10.476634433318 Eh       
E(XC)              :     -207.237786395204 Eh       
DFET-embed. en.    :        0.000000000000 Eh       

---------------
SCF CONVERGENCE
---------------

  Last Energy change         ...    6.2206e-08  Tolerance :   1.0000e-06
  Last MAX-Density change    ...    2.2304e-05  Tolerance :   1.0000e-05
  Last RMS-Density change    ...    9.4745e-08  Tolerance :   1.0000e-06

             **** THE GBW FILE WAS UPDATED (scan.gbw) ****
             **** DENSITY scan.scfp WAS UPDATED ****
             **** ENERGY FILE WAS UPDATED (scan.en.tmp) ****
----------------------
UHF SPIN CONTAMINATION
----------------------

Warning: in a DFT calculation there is little theoretical justification to 
         calculate <S**2> as in Hartree-Fock theory. We will do it anyways
         but you should keep in mind that the values have only limited relevance

Expectation value of <S**2>     :     9.378323
Ideal value S*(S+1) for S=2.5   :     8.750000
Deviation                       :     0.628323

             **** THE GBW FILE WAS UPDATED (scan.gbw) ****
             **** DENSITY scan.scfp WAS UPDATED ****
----------------
ORBITAL ENERGIES
----------------
                 SPIN UP ORBITALS
  NO   OCC          E(Eh)            E(eV) 
   0   1.0000    -235.040209     -6395.7693 
   1   1.0000     -27.221211      -740.7268 
   2   1.0000     -23.268497      -633.1680 
   3   1.0000     -23.267844      -633.1502 
   4   1.0000     -23.267697      -633.1462 
   5   1.0000      -4.124595      -112.2359 
   6   1.0000      -4.122281      -112.1730 
   7   1.0000      -4.120022      -112.1115 
   8   1.0000      -4.118694      -112.0754 
   9   1.0000      -4.117089      -112.0317 
  10   1.0000      -4.116962      -112.0282 
  11   1.0000      -4.115732      -111.9948 
  12   1.0000      -4.115606      -111.9913 
  13   1.0000      -4.115587      -111.9908 
  14   1.0000      -4.113039      -111.9215 
  15   1.0000      -4.109145      -111.8155 
  16   1.0000      -4.108842      -111.8073 
  17   1.0000      -3.242111       -88.2223 
  18   1.0000      -2.315171       -62.9990 
  19   1.0000      -2.313814       -62.9621 
  20   1.0000      -2.310236       -62.8647 
  21   1.0000      -2.309880       -62.8550 
  22   1.0000      -2.308306       -62.8122 
  23   1.0000      -2.308056       -62.8054 
  24   1.0000      -2.308013       -62.8042 
  25   1.0000      -2.307931       -62.8020 
  26   1.0000      -2.307690       -62.7954 
  27   1.0000      -2.307615       -62.7934 
  28   1.0000      -2.305971       -62.7486 
  29   1.0000      -2.305877       -62.7461 
  30   1.0000      -2.304547       -62.7099 
  31   1.0000      -2.304419       -62.7064 
  32   1.0000      -2.303353       -62.6774 
  33   1.0000      -2.303345       -62.6772 
  34   1.0000      -2.303077       -62.6699 
  35   1.0000      -2.302816       -62.6628 
  36   1.0000      -2.302268       -62.6479 
  37   1.0000      -2.301943       -62.6391 
  38   1.0000      -2.300573       -62.6018 
  39   1.0000      -2.299742       -62.5792 
  40   1.0000      -2.298885       -62.5558 
  41   1.0000      -2.298379       -62.5421 
  42   1.0000      -2.297404       -62.5155 
  43   1.0000      -2.297261       -62.5116 
  44   1.0000      -2.296829       -62.4999 
  45   1.0000      -2.296653       -62.4951 
  46   1.0000      -2.296409       -62.4885 
  47   1.0000      -2.296096       -62.4799 
  48   1.0000      -2.295964       -62.4764 
  49   1.0000      -2.294247       -62.4296 
  50   1.0000      -2.293454       -62.4080 
  51   1.0000      -2.293176       -62.4005 
  52   1.0000      -2.292914       -62.3934 
  53   1.0000      -2.292514       -62.3825 
  54   1.0000      -2.100139       -57.1477 
  55   1.0000      -2.098701       -57.1086 
  56   1.0000      -2.097138       -57.0660 
  57   1.0000      -0.428554       -11.6616 
  58   1.0000      -0.396141       -10.7795 
  59   1.0000      -0.387393       -10.5415 
  60   1.0000      -0.380431       -10.3521 
  61   1.0000      -0.379429       -10.3248 
  62   1.0000      -0.376944       -10.2572 
  63   1.0000      -0.374703       -10.1962 
  64   1.0000      -0.372895       -10.1470 
  65   1.0000      -0.370035       -10.0692 
  66   1.0000      -0.366850        -9.9825 
  67   1.0000      -0.358555        -9.7568 
  68   1.0000      -0.355594        -9.6762 
  69   1.0000      -0.351106        -9.5541 
  70   1.0000      -0.348018        -9.4701 
  71   1.0000      -0.347658        -9.4603 
  72   1.0000      -0.346631        -9.4323 
  73   1.0000      -0.346403        -9.4261 
  74   1.0000      -0.344126        -9.3641 
  75   1.0000      -0.342944        -9.3320 
  76   1.0000      -0.339647        -9.2423 
  77   1.0000      -0.337076        -9.1723 
  78   1.0000      -0.331427        -9.0186 
  79   1.0000      -0.324630        -8.8336 
  80   1.0000      -0.324079        -8.8186 
  81   1.0000      -0.322985        -8.7889 
  82   1.0000      -0.322123        -8.7654 
  83   1.0000      -0.315645        -8.5891 
  84   1.0000      -0.313650        -8.5349 
  85   1.0000      -0.311178        -8.4676 
  86   1.0000      -0.310028        -8.4363 
  87   1.0000      -0.305635        -8.3168 
  88   1.0000      -0.302979        -8.2445 
  89   1.0000      -0.300904        -8.1880 
  90   1.0000      -0.300623        -8.1804 
  91   1.0000      -0.298003        -8.1091 
  92   1.0000      -0.295713        -8.0468 
  93   1.0000      -0.291960        -7.9446 
  94   1.0000      -0.289183        -7.8691 
  95   1.0000      -0.288656        -7.8547 
  96   1.0000      -0.287826        -7.8321 
  97   1.0000      -0.285018        -7.7557 
  98   1.0000      -0.282881        -7.6976 
  99   1.0000      -0.282006        -7.6738 
 100   1.0000      -0.281080        -7.6486 
 101   1.0000      -0.278485        -7.5780 
 102   1.0000      -0.277880        -7.5615 
 103   1.0000      -0.274939        -7.4815 
 104   1.0000      -0.274022        -7.4565 
 105   1.0000      -0.273600        -7.4450 
 106   1.0000      -0.272192        -7.4067 
 107   1.0000      -0.271143        -7.3782 
 108   1.0000      -0.270095        -7.3497 
 109   1.0000      -0.268959        -7.3187 
 110   1.0000      -0.268165        -7.2971 
 111   1.0000      -0.265722        -7.2307 
 112   1.0000      -0.265005        -7.2112 
 113   1.0000      -0.262299        -7.1375 
 114   1.0000      -0.259933        -7.0731 
 115   1.0000      -0.258734        -7.0405 
 116   1.0000      -0.258362        -7.0304 
 117   1.0000      -0.256025        -6.9668 
 118   1.0000      -0.253277        -6.8920 
 119   1.0000      -0.252037        -6.8583 
 120   1.0000      -0.250123        -6.8062 
 121   1.0000      -0.249077        -6.7777 
 122   1.0000      -0.244518        -6.6537 
 123   1.0000      -0.242306        -6.5935 
 124   1.0000      -0.242191        -6.5904 
 125   1.0000      -0.241422        -6.5694 
 126   1.0000      -0.222233        -6.0473 
 127   1.0000      -0.197687        -5.3793 
 128   1.0000      -0.190368        -5.1802 
 129   0.0000      -0.178957        -4.8697 
 130   0.0000      -0.138244        -3.7618 
 131   0.0000      -0.130105        -3.5403 
 132   0.0000      -0.126805        -3.4505 
 133   0.0000      -0.111980        -3.0471 
 134   0.0000      -0.099807        -2.7159 
 135   0.0000      -0.084951        -2.3116 
 136   0.0000      -0.058875        -1.6021 
 137   0.0000      -0.055233        -1.5030 
 138   0.0000      -0.045401        -1.2354 
 139   0.0000      -0.037966        -1.0331 
 140   0.0000      -0.028967        -0.7882 
 141   0.0000      -0.024478        -0.6661 
 142   0.0000      -0.022049        -0.6000 
 143   0.0000      -0.007961        -0.2166 
 144   0.0000       0.008347         0.2271 
 145   0.0000       0.011475         0.3122 
 146   0.0000       0.025097         0.6829 
 147   0.0000       0.025576         0.6960 
 148   0.0000       0.046739         1.2718 
 149   0.0000       0.051282         1.3955 
 150   0.0000       0.051928         1.4130 
 151   0.0000       0.053738         1.4623 
 152   0.0000       0.064559         1.7568 
 153   0.0000       0.067323         1.8320 
 154   0.0000       0.068019         1.8509 
 155   0.0000       0.076393         2.0788 
 156   0.0000       0.078748         2.1428 
 157   0.0000       0.081720         2.2237 
 158   0.0000       0.082268         2.2386 
 159   0.0000       0.088078         2.3967 
 160   0.0000       0.093631         2.5478 
 161   0.0000       0.099988         2.7208 
 162   0.0000       0.105927         2.8824 
 163   0.0000       0.113808         3.0969 
 164   0.0000       0.115823         3.1517 
 165   0.0000       0.124904         3.3988 
 166   0.0000       0.127195         3.4611 
 167   0.0000       0.142993         3.8910 
 168   0.0000       0.156762         4.2657 
 169   0.0000       0.160338         4.3630 
 170   0.0000       0.160986         4.3807 
 171   0.0000       0.163318         4.4441 
 172   0.0000       0.165361         4.4997 
 173   0.0000       0.172906         4.7050 
 174   0.0000       0.179576         4.8865 
 175   0.0000       0.181848         4.9483 
 176   0.0000       0.182334         4.9616 
 177   0.0000       0.189102         5.1457 
 178   0.0000       0.195620         5.3231 
 179   0.0000       0.208563         5.6753 
 180   0.0000       0.211994         5.7686 
 181   0.0000       0.227001         6.1770 
 182   0.0000       0.233021         6.3408 
 183   0.0000       0.236423         6.4334 
 184   0.0000       0.243014         6.6128 
 185   0.0000       0.243573         6.6279 
 186   0.0000       0.249983         6.8024 
 187   0.0000       0.256384         6.9766 
 188   0.0000       0.256762         6.9869 
 189   0.0000       0.264716         7.2033 
 190   0.0000       0.273228         7.4349 
 191   0.0000       0.279624         7.6090 
 192   0.0000       0.282344         7.6830 
 193   0.0000       0.284001         7.7281 
 194   0.0000       0.290401         7.9022 
 195   0.0000       0.293975         7.9995 
 196   0.0000       0.296229         8.0608 
 197   0.0000       0.298681         8.1275 
 198   0.0000       0.301750         8.2110 
 199   0.0000       0.302437         8.2297 
 200   0.0000       0.319358         8.6902 
 201   0.0000       0.321421         8.7463 
 202   0.0000       0.327820         8.9204 
 203   0.0000       0.329262         8.9597 
 204   0.0000       0.338595         9.2136 
 205   0.0000       0.347144         9.4463 
 206   0.0000       0.348416         9.4809 
 207   0.0000       0.351465         9.5638 
 208   0.0000       0.358359         9.7514 
 209   0.0000       0.369670        10.0592 
 210   0.0000       0.372841        10.1455 
 211   0.0000       0.377343        10.2680 
 212   0.0000       0.380761        10.3610 
 213   0.0000       0.386026        10.5043 
 214   0.0000       0.386908        10.5283 
 215   0.0000       0.394244        10.7279 
 216   0.0000       0.394754        10.7418 
 217   0.0000       0.409558        11.1447 
 218   0.0000       0.410806        11.1786 
 219   0.0000       0.411607        11.2004 
 220   0.0000       0.413923        11.2634 
 221   0.0000       0.427324        11.6281 
 222   0.0000       0.433964        11.8088 
 223   0.0000       0.441995        12.0273 
 224   0.0000       0.443307        12.0630 
 225   0.0000       0.453182        12.3317 
 226   0.0000       0.453717        12.3463 
 227   0.0000       0.456656        12.4262 
 228   0.0000       0.461614        12.5612 
 229   0.0000       0.474069        12.9001 
 230   0.0000       0.476215        12.9585 
 231   0.0000       0.489493        13.3198 
 232   0.0000       0.494651        13.4601 
 233   0.0000       0.496282        13.5045 
 234   0.0000       0.498364        13.5612 
 235   0.0000       0.501205        13.6385 
 236   0.0000       0.507027        13.7969 
 237   0.0000       0.509058        13.8522 
 238   0.0000       0.518892        14.1198 
 239   0.0000       0.526936        14.3386 
 240   0.0000       0.530180        14.4269 
 241   0.0000       0.532434        14.4883 
 242   0.0000       0.542107        14.7515 
 243   0.0000       0.545609        14.8468 
 244   0.0000       0.545754        14.8507 
 245   0.0000       0.555451        15.1146 
 246   0.0000       0.564426        15.3588 
 247   0.0000       0.566503        15.4153 
 248   0.0000       0.568085        15.4584 
 249   0.0000       0.585028        15.9194 
 250   0.0000       0.595364        16.2007 
 251   0.0000       0.595981        16.2175 
 252   0.0000       0.626295        17.0423 
 253   0.0000       0.657746        17.8982 
 254   0.0000       0.675926        18.3929 
 255   0.0000       0.686868        18.6906 
 256   0.0000       0.697257        18.9733 
 257   0.0000       0.708854        19.2889 
 258   0.0000       0.727482        19.7958 
 259   0.0000       0.732864        19.9422 
 260   0.0000       0.748479        20.3671 
 261   0.0000       0.751860        20.4591 
 262   0.0000       0.752869        20.4866 
 263   0.0000       0.766739        20.8640 
 264   0.0000       0.774623        21.0786 
 265   0.0000       0.793535        21.5932 
 266   0.0000       0.808510        22.0007 
 267   0.0000       0.817306        22.2400 
 268   0.0000       0.820767        22.3342 
 269   0.0000       0.833066        22.6689 
 270   0.0000       0.835198        22.7269 
 271   0.0000       0.839898        22.8548 
 272   0.0000       0.849337        23.1116 
 273   0.0000       0.853927        23.2365 
 274   0.0000       0.866037        23.5661 
 275   0.0000       0.879084        23.9211 
 276   0.0000       0.893998        24.3269 
 277   0.0000       0.901188        24.5226 
 278   0.0000       0.908715        24.7274 
 279   0.0000       0.913968        24.8703 
 280   0.0000       0.922114        25.0920 
 281   0.0000       0.950575        25.8665 
 282   0.0000       0.962696        26.1963 
 283   0.0000       0.967299        26.3215 
 284   0.0000       0.997003        27.1298 
 285   0.0000       1.010461        27.4961 
 286   0.0000       1.015656        27.6374 
 287   0.0000       1.042746        28.3746 
 288   0.0000       1.103448        30.0263 
 289   0.0000       1.148034        31.2396 
 290   0.0000       1.163439        31.6588 
 291   0.0000       1.183810        32.2131 
 292   0.0000       1.219808        33.1927 
 293   0.0000       1.254340        34.1323 
 294   0.0000       1.256758        34.1981 
 295   0.0000       1.270623        34.5754 
 296   0.0000       1.279474        34.8163 
 297   0.0000       1.310437        35.6588 
 298   0.0000       1.322280        35.9811 
 299   0.0000       1.346658        36.6444 
 300   0.0000       1.352827        36.8123 
 301   0.0000       1.358916        36.9780 
 302   0.0000       1.376064        37.4446 
 303   0.0000       1.377603        37.4865 
 304   0.0000       1.385835        37.7105 
 305   0.0000       1.390104        37.8267 
 306   0.0000       1.402453        38.1627 
 307   0.0000       1.426325        38.8123 
 308   0.0000       1.428304        38.8661 
 309   0.0000       1.437064        39.1045 
 310   0.0000       1.446460        39.3602 
 311   0.0000       1.446630        39.3648 
 312   0.0000       1.452358        39.5207 
 313   0.0000       1.456047        39.6210 
 314   0.0000       1.458888        39.6984 
 315   0.0000       1.463673        39.8286 
 316   0.0000       1.468060        39.9479 
 317   0.0000       1.470141        40.0046 
 318   0.0000       1.480825        40.2953 
 319   0.0000       1.481549        40.3150 
 320   0.0000       1.486563        40.4514 
 321   0.0000       1.487106        40.4662 
 322   0.0000       1.492543        40.6141 
 323   0.0000       1.492970        40.6258 
 324   0.0000       1.496665        40.7263 
 325   0.0000       1.503991        40.9257 
 326   0.0000       1.508505        41.0485 
 327   0.0000       1.510500        41.1028 
 328   0.0000       1.514110        41.2010 
 329   0.0000       1.518386        41.3174 
 330   0.0000       1.525812        41.5194 
 331   0.0000       1.528839        41.6018 
 332   0.0000       1.530343        41.6428 
 333   0.0000       1.533023        41.7157 
 334   0.0000       1.534572        41.7578 
 335   0.0000       1.535546        41.7843 
 336   0.0000       1.535833        41.7921 
 337   0.0000       1.541972        41.9592 
 338   0.0000       1.544306        42.0227 
 339   0.0000       1.544927        42.0396 
 340   0.0000       1.546835        42.0915 
 341   0.0000       1.547836        42.1187 
 342   0.0000       1.548836        42.1460 
 343   0.0000       1.552043        42.2332 
 344   0.0000       1.552988        42.2589 
 345   0.0000       1.557130        42.3717 
 346   0.0000       1.557183        42.3731 
 347   0.0000       1.561061        42.4786 
 348   0.0000       1.562302        42.5124 
 349   0.0000       1.563419        42.5428 
 350   0.0000       1.564970        42.5850 
 351   0.0000       1.566626        42.6300 
 352   0.0000       1.568007        42.6676 
 353   0.0000       1.569561        42.7099 
 354   0.0000       1.571986        42.7759 
 355   0.0000       1.572376        42.7865 
 356   0.0000       1.574778        42.8519 
 357   0.0000       1.577135        42.9160 
 358   0.0000       1.577799        42.9341 
 359   0.0000       1.580002        42.9940 
 360   0.0000       1.582870        43.0721 
 361   0.0000       1.584667        43.1210 
 362   0.0000       1.586558        43.1724 
 363   0.0000       1.587258        43.1915 
 364   0.0000       1.589595        43.2551 
 365   0.0000       1.593779        43.3689 
 366   0.0000       1.595634        43.4194 
 367   0.0000       1.600824        43.5606 
 368   0.0000       1.601151        43.5695 
 369   0.0000       1.601735        43.5854 
 370   0.0000       1.602530        43.6071 
 371   0.0000       1.605526        43.6886 
 372   0.0000       1.608881        43.7799 
 373   0.0000       1.610311        43.8188 
 374   0.0000       1.611615        43.8543 
 375   0.0000       1.612792        43.8863 
 376   0.0000       1.614483        43.9323 
 377   0.0000       1.615391        43.9570 
 378   0.0000       1.618524        44.0423 
 379   0.0000       1.619371        44.0653 
 380   0.0000       1.622382        44.1473 
 381   0.0000       1.624674        44.2096 
 382   0.0000       1.627091        44.2754 
 383   0.0000       1.627590        44.2890 
 384   0.0000       1.631381        44.3921 
 385   0.0000       1.634221        44.4694 
 386   0.0000       1.636992        44.5448 
 387   0.0000       1.639347        44.6089 
 388   0.0000       1.639963        44.6257 
 389   0.0000       1.640128        44.6302 
 390   0.0000       1.641574        44.6695 
 391   0.0000       1.648021        44.8449 
 392   0.0000       1.653544        44.9952 
 393   0.0000       1.655467        45.0475 
 394   0.0000       1.662436        45.2372 
 395   0.0000       1.664263        45.2869 
 396   0.0000       1.667444        45.3735 
 397   0.0000       1.670339        45.4522 
 398   0.0000       1.671009        45.4705 
 399   0.0000       1.677262        45.6406 
 400   0.0000       1.678423        45.6722 
 401   0.0000       1.685998        45.8783 
 402   0.0000       1.689420        45.9714 
 403   0.0000       1.691204        46.0200 
 404   0.0000       1.699614        46.2488 
 405   0.0000       1.700974        46.2859 
 406   0.0000       1.701771        46.3076 
 407   0.0000       1.712848        46.6090 
 408   0.0000       1.714250        46.6471 
 409   0.0000       1.730859        47.0991 
 410   0.0000       1.736722        47.2586 
 411   0.0000       1.743376        47.4397 
 412   0.0000       1.750481        47.6330 
 413   0.0000       1.753206        47.7072 
 414   0.0000       1.769929        48.1622 
 415   0.0000       1.786207        48.6052 
 416   0.0000       1.792341        48.7721 
 417   0.0000       1.806282        49.1514 
 418   0.0000       1.811231        49.2861 
 419   0.0000       1.815874        49.4125 
 420   0.0000       1.828180        49.7473 
 421   0.0000       1.838890        50.0387 
 422   0.0000       1.853787        50.4441 
 423   0.0000       1.865677        50.7677 
 424   0.0000       1.872776        50.9608 
 425   0.0000       1.881509        51.1985 
 426   0.0000       1.894567        51.5538 
 427   0.0000       1.909926        51.9717 
 428   0.0000       1.935039        52.6551 
 429   0.0000       1.942528        52.8589 
 430   0.0000       1.968839        53.5748 
 431   0.0000       1.974151        53.7194 
 432   0.0000       1.988011        54.0965 
 433   0.0000       1.998628        54.3854 
 434   0.0000       2.000809        54.4448 
 435   0.0000       2.020135        54.9707 
 436   0.0000       2.106308        57.3155 
 437   0.0000       2.195319        59.7377 
 438   0.0000       2.203061        59.9483 
 439   0.0000       2.262934        61.5776 
 440   0.0000       2.313023        62.9406 
 441   0.0000       2.363509        64.3144 
 442   0.0000       2.381442        64.8023 
 443   0.0000       2.404888        65.4403 
 444   0.0000       2.477210        67.4083 
 445   0.0000       2.478919        67.4548 
 446   0.0000       2.495591        67.9085 
 447   0.0000       2.539005        69.0898 
 448   0.0000       2.578195        70.1563 
 449   0.0000       2.582963        70.2860 
 450   0.0000       2.602034        70.8049 
 451   0.0000       2.660237        72.3887 
 452   0.0000       3.172493        86.3279 
 453   0.0000       3.273397        89.0737 
 454   0.0000       3.310316        90.0783 
 455   0.0000       3.326243        90.5117 
 456   0.0000       3.327057        90.5338 
 457   0.0000       3.337592        90.8205 
 458   0.0000       3.343291        90.9756 
 459   0.0000       3.354308        91.2754 
 460   0.0000       3.362580        91.5005 
 461   0.0000       3.484792        94.8260 
 462   0.0000       3.523598        95.8820 
 463   0.0000       3.547318        96.5274 
 464   0.0000       3.689092       100.3853 
 465   0.0000      24.089414       655.5063 
 466   0.0000      24.130461       656.6232 
 467   0.0000      24.202852       658.5931 
 468   0.0000      24.306997       661.4270 
 469   0.0000      24.495475       666.5558 
 470   0.0000      24.652359       670.8248 
 471   0.0000      24.752891       673.5604 
 472   0.0000      25.233238       686.6313 
 473   0.0000      25.326921       689.1806 
 474   0.0000      25.520027       694.4352 
 475   0.0000      25.606868       696.7983 
 476   0.0000      25.851067       703.4433 
 477   0.0000      25.949740       706.1283 
 478   0.0000      26.076776       709.5851 
 479   0.0000      26.196631       712.8466 
 480   0.0000      26.237642       713.9625 
 481   0.0000      26.318637       716.1665 
 482   0.0000      26.381621       717.8804 
 483   0.0000      26.547147       722.3846 
 484   0.0000      26.560819       722.7566 
 485   0.0000      26.806301       729.4365 
 486   0.0000      26.852287       730.6879 
 487   0.0000      26.956613       733.5267 
 488   0.0000      27.114431       737.8212 
 489   0.0000      27.238995       741.2107 
 490   0.0000      27.418120       746.0850 
 491   0.0000      27.465976       747.3872 
 492   0.0000      27.498278       748.2662 
 493   0.0000      27.800234       756.4828 
 494   0.0000      27.889522       758.9125 
 495   0.0000      27.928842       759.9824 
 496   0.0000      28.360238       771.7213 
 497   0.0000      28.764676       782.7266 
 498   0.0000      28.889030       786.1105 
 499   0.0000      29.882093       813.1331 
 500   0.0000      30.107282       819.2608 
 501   0.0000      44.373742      1207.4709 
 502   0.0000      44.438669      1209.2377 
 503   0.0000      44.476161      1210.2579 
 504   0.0000      44.507757      1211.1177 
 505   0.0000      44.558584      1212.5007 
 506   0.0000      44.559695      1212.5310 
 507   0.0000      44.584719      1213.2119 
 508   0.0000      44.626247      1214.3419 
 509   0.0000      44.643145      1214.8017 
 510   0.0000      44.658327      1215.2149 
 511   0.0000      44.697201      1216.2727 
 512   0.0000      44.768820      1218.2215 
 513   0.0000     205.247669      5585.0730 
 514   0.0000     205.274502      5585.8032 
 515   0.0000     205.288289      5586.1783 
 516   0.0000     205.302205      5586.5570 
 517   0.0000     205.324087      5587.1524 
 518   0.0000     205.328584      5587.2748 
 519   0.0000     205.332670      5587.3860 
 520   0.0000     205.350281      5587.8652 
 521   0.0000     205.354847      5587.9895 
 522   0.0000     205.363666      5588.2295 
 523   0.0000     205.379079      5588.6489 
 524   0.0000     205.403561      5589.3151 

                 SPIN DOWN ORBITALS
  NO   OCC          E(Eh)            E(eV) 
   0   1.0000    -235.039155     -6395.7406 
   1   1.0000     -27.134267      -738.3609 
   2   1.0000     -23.202105      -631.3614 
   3   1.0000     -23.202049      -631.3599 
   4   1.0000     -23.199725      -631.2966 
   5   1.0000      -4.123930      -112.2179 
   6   1.0000      -4.120219      -112.1169 
   7   1.0000      -4.118430      -112.0682 
   8   1.0000      -4.118325      -112.0653 
   9   1.0000      -4.115905      -111.9995 
  10   1.0000      -4.115791      -111.9964 
  11   1.0000      -4.114181      -111.9526 
  12   1.0000      -4.114173      -111.9523 
  13   1.0000      -4.113486      -111.9336 
  14   1.0000      -4.111957      -111.8920 
  15   1.0000      -4.108212      -111.7901 
  16   1.0000      -4.107903      -111.7817 
  17   1.0000      -3.034833       -82.5820 
  18   1.0000      -2.314249       -62.9739 
  19   1.0000      -2.311431       -62.8972 
  20   1.0000      -2.308928       -62.8291 
  21   1.0000      -2.308270       -62.8112 
  22   1.0000      -2.307475       -62.7896 
  23   1.0000      -2.307245       -62.7833 
  24   1.0000      -2.306603       -62.7659 
  25   1.0000      -2.306551       -62.7644 
  26   1.0000      -2.305494       -62.7357 
  27   1.0000      -2.305367       -62.7322 
  28   1.0000      -2.305087       -62.7246 
  29   1.0000      -2.302670       -62.6588 
  30   1.0000      -2.302646       -62.6582 
  31   1.0000      -2.302550       -62.6556 
  32   1.0000      -2.301536       -62.6280 
  33   1.0000      -2.301365       -62.6233 
  34   1.0000      -2.301282       -62.6211 
  35   1.0000      -2.300846       -62.6092 
  36   1.0000      -2.300577       -62.6019 
  37   1.0000      -2.300017       -62.5866 
  38   1.0000      -2.299472       -62.5718 
  39   1.0000      -2.298566       -62.5472 
  40   1.0000      -2.298122       -62.5351 
  41   1.0000      -2.297121       -62.5078 
  42   1.0000      -2.296141       -62.4812 
  43   1.0000      -2.296033       -62.4782 
  44   1.0000      -2.295844       -62.4731 
  45   1.0000      -2.295211       -62.4559 
  46   1.0000      -2.295155       -62.4543 
  47   1.0000      -2.294923       -62.4480 
  48   1.0000      -2.294844       -62.4459 
  49   1.0000      -2.293634       -62.4129 
  50   1.0000      -2.292355       -62.3782 
  51   1.0000      -2.292034       -62.3694 
  52   1.0000      -2.291617       -62.3581 
  53   1.0000      -2.291503       -62.3550 
  54   1.0000      -1.894251       -51.5452 
  55   1.0000      -1.894244       -51.5450 
  56   1.0000      -1.889929       -51.4276 
  57   1.0000      -0.420799       -11.4505 
  58   1.0000      -0.392504       -10.6806 
  59   1.0000      -0.378169       -10.2905 
  60   1.0000      -0.377163       -10.2631 
  61   1.0000      -0.373989       -10.1768 
  62   1.0000      -0.371989       -10.1223 
  63   1.0000      -0.365980        -9.9588 
  64   1.0000      -0.361725        -9.8431 
  65   1.0000      -0.361333        -9.8324 
  66   1.0000      -0.356143        -9.6911 
  67   1.0000      -0.352789        -9.5999 
  68   1.0000      -0.348048        -9.4709 
  69   1.0000      -0.346771        -9.4361 
  70   1.0000      -0.344638        -9.3781 
  71   1.0000      -0.344028        -9.3615 
  72   1.0000      -0.340891        -9.2761 
  73   1.0000      -0.340311        -9.2603 
  74   1.0000      -0.335790        -9.1373 
  75   1.0000      -0.334235        -9.0950 
  76   1.0000      -0.330670        -8.9980 
  77   1.0000      -0.327809        -8.9201 
  78   1.0000      -0.325093        -8.8462 
  79   1.0000      -0.323439        -8.8012 
  80   1.0000      -0.322160        -8.7664 
  81   1.0000      -0.318798        -8.6749 
  82   1.0000      -0.318405        -8.6642 
  83   1.0000      -0.311684        -8.4814 
  84   1.0000      -0.308418        -8.3925 
  85   1.0000      -0.305788        -8.3209 
  86   1.0000      -0.305212        -8.3052 
  87   1.0000      -0.301492        -8.2040 
  88   1.0000      -0.301012        -8.1909 
  89   1.0000      -0.298423        -8.1205 
  90   1.0000      -0.295614        -8.0441 
  91   1.0000      -0.293628        -7.9900 
  92   1.0000      -0.290857        -7.9146 
  93   1.0000      -0.287185        -7.8147 
  94   1.0000      -0.286779        -7.8037 
  95   1.0000      -0.286421        -7.7939 
  96   1.0000      -0.284808        -7.7500 
  97   1.0000      -0.281701        -7.6655 
  98   1.0000      -0.281443        -7.6585 
  99   1.0000      -0.279737        -7.6120 
 100   1.0000      -0.279433        -7.6038 
 101   1.0000      -0.277050        -7.5389 
 102   1.0000      -0.276393        -7.5210 
 103   1.0000      -0.273795        -7.4503 
 104   1.0000      -0.271759        -7.3950 
 105   1.0000      -0.270827        -7.3696 
 106   1.0000      -0.269356        -7.3295 
 107   1.0000      -0.268484        -7.3058 
 108   1.0000      -0.266885        -7.2623 
 109   1.0000      -0.264740        -7.2039 
 110   1.0000      -0.264468        -7.1965 
 111   1.0000      -0.259802        -7.0696 
 112   1.0000      -0.257581        -7.0091 
 113   1.0000      -0.257273        -7.0007 
 114   1.0000      -0.254875        -6.9355 
 115   1.0000      -0.252242        -6.8639 
 116   1.0000      -0.249981        -6.8023 
 117   1.0000      -0.248088        -6.7508 
 118   1.0000      -0.247518        -6.7353 
 119   1.0000      -0.243146        -6.6163 
 120   1.0000      -0.242941        -6.6108 
 121   1.0000      -0.225509        -6.1364 
 122   1.0000      -0.202730        -5.5166 
 123   1.0000      -0.202377        -5.5070 
 124   0.0000      -0.190201        -5.1756 
 125   0.0000      -0.139649        -3.8000 
 126   0.0000      -0.132743        -3.6121 
 127   0.0000      -0.125805        -3.4233 
 128   0.0000      -0.119951        -3.2640 
 129   0.0000      -0.113551        -3.0899 
 130   0.0000      -0.108073        -2.9408 
 131   0.0000      -0.104699        -2.8490 
 132   0.0000      -0.100988        -2.7480 
 133   0.0000      -0.100811        -2.7432 
 134   0.0000      -0.088651        -2.4123 
 135   0.0000      -0.066407        -1.8070 
 136   0.0000      -0.051094        -1.3903 
 137   0.0000      -0.049700        -1.3524 
 138   0.0000      -0.043317        -1.1787 
 139   0.0000      -0.029015        -0.7895 
 140   0.0000      -0.025042        -0.6814 
 141   0.0000      -0.020516        -0.5583 
 142   0.0000      -0.013501        -0.3674 
 143   0.0000      -0.000530        -0.0144 
 144   0.0000       0.011959         0.3254 
 145   0.0000       0.012104         0.3294 
 146   0.0000       0.028465         0.7746 
 147   0.0000       0.030633         0.8336 
 148   0.0000       0.051505         1.4015 
 149   0.0000       0.054816         1.4916 
 150   0.0000       0.056219         1.5298 
 151   0.0000       0.057591         1.5671 
 152   0.0000       0.067760         1.8438 
 153   0.0000       0.069018         1.8781 
 154   0.0000       0.072494         1.9727 
 155   0.0000       0.078725         2.1422 
 156   0.0000       0.080329         2.1859 
 157   0.0000       0.081008         2.2043 
 158   0.0000       0.084679         2.3042 
 159   0.0000       0.089801         2.4436 
 160   0.0000       0.095867         2.6087 
 161   0.0000       0.101066         2.7502 
 162   0.0000       0.108005         2.9390 
 163   0.0000       0.115941         3.1549 
 164   0.0000       0.121152         3.2967 
 165   0.0000       0.129577         3.5260 
 166   0.0000       0.130366         3.5474 
 167   0.0000       0.144635         3.9357 
 168   0.0000       0.160424         4.3654 
 169   0.0000       0.165617         4.5067 
 170   0.0000       0.168732         4.5914 
 171   0.0000       0.170127         4.6294 
 172   0.0000       0.170296         4.6340 
 173   0.0000       0.174791         4.7563 
 174   0.0000       0.185779         5.0553 
 175   0.0000       0.186032         5.0622 
 176   0.0000       0.189192         5.1482 
 177   0.0000       0.197820         5.3829 
 178   0.0000       0.199216         5.4210 
 179   0.0000       0.214770         5.8442 
 180   0.0000       0.216291         5.8856 
 181   0.0000       0.229999         6.2586 
 182   0.0000       0.235406         6.4057 
 183   0.0000       0.239292         6.5115 
 184   0.0000       0.245427         6.6784 
 185   0.0000       0.250813         6.8250 
 186   0.0000       0.253897         6.9089 
 187   0.0000       0.258305         7.0288 
 188   0.0000       0.262975         7.1559 
 189   0.0000       0.270186         7.3521 
 190   0.0000       0.274789         7.4774 
 191   0.0000       0.282692         7.6924 
 192   0.0000       0.284955         7.7540 
 193   0.0000       0.286113         7.7855 
 194   0.0000       0.290342         7.9006 
 195   0.0000       0.294859         8.0235 
 196   0.0000       0.297734         8.1018 
 197   0.0000       0.303282         8.2527 
 198   0.0000       0.303468         8.2578 
 199   0.0000       0.306940         8.3523 
 200   0.0000       0.321396         8.7456 
 201   0.0000       0.324480         8.8295 
 202   0.0000       0.329669         8.9708 
 203   0.0000       0.331370         9.0170 
 204   0.0000       0.339511         9.2386 
 205   0.0000       0.347976         9.4689 
 206   0.0000       0.351432         9.5630 
 207   0.0000       0.354220         9.6388 
 208   0.0000       0.361223         9.8294 
 209   0.0000       0.371773        10.1165 
 210   0.0000       0.374217        10.1830 
 211   0.0000       0.378240        10.2924 
 212   0.0000       0.381897        10.3920 
 213   0.0000       0.387840        10.5537 
 214   0.0000       0.389586        10.6012 
 215   0.0000       0.396156        10.7800 
 216   0.0000       0.396534        10.7902 
 217   0.0000       0.411548        11.1988 
 218   0.0000       0.412311        11.2196 
 219   0.0000       0.414263        11.2727 
 220   0.0000       0.419165        11.4061 
 221   0.0000       0.429188        11.6788 
 222   0.0000       0.435890        11.8612 
 223   0.0000       0.444915        12.1068 
 224   0.0000       0.447135        12.1672 
 225   0.0000       0.454315        12.3625 
 226   0.0000       0.457549        12.4505 
 227   0.0000       0.461062        12.5461 
 228   0.0000       0.463983        12.6256 
 229   0.0000       0.476683        12.9712 
 230   0.0000       0.479635        13.0515 
 231   0.0000       0.491936        13.3862 
 232   0.0000       0.498280        13.5589 
 233   0.0000       0.498972        13.5777 
 234   0.0000       0.502746        13.6804 
 235   0.0000       0.503104        13.6901 
 236   0.0000       0.511513        13.9190 
 237   0.0000       0.512357        13.9419 
 238   0.0000       0.523710        14.2509 
 239   0.0000       0.529714        14.4143 
 240   0.0000       0.533288        14.5115 
 241   0.0000       0.536497        14.5988 
 242   0.0000       0.546659        14.8753 
 243   0.0000       0.547566        14.9000 
 244   0.0000       0.548222        14.9179 
 245   0.0000       0.557149        15.1608 
 246   0.0000       0.565958        15.4005 
 247   0.0000       0.570564        15.5258 
 248   0.0000       0.572335        15.5740 
 249   0.0000       0.589426        16.0391 
 250   0.0000       0.598093        16.2749 
 251   0.0000       0.599145        16.3036 
 252   0.0000       0.640024        17.4159 
 253   0.0000       0.672276        18.2936 
 254   0.0000       0.687689        18.7130 
 255   0.0000       0.698971        19.0200 
 256   0.0000       0.706057        19.2128 
 257   0.0000       0.721592        19.6355 
 258   0.0000       0.734289        19.9810 
 259   0.0000       0.738840        20.1048 
 260   0.0000       0.753985        20.5170 
 261   0.0000       0.758795        20.6479 
 262   0.0000       0.760023        20.6813 
 263   0.0000       0.768307        20.9067 
 264   0.0000       0.780496        21.2384 
 265   0.0000       0.806145        21.9363 
 266   0.0000       0.811007        22.0686 
 267   0.0000       0.821099        22.3432 
 268   0.0000       0.822712        22.3871 
 269   0.0000       0.838034        22.8041 
 270   0.0000       0.838765        22.8240 
 271   0.0000       0.852232        23.1904 
 272   0.0000       0.852587        23.2001 
 273   0.0000       0.864726        23.5304 
 274   0.0000       0.869125        23.6501 
 275   0.0000       0.883982        24.0544 
 276   0.0000       0.897855        24.4319 
 277   0.0000       0.907982        24.7074 
 278   0.0000       0.917245        24.9595 
 279   0.0000       0.926048        25.1991 
 280   0.0000       0.927273        25.2324 
 281   0.0000       0.968452        26.3529 
 282   0.0000       0.972770        26.4704 
 283   0.0000       0.984688        26.7947 
 284   0.0000       1.011371        27.5208 
 285   0.0000       1.024385        27.8749 
 286   0.0000       1.029724        28.0202 
 287   0.0000       1.058881        28.8136 
 288   0.0000       1.116599        30.3842 
 289   0.0000       1.151451        31.3326 
 290   0.0000       1.164946        31.6998 
 291   0.0000       1.192972        32.4624 
 292   0.0000       1.226979        33.3878 
 293   0.0000       1.255132        34.1539 
 294   0.0000       1.260414        34.2976 
 295   0.0000       1.272376        34.6231 
 296   0.0000       1.280621        34.8475 
 297   0.0000       1.312359        35.7111 
 298   0.0000       1.323631        36.0178 
 299   0.0000       1.350503        36.7491 
 300   0.0000       1.354315        36.8528 
 301   0.0000       1.360195        37.0128 
 302   0.0000       1.378605        37.5137 
 303   0.0000       1.380404        37.5627 
 304   0.0000       1.388666        37.7875 
 305   0.0000       1.392010        37.8785 
 306   0.0000       1.404719        38.2243 
 307   0.0000       1.429387        38.8956 
[...]
LOEWDIN REDUCED ORBITAL CHARGES AND SPIN POPULATIONS
----------------------------------------------------
CHARGE
  0 Aus       :     2.703064  s :     2.703064
      pz      :     2.078075  p :     6.344833
      px      :     2.144342
      py      :     2.122416
      dz2     :     1.978478  d :     9.900067
      dxz     :     1.987911
      dyz     :     1.962563
      dx2y2   :     1.975231
      dxy     :     1.995884
      f0      :     0.000446  f :     0.004376
      f+1     :     0.000403
      f-1     :     0.000648
      f+2     :     0.000804
      f-2     :     0.000521
      f+3     :     0.000782
      f-3     :     0.000773
  1 Aus       :     2.710297  s :     2.710297
      pz      :     2.075186  p :     6.290631
      px      :     2.130642
      py      :     2.084803
      dz2     :     1.944497  d :     9.846098
      dxz     :     1.964121
      dyz     :     1.968558
      dx2y2   :     1.990643
      dxy     :     1.978280
      f0      :     0.000676  f :     0.004411
      f+1     :     0.000739
      f-1     :     0.000495
      f+2     :     0.000481
      f-2     :     0.000826
      f+3     :     0.000504
      f-3     :     0.000690
  2 Aus       :     2.547989  s :     2.547989
      pz      :     2.154498  p :     6.595024
      px      :     2.223529
      py      :     2.216997
      dz2     :     1.982052  d :     9.895568
      dxz     :     1.964995
      dyz     :     1.989963
      dx2y2   :     1.982934
      dxy     :     1.975623
      f0      :     0.000795  f :     0.006390
      f+1     :     0.000806
      f-1     :     0.000602
      f+2     :     0.001297
      f-2     :     0.001082
      f+3     :     0.000827
      f-3     :     0.000982
  3 Aus       :     2.607745  s :     2.607745
      pz      :     2.227701  p :     6.490991
      px      :     2.135251
      py      :     2.128039
      dz2     :     1.979287  d :     9.883550
      dxz     :     1.968989
      dyz     :     1.984288
      dx2y2   :     1.984427
      dxy     :     1.966560
      f0      :     0.001237  f :     0.005633
      f+1     :     0.000955
      f-1     :     0.000597
      f+2     :     0.000875
      f-2     :     0.000904
      f+3     :     0.000418
      f-3     :     0.000649
  4 Aus       :     2.703584  s :     2.703584
      pz      :     2.081394  p :     6.346118
      px      :     2.105145
      py      :     2.159580
      dz2     :     1.980227  d :     9.900073
      dxz     :     1.966324
      dyz     :     1.981107
      dx2y2   :     1.969063
      dxy     :     2.003352
      f0      :     0.000458  f :     0.004390
      f+1     :     0.000673
      f-1     :     0.000347
      f+2     :     0.000809
      f-2     :     0.000592
      f+3     :     0.000889
      f-3     :     0.000623
  5 Aus       :     2.650528  s :     2.650528
      pz      :     2.115947  p :     6.434416
      px      :     2.110251
      py      :     2.208219
      dz2     :     1.973141  d :     9.858055
      dxz     :     1.978288
      dyz     :     1.980984
      dx2y2   :     1.979511
      dxy     :     1.946131
      f0      :     0.000595  f :     0.004850
      f+1     :     0.000489
      f-1     :     0.000433
      f+2     :     0.000813
      f-2     :     0.000740
      f+3     :     0.000742
      f-3     :     0.001038
  6 Aus       :     2.595871  s :     2.595871
      pz      :     2.093392  p :     6.481627
      px      :     2.259800
      py      :     2.128435
      dz2     :     1.983961  d :     9.862428
      dxz     :     1.984794
      dyz     :     1.983932
      dx2y2   :     1.953747
      dxy     :     1.955993
      f0      :     0.000542  f :     0.005521
      f+1     :     0.000690
      f-1     :     0.000490
      f+2     :     0.000465
      f-2     :     0.000854
      f+3     :     0.001135
      f-3     :     0.001344
  7 Aus       :     2.596688  s :     2.596688
      pz      :     2.092065  p :     6.481127
      px      :     2.194999
      py      :     2.194064
      dz2     :     1.984002  d :     9.861828
      dxz     :     1.975042
      dyz     :     1.990286
      dx2y2   :     1.977650
      dxy     :     1.934848
      f0      :     0.000537  f :     0.005527
      f+1     :     0.000609
      f-1     :     0.000548
      f+2     :     0.000515
      f-2     :     0.000791
      f+3     :     0.001276
      f-3     :     0.001251
  8 Aus       :     2.513256  s :     2.513256
      pz      :     2.166665  p :     6.597597
      px      :     2.222968
      py      :     2.207964
      dz2     :     1.987387  d :     9.911326
      dxz     :     1.972829
      dyz     :     1.994402
      dx2y2   :     1.988733
      dxy     :     1.967975
      f0      :     0.000808  f :     0.006471
      f+1     :     0.000769
      f-1     :     0.000688
      f+2     :     0.001242
      f-2     :     0.001160
      f+3     :     0.000771
      f-3     :     0.001033
  9 Aus       :     2.650187  s :     2.650187
      pz      :     2.108886  p :     6.435050
      px      :     2.230684
      py      :     2.095480
      dz2     :     1.976139  d :     9.858785
      dxz     :     1.976687
      dyz     :     1.974418
      dx2y2   :     1.948316
      dxy     :     1.983225
      f0      :     0.000571  f :     0.004862
      f+1     :     0.000572
      f-1     :     0.000390
      f+2     :     0.000814
      f-2     :     0.000700
      f+3     :     0.000779
      f-3     :     0.001036
 10 Aus       :     2.673234  s :     2.673234
      pz      :     2.122633  p :     6.371297
      px      :     2.118994
      py      :     2.129669
      dz2     :     1.970319  d :     9.907051
      dxz     :     1.980347
      dyz     :     1.982169
      dx2y2   :     1.996880
      dxy     :     1.977334
      f0      :     0.000943  f :     0.004537
      f+1     :     0.000718
      f-1     :     0.000538
      f+2     :     0.000601
      f-2     :     0.000428
      f+3     :     0.000551
      f-3     :     0.000758
 11 Aus       :     2.569274  s :     2.569274
      pz      :     2.091586  p :     6.470898
      px      :     2.204495
      py      :     2.174818
      dz2     :     1.930555  d :     9.888098
      dxz     :     1.992763
      dyz     :     1.996186
      dx2y2   :     1.996787
      dxy     :     1.971808
      f0      :     0.000895  f :     0.005448
      f+1     :     0.000770
      f-1     :     0.000555
      f+2     :     0.000630
      f-2     :     0.000931
      f+3     :     0.000649
      f-3     :     0.001018
 12 Mns       :     6.292255  s :     6.292255
      pz      :     4.225644  p :    12.641708
      px      :     4.203311
      py      :     4.212753
      dz2     :     1.385625  d :     6.568135
      dxz     :     1.269830
      dyz     :     1.235564
      dx2y2   :     1.350938
      dxy     :     1.326179
      f0      :     0.000260  f :     0.001231
      f+1     :     0.000162
      f-1     :     0.000154
      f+2     :     0.000128
      f-2     :     0.000161
      f+3     :     0.000129
      f-3     :     0.000237

SPIN
  0 Aus       :     0.031016  s :     0.031016
      pz      :    -0.020428  p :    -0.015372
      px      :     0.000900
      py      :     0.004156
      dz2     :    -0.001945  d :    -0.022717
      dxz     :     0.000676
      dyz     :    -0.021299
      dx2y2   :    -0.001108
      dxy     :     0.000960
      f0      :     0.000003  f :    -0.000058
      f+1     :    -0.000009
      f-1     :     0.000001
      f+2     :    -0.000056
      f-2     :    -0.000002
      f+3     :    -0.000001
      f-3     :     0.000007
  1 Aus       :    -0.049407  s :    -0.049407
      pz      :    -0.006572  p :    -0.097828
      px      :    -0.061032
      py      :    -0.030225
      dz2     :     0.012166  d :     0.001571
      dxz     :    -0.011809
      dyz     :     0.001358
      dx2y2   :    -0.000153
      dxy     :     0.000008
      f0      :     0.000222  f :     0.000300
      f+1     :     0.000067
      f-1     :     0.000113
      f+2     :     0.000001
      f-2     :     0.000020
      f+3     :    -0.000020
      f-3     :    -0.000105
  2 Aus       :    -0.105053  s :    -0.105053
      pz      :    -0.023792  p :    -0.019145
      px      :     0.004204
      py      :     0.000443
      dz2     :     0.007516  d :     0.040691
      dxz     :     0.015865
      dyz     :     0.005569
      dx2y2   :     0.012344
      dxy     :    -0.000604
      f0      :     0.000027  f :     0.000407
      f+1     :     0.000065
      f-1     :     0.000020
      f+2     :     0.000126
      f-2     :     0.000136
      f+3     :     0.000025
      f-3     :     0.000009
  3 Aus       :    -0.129460  s :    -0.129460
      pz      :    -0.029283  p :    -0.029018
      px      :     0.001453
      py      :    -0.001188
      dz2     :    -0.003671  d :     0.018103
      dxz     :     0.003240
      dyz     :     0.003703
      dx2y2   :     0.006832
      dxy     :     0.007999
      f0      :    -0.000010  f :     0.000284
      f+1     :     0.000036
      f-1     :     0.000022
      f+2     :    -0.000004
      f-2     :     0.000097
      f+3     :     0.000072
      f-3     :     0.000072
  4 Aus       :     0.031220  s :     0.031220
      pz      :    -0.019345  p :    -0.015613
      px      :     0.003428
      py      :     0.000304
      dz2     :    -0.001769  d :    -0.023264
      dxz     :    -0.020688
      dyz     :    -0.000131
      dx2y2   :     0.000123
      dxy     :    -0.000799
      f0      :     0.000003  f :    -0.000060
      f+1     :    -0.000008
      f-1     :    -0.000002
      f+2     :    -0.000051
      f-2     :    -0.000005
      f+3     :     0.000003
      f-3     :    -0.000000
  5 Aus       :    -0.039942  s :    -0.039942
      pz      :    -0.019173  p :    -0.035009
      px      :     0.003352
      py      :    -0.019188
      dz2     :     0.000441  d :     0.000251
      dxz     :     0.002742
      dyz     :    -0.022198
      dx2y2   :     0.008347
      dxy     :     0.010919
      f0      :     0.000020  f :     0.000334
      f+1     :     0.000046
      f-1     :     0.000015
      f+2     :     0.000018
      f-2     :     0.000030
      f+3     :     0.000064
      f-3     :     0.000141
  6 Aus       :    -0.059993  s :    -0.059993
      pz      :    -0.007386  p :    -0.019008
      px      :    -0.019065
      py      :     0.007443
      dz2     :    -0.001463  d :     0.009421
      dxz     :    -0.018186
      dyz     :     0.008521
      dx2y2   :     0.014287
      dxy     :     0.006261
      f0      :     0.000027  f :     0.000337
      f+1     :    -0.000004
      f-1     :     0.000073
      f+2     :     0.000062
      f-2     :    -0.000041
      f+3     :     0.000087
      f-3     :     0.000133
  7 Aus       :    -0.060646  s :    -0.060646
      pz      :    -0.005446  p :    -0.018486
      px      :     0.011697
      py      :    -0.024737
      dz2     :    -0.001882  d :     0.010429
      dxz     :     0.009113
      dyz     :    -0.015421
      dx2y2   :     0.005694
      dxy     :     0.012926
      f0      :     0.000030  f :     0.000344
      f+1     :     0.000052
      f-1     :     0.000010
      f+2     :     0.000012
      f-2     :     0.000033
      f+3     :     0.000072
      f-3     :     0.000135
  8 Aus       :    -0.087191  s :    -0.087191
      pz      :    -0.024749  p :    -0.026082
      px      :    -0.001415
      py      :     0.000081
      dz2     :     0.000600  d :     0.011348
      dxz     :     0.004626
      dyz     :     0.005733
      dx2y2   :     0.006197
      dxy     :    -0.005807
      f0      :     0.000005  f :     0.000253
      f+1     :     0.000038
      f-1     :     0.000029
      f+2     :     0.000048
      f-2     :     0.000138
      f+3     :     0.000009
      f-3     :    -0.000015
  9 Aus       :    -0.039602  s :    -0.039602
      pz      :    -0.015697  p :    -0.035468
      px      :    -0.017917
      py      :    -0.001854
      dz2     :     0.002413  d :    -0.001156
      dxz     :    -0.020746
      dyz     :     0.003071
      dx2y2   :     0.009254
      dxy     :     0.004851
      f0      :     0.000020  f :     0.000321
      f+1     :    -0.000015
      f-1     :     0.000060
      f+2     :     0.000105
      f-2     :    -0.000012
      f+3     :     0.000045
      f-3     :     0.000117
 10 Aus       :    -0.036331  s :    -0.036331
      pz      :    -0.039699  p :    -0.041800
      px      :    -0.000440
      py      :    -0.001661
      dz2     :    -0.013678  d :    -0.020814
      dxz     :    -0.004056
      dyz     :    -0.000778
      dx2y2   :     0.000318
      dxy     :    -0.002620
      f0      :    -0.000004  f :    -0.000050
      f+1     :     0.000001
      f-1     :    -0.000002
      f+2     :    -0.000007
      f-2     :    -0.000015
      f+3     :    -0.000004
      f-3     :    -0.000020
 11 Aus       :    -0.108719  s :    -0.108719
      pz      :    -0.015664  p :    -0.049481
      px      :    -0.021526
      py      :    -0.012291
      dz2     :     0.016932  d :     0.014238
      dxz     :     0.006394
      dyz     :     0.007134
      dx2y2   :    -0.002097
      dxy     :    -0.014126
      f0      :     0.000266  f :     0.000379
      f+1     :     0.000102
      f-1     :     0.000082
      f+2     :    -0.000005
      f-2     :    -0.000037
      f+3     :    -0.000008
      f-3     :    -0.000022
 12 Mns       :     0.023289  s :     0.023289
      pz      :     0.013874  p :     0.035099
      px      :     0.009728
      py      :     0.011498
      dz2     :     0.677522  d :     3.957096
      dxz     :     0.804426
      dyz     :     0.844565
      dx2y2   :     0.838209
      dxy     :     0.792375
      f0      :     0.000005  f :     0.000043
      f+1     :     0.000007
      f-1     :     0.000007
      f+2     :     0.000007
      f-2     :     0.000002
      f+3     :     0.000008
      f-3     :     0.000007


                      *****************************
                      * MAYER POPULATION ANALYSIS *
                      *****************************

  NA   - Mulliken gross atomic population
  ZA   - Total nuclear charge
  QA   - Mulliken gross atomic charge
  VA   - Mayer's total valence
  BVA  - Mayer's bonded valence
  FA   - Mayer's free valence

  ATOM       NA         ZA         QA         VA         BVA        FA
  0 Au    18.7076    19.0000     0.2924     1.4094     1.4049     0.0045
  1 Au    18.7791    19.0000     0.2209     1.5285     1.5194     0.0091
  2 Au    19.0025    19.0000    -0.0025     1.9208     1.8650     0.0558
  3 Au    18.7987    19.0000     0.2013     1.5774     1.5048     0.0725
  4 Au    18.7133    19.0000     0.2867     1.4126     1.4082     0.0045
  5 Au    18.8511    19.0000     0.1489     1.5865     1.5779     0.0085
  6 Au    18.9520    19.0000     0.0480     1.8357     1.8174     0.0184
  7 Au    18.9524    19.0000     0.0476     1.8387     1.8200     0.0187
  8 Au    18.9170    19.0000     0.0830     1.8660     1.8222     0.0438
  9 Au    18.8505    19.0000     0.1495     1.5876     1.5792     0.0084
 10 Au    18.6971    19.0000     0.3029     1.4074     1.3950     0.0124
 11 Au    18.8411    19.0000     0.1589     1.7382     1.6858     0.0525
 12 Mn    26.9377    25.0000    -1.9377     8.6542     5.0082     3.6460

  Mayer bond orders larger than 0.100000
B(  0-Au,  2-Au) :   0.3179 B(  0-Au,  6-Au) :   0.4194 B(  0-Au,  8-Au) :   0.2515 
B(  1-Au,  2-Au) :   0.4141 B(  1-Au,  3-Au) :   0.2692 B(  1-Au, 12-Mn) :   0.5619 
B(  2-Au,  4-Au) :   0.3130 B(  2-Au, 12-Mn) :   0.4720 B(  3-Au,  5-Au) :   0.1250 
B(  3-Au,  9-Au) :   0.1278 B(  3-Au, 10-Au) :   0.2906 B(  3-Au, 12-Mn) :   0.4936 
B(  4-Au,  7-Au) :   0.4247 B(  4-Au,  8-Au) :   0.2524 B(  5-Au,  6-Au) :   0.3516 
B(  5-Au, 10-Au) :   0.2128 B(  5-Au, 11-Au) :   0.1098 B(  5-Au, 12-Mn) :   0.5165 
B(  6-Au,  8-Au) :   0.1433 B(  6-Au, 12-Mn) :   0.5897 B(  7-Au,  8-Au) :   0.1439 
B(  7-Au,  9-Au) :   0.3536 B(  7-Au, 12-Mn) :   0.5908 B(  8-Au, 11-Au) :   0.3765 
B(  8-Au, 12-Mn) :   0.4408 B(  9-Au, 10-Au) :   0.2090 B(  9-Au, 11-Au) :   0.1124 
B(  9-Au, 12-Mn) :   0.5130 B( 10-Au, 11-Au) :   0.2768 B( 10-Au, 12-Mn) :   0.1054 
B( 11-Au, 12-Mn) :   0.5875 

-------
TIMINGS
-------

Total SCF time: 0 days 0 hours 2 min 8 sec 

Total time                  ....     128.267 sec
Sum of individual times     ....     125.727 sec  ( 98.0%)

Fock matrix formation       ....     117.398 sec  ( 91.5%)
  Split-RI-J                ....      21.415 sec  ( 18.2% of F)
  XC integration            ....      95.439 sec  ( 81.3% of F)
    Basis function eval.    ....       5.219 sec  (  5.5% of XC)
    Density eval.           ....      43.440 sec  ( 45.5% of XC)
    XC-Functional eval.     ....       2.997 sec  (  3.1% of XC)
    XC-Potential eval.      ....      28.670 sec  ( 30.0% of XC)
Diagonalization             ....       4.875 sec  (  3.8%)
Density matrix formation    ....       0.211 sec  (  0.2%)
Population analysis         ....       0.341 sec  (  0.3%)
Initial guess               ....       0.464 sec  (  0.4%)
Orbital Transformation      ....       0.000 sec  (  0.0%)
Orbital Orthonormalization  ....       0.372 sec  (  0.3%)
DIIS solution               ....       0.000 sec  (  0.0%)
Grid generation             ....       2.439 sec  (  1.9%)

Maximum memory used throughout the entire SCF-calculation: 82.6 MB

-------------------------   --------------------
FINAL SINGLE POINT ENERGY     -2781.141251968555
-------------------------   --------------------


                            ***************************************
                            *     ORCA property calculations      *
                            ***************************************

                                    ---------------------
                                    Active property flags
                                    ---------------------
   (+) Dipole Moment


------------------------------------------------------------------------------
                       ORCA ELECTRIC PROPERTIES CALCULATION
------------------------------------------------------------------------------

Dipole Moment Calculation                       ... on
Quadrupole Moment Calculation                   ... off
Polarizability Calculation                      ... off
GBWName                                         ... scan_job2.gbw
Electron density                                ... scan_job2.scfp
The origin for moment calculation is the CENTER OF MASS  = (16.798881, 17.059284 14.453510)

-------------
DIPOLE MOMENT
-------------
                                X             Y             Z
Electronic contribution:     12.35740       9.91256      -7.88700
Nuclear contribution   :    -12.45215      -9.96694       7.81166
                        -----------------------------------------
Total Dipole Moment    :     -0.09476      -0.05438      -0.07534
                        -----------------------------------------
Magnitude (a.u.)       :      0.13271
Magnitude (Debye)      :      0.33733



--------------------
Rotational spectrum 
--------------------
 
Rotational constants in cm-1:     0.001799     0.001040     0.001021 
Rotational constants in MHz :    53.942579    31.169120    30.597360 

 Dipole components along the rotational axes: 
x,y,z [a.u.] :    -0.121323    -0.004526    -0.053601 
x,y,z [Debye]:    -0.308378    -0.011504    -0.136242 

 

Timings for individual modules:

Sum of individual times         ...      144.187 sec (=   2.403 min)
GTO integral calculation        ...       15.640 sec (=   0.261 min)  10.8 %
SCF iterations                  ...      128.547 sec (=   2.142 min)  89.2 %



                             ****ORCA TERMINATED NORMALLY****
TOTAL RUN TIME: 0 days 0 hours 11 minutes 23 seconds 761 msec
