
                                 *****************
                                 * O   R   C   A *
                                 *****************

                                            #,                                       
                                            ###                                      
                                            ####                                     
                                            #####                                    
                                            ######                                   
                                           ########,                                 
                                     ,,################,,,,,                         
                               ,,#################################,,                 
                          ,,##########################################,,             
                       ,#########################################, ''#####,          
                    ,#############################################,,   '####,        
                  ,##################################################,,,,####,       
                ,###########''''           ''''###############################       
              ,#####''   ,,,,##########,,,,          '''####'''          '####       
            ,##' ,,,,###########################,,,                        '##       
           ' ,,###''''                  '''############,,,                           
         ,,##''                                '''############,,,,        ,,,,,,###''
      ,#''                                            '''#######################'''  
     '                                                          ''''####''''         
             ,#######,   #######,   ,#######,      ##                                
            ,#'     '#,  ##    ##  ,#'     '#,    #''#        ######   ,####,        
            ##       ##  ##   ,#'  ##            #'  '#       #        #'  '#        
            ##       ##  #######   ##           ,######,      #####,   #    #        
            '#,     ,#'  ##    ##  '#,     ,#' ,#      #,         ##   #,  ,#        
             '#######'   ##     ##  '#######'  #'      '#     #####' # '####'        



                  #######################################################
                  #                        -***-                        #
                  #          Department of theory and spectroscopy      #
                  #    Directorship and core code : Frank Neese         #
                  #        Max Planck Institute fuer Kohlenforschung    #
                  #                Kaiser Wilhelm Platz 1               #
                  #                 D-45470 Muelheim/Ruhr               #
                  #                      Germany                        #
                  #                                                     #
                  #                  All rights reserved                #
                  #                        -***-                        #
                  #######################################################


                         Program Version 5.0.3 -  RELEASE  -


 With contributions from (in alphabetic order):
   Daniel Aravena         : Magnetic Suceptibility
   Michael Atanasov       : Ab Initio Ligand Field Theory (pilot matlab implementation)
   Alexander A. Auer      : GIAO ZORA, VPT2 properties, NMR spectrum
   Ute Becker             : Parallelization
   Giovanni Bistoni       : ED, misc. LED, open-shell LED, HFLD
   Martin Brehm           : Molecular dynamics
   Dmytro Bykov           : SCF Hessian
   Vijay G. Chilkuri      : MRCI spin determinant printing, contributions to CSF-ICE
   Dipayan Datta          : RHF DLPNO-CCSD density
   Achintya Kumar Dutta   : EOM-CC, STEOM-CC
   Dmitry Ganyushin       : Spin-Orbit,Spin-Spin,Magnetic field MRCI
   Miquel Garcia          : C-PCM and meta-GGA Hessian, CC/C-PCM, Gaussian charge scheme
   Yang Guo               : DLPNO-NEVPT2, F12-NEVPT2, CIM, IAO-localization
   Andreas Hansen         : Spin unrestricted coupled pair/coupled cluster methods
   Benjamin Helmich-Paris : MC-RPA, TRAH-SCF, COSX integrals
   Lee Huntington         : MR-EOM, pCC
   Robert Izsak           : Overlap fitted RIJCOSX, COSX-SCS-MP3, EOM
   Marcus Kettner         : VPT2
   Christian Kollmar      : KDIIS, OOCD, Brueckner-CCSD(T), CCSD density, CASPT2, CASPT2-K
   Simone Kossmann        : Meta GGA functionals, TD-DFT gradient, OOMP2, MP2 Hessian
   Martin Krupicka        : Initial AUTO-CI
   Lucas Lang             : DCDCAS
   Marvin Lechner         : AUTO-CI (C++ implementation), FIC-MRCC
   Dagmar Lenk            : GEPOL surface, SMD
   Dimitrios Liakos       : Extrapolation schemes; Compound Job, initial MDCI parallelization
   Dimitrios Manganas     : Further ROCIS development; embedding schemes
   Dimitrios Pantazis     : SARC Basis sets
   Anastasios Papadopoulos: AUTO-CI, single reference methods and gradients
   Taras Petrenko         : DFT Hessian,TD-DFT gradient, ASA, ECA, R-Raman, ABS, FL, XAS/XES, NRVS
   Peter Pinski           : DLPNO-MP2, DLPNO-MP2 Gradient
   Christoph Reimann      : Effective Core Potentials
   Marius Retegan         : Local ZFS, SOC
   Christoph Riplinger    : Optimizer, TS searches, QM/MM, DLPNO-CCSD(T), (RO)-DLPNO pert. Triples
   Tobias Risthaus        : Range-separated hybrids, TD-DFT gradient, RPA, STAB
   Michael Roemelt        : Original ROCIS implementation
   Masaaki Saitow         : Open-shell DLPNO-CCSD energy and density
   Barbara Sandhoefer     : DKH picture change effects
   Avijit Sen             : IP-ROCIS
   Kantharuban Sivalingam : CASSCF convergence, NEVPT2, FIC-MRCI
   Bernardo de Souza      : ESD, SOC TD-DFT
   Georgi Stoychev        : AutoAux, RI-MP2 NMR, DLPNO-MP2 response
   Willem Van den Heuvel  : Paramagnetic NMR
   Boris Wezisla          : Elementary symmetry handling
   Frank Wennmohs         : Technical directorship


 We gratefully acknowledge several colleagues who have allowed us to
 interface, adapt or use parts of their codes:
   Stefan Grimme, W. Hujo, H. Kruse, P. Pracht,  : VdW corrections, initial TS optimization,
                  C. Bannwarth, S. Ehlert          DFT functionals, gCP, sTDA/sTD-DF
   Ed Valeev, F. Pavosevic, A. Kumar             : LibInt (2-el integral package), F12 methods
   Garnet Chan, S. Sharma, J. Yang, R. Olivares  : DMRG
   Ulf Ekstrom                                   : XCFun DFT Library
   Mihaly Kallay                                 : mrcc  (arbitrary order and MRCC methods)
   Jiri Pittner, Ondrej Demel                    : Mk-CCSD
   Frank Weinhold                                : gennbo (NPA and NBO analysis)
   Christopher J. Cramer and Donald G. Truhlar   : smd solvation model
   Lars Goerigk                                  : TD-DFT with DH, B97 family of functionals
   V. Asgeirsson, H. Jonsson                     : NEB implementation
   FAccTs GmbH                                   : IRC, NEB, NEB-TS, DLPNO-Multilevel, CI-OPT
                                                   MM, QMMM, 2- and 3-layer-ONIOM, Crystal-QMMM,
                                                   LR-CPCM, SF, NACMEs, symmetry and pop. for TD-DFT,
                                                   nearIR, NL-DFT gradient (VV10), updates on ESD,
                                                   ML-optimized integration grids
   S Lehtola, MJT Oliveira, MAL Marques          : LibXC Library
   Liviu Ungur et al                             : ANISO software


 Your calculation uses the libint2 library for the computation of 2-el integrals
 For citations please refer to: http://libint.valeyev.net

 Your ORCA version has been built with support for libXC version: 5.1.0
 For citations please refer to: https://tddft.org/programs/libxc/

 This ORCA versions uses:
   CBLAS   interface :  Fast vector & matrix operations
   LAPACKE interface :  Fast linear algebra routines
   SCALAPACK package :  Parallel linear algebra routines
   Shared memory     :  Shared parallel matrices
   BLAS/LAPACK       :  OpenBLAS 0.3.15  USE64BITINT DYNAMIC_ARCH NO_AFFINITY Haswell SINGLE_THREADED
        Core in use  :  Haswell
   Copyright (c) 2011-2014, The OpenBLAS Project




***************************************
The coordinates will be read from file: pbe.xyz
***************************************


================================================================================

cite the ECPs for Au [Def2-ECP] as follows:
Ce-Yb(ecp-28): M. Dolg, H. Stoll, H.Preuss, J. Chem. Phys., 1989, 90, 1730-1734.
Y-Cd(ecp-28), Hf-Hg(ecp-46): D. Andrae,U. Haeussermann, M. Dolg, H. Stoll, H. Preuss, Theor. Chim. Acta, 1990, 77, 123-141.
In-Sb(ecp-28), Tl-Bi(ecp-46): B. Metz, H. Stoll, M. Dolg, J. Chem. Phys., 2000, 113, 2563-2569.
Te-Xe(ecp-28), Po-Rn(ecp-46): K. A. Peterson, D. Figgen, E. Goll, H. Stoll, M. Dolg, J. Chem. Phys., 2003, 119, 11113-11123.
Rb(ecp-28), Cs(ecp-46): T. Leininger, A. Nicklass, W. Kuechle, H. Stoll, M. Dolg, A. Bergner, Chem. Phys. Lett., 1996, 255, 274-280.
Sr(ecp-28), Ba(ecp-46): M. Kaupp, P. V. Schleyer, H. Stoll and H. Preuss, J. Chem. Phys., 1991, 94, 1360-1366.
La(ecp-46): M. Dolg, H. Stoll, A. Savin, H. Preuss, Theor. Chim. Acta, 1989, 75, 173-194.
Lu(ecp-28): X. Cao, M. Dolg, J. Chem. Phys., 2001, 115, 7348-7355.

ECP parameters for Au [Def2-ECP] have been obtained from:
TURBOMOLE (7.0.2)

----- Orbital basis set information -----
Your calculation utilizes the basis: def2-TZVP
   F. Weigend and R. Ahlrichs, Phys. Chem. Chem. Phys. 7, 3297 (2005).

----- AuxJ basis set information -----
Your calculation utilizes the auxiliary basis: def2/J
   F. Weigend, Phys. Chem. Chem. Phys. 8, 1057 (2006).

----- AuxC basis set information -----
Your calculation utilizes the auxiliary basis: def2-TZVP/C
  H-La, Hf-Rn : A. Hellweg, C. Hattig, S. Hofener and W. Klopper, Theor. Chem. Acc. 117, 587 (2007).
        Ce-Lu : J. Chmela and M. E. Harding, Mol. Phys. (2018).

================================================================================
                                        WARNINGS
                       Please study these warnings very carefully!
================================================================================


IMPORTANT NOTE: CASSCF must signal convergence for a subsequent CASPT2/NEVPT2! 
                Set maxiter=1 to run CASPT2/NEVPT2 with arbitrary orbitals.


INFO   : the flag for use of the SHARK integral package has been found!

================================================================================
                                       INPUT FILE
================================================================================
NAME = nevpt2.inp
|  1> !SC-NEVPT2 def2-TZVP def2-TZVP/C
|  2> !MOREAD RIJCOSX def2/J
|  3> %maxcore 4000
|  4> %moinp "casscf.gbw"
|  5> %pal nprocs 8 end 
|  6> 
|  7> %casscf
|  8>  mult 5,3
|  9>  bweight 1,1
| 10>  nroots 5,45
| 11>  nel 6
| 12>  norb 5
| 13>  ptsettings
| 14>   d4tpre 1e-14 # default = 1e-10
| 15>   d3tpre 1e-14
| 16>  end
| 17>  rel           
| 18>    dosoc true   
| 19>    gtensor true 
| 20>  end           
| 21> end
| 22> 
| 23> 
| 24> *xyzfile 0 5 pbe.xyz
| 25> 
| 26> 
| 27>                          ****END OF INPUT****
================================================================================

                       ****************************
                       * Single Point Calculation *
                       ****************************

---------------------------------
CARTESIAN COORDINATES (ANGSTROEM)
---------------------------------
  Au     4.620924    7.962592    8.657042
  Au     6.170590    9.868511    9.762963
  Au     8.939757    9.833446    9.582976
  Au     6.442240    5.690700    8.514678
  Au     7.511787    7.395638   10.345731
  Au     9.775526    7.533703    8.409221
  Au     7.425299   10.933466    7.444752
  Au     7.006499    9.325960    5.317312
  Au     5.257617    7.097933    6.174802
  Au     6.963945    6.861595    3.997784
  Au     9.041311    7.436620    5.775477
  Au     8.923860    4.933958    4.523086
  Au     6.509357    4.662551    5.930417
  Au     8.906735    5.139386    7.323560
  Cr     7.231108    8.258369    7.816341

----------------------------
CARTESIAN COORDINATES (A.U.)
----------------------------
  NO LB      ZA    FRAG     MASS         X           Y           Z
   0 Au   19.0000*   0   196.966    8.732281   15.047118   16.359438
   1 Au   19.0000*   0   196.966   11.660725   18.648783   18.449327
   2 Au   19.0000*   0   196.966   16.893693   18.582520   18.109200
   3 Au   19.0000*   0   196.966   12.174070   10.753864   16.090409
   4 Au   19.0000*   0   196.966   14.195220   13.975729   19.550597
   5 Au   19.0000*   0   196.966   18.473067   14.236635   15.891124
   6 Au   19.0000*   0   196.966   14.031782   20.661256   14.068542
   7 Au   19.0000*   0   196.966   13.240364   17.623510   10.048263
   8 Au   19.0000*   0   196.966    9.935456   13.413149   11.668685
   9 Au   19.0000*   0   196.966   13.159949   12.966535    7.554716
  10 Au   19.0000*   0   196.966   17.085602   14.053175   10.914071
  11 Au   19.0000*   0   196.966   16.863652    9.323829    8.547393
  12 Au   19.0000*   0   196.966   12.300902    8.810944   11.206863
  13 Au   19.0000*   0   196.966   16.831289    9.712032   13.839522
  14 Cr   24.0000    0    52.000   13.664813   15.606056   14.770744
* core charge reduced due to ECP

--------------------------------
INTERNAL COORDINATES (ANGSTROEM)
--------------------------------
 Au     0   0   0     0.000000000000     0.00000000     0.00000000
 Au     1   0   0     2.693891733645     0.00000000     0.00000000
 Au     2   1   0     2.775231938120   122.57686447     0.00000000
 Au     1   2   3     2.915296655513   102.24043765    24.30074696
 Au     4   1   2     2.720936862844    74.00240680    19.18039035
 Au     3   2   1     2.713858740962   110.24573448   353.98815808
 Au     3   2   1     2.841764846092    60.80022425    83.84095615
 Au     7   3   2     2.699160845908   116.43661611   261.09321116
 Au     1   2   3     2.704538322840   117.87561700   317.61626382
 Au     9   1   2     2.776116228970   153.08186594    13.99564916
 Au     6   3   2     2.735891065833   111.33252914    67.75945868
 Au    10   9   1     2.798748595482   109.99106987    77.50555013
 Au     9   1   2     2.749120244606   118.16425070   103.40273223
 Au     6   3   2     2.768792216074   143.68288221   358.93091479
 Cr     5   4   1     2.687172952357    61.74996521   298.18379540

---------------------------
INTERNAL COORDINATES (A.U.)
---------------------------
 Au     0   0   0     0.000000000000     0.00000000     0.00000000
 Au     1   0   0     5.090717611024     0.00000000     0.00000000
 Au     2   1   0     5.244428321158   122.57686447     0.00000000
 Au     1   2   3     5.509112278055   102.24043765    24.30074696
 Au     4   1   2     5.141825498467    74.00240680    19.18039035
 Au     3   2   1     5.128449786566   110.24573448   353.98815808
 Au     3   2   1     5.370157296118    60.80022425    83.84095615
 Au     7   3   2     5.100674790170   116.43661611   261.09321116
 Au     1   2   3     5.110836748862   117.87561700   317.61626382
 Au     9   1   2     5.246099388688   153.08186594    13.99564916
 Au     6   3   2     5.170084846666   111.33252914    67.75945868
 Au    10   9   1     5.288868363158   109.99106987    77.50555013
 Au     9   1   2     5.195084371524   118.16425070   103.40273223
 Au     6   3   2     5.232259010113   143.68288221   358.93091479
 Cr     5   4   1     5.078020954435    61.74996521   298.18379540

---------------------
BASIS SET INFORMATION
---------------------
There are 2 groups of distinct atoms

 Group   1 Type Au  : 8s7p6d1f contracted to 6s4p3d1f pattern {311111/4111/411/1}
 Group   2 Type Cr  : 17s11p7d1f contracted to 6s4p4d1f pattern {842111/6311/4111/1}

Atom   0Au   basis set group =>   1
Atom   1Au   basis set group =>   1
Atom   2Au   basis set group =>   1
Atom   3Au   basis set group =>   1
Atom   4Au   basis set group =>   1
Atom   5Au   basis set group =>   1
Atom   6Au   basis set group =>   1
Atom   7Au   basis set group =>   1
Atom   8Au   basis set group =>   1
Atom   9Au   basis set group =>   1
Atom  10Au   basis set group =>   1
Atom  11Au   basis set group =>   1
Atom  12Au   basis set group =>   1
Atom  13Au   basis set group =>   1
Atom  14Cr   basis set group =>   2
---------------------------------
AUXILIARY/J BASIS SET INFORMATION
---------------------------------
There are 2 groups of distinct atoms

 Group   1 Type Au  : 11s5p5d3f3g contracted to 8s5p5d2f3g pattern {41111111/11111/11111/21/111}
 Group   2 Type Cr  : 19s5p5d3f3g contracted to 8s5p5d2f3g pattern {121111111/11111/11111/21/111}

Atom   0Au   basis set group =>   1
Atom   1Au   basis set group =>   1
Atom   2Au   basis set group =>   1
Atom   3Au   basis set group =>   1
Atom   4Au   basis set group =>   1
Atom   5Au   basis set group =>   1
Atom   6Au   basis set group =>   1
Atom   7Au   basis set group =>   1
Atom   8Au   basis set group =>   1
Atom   9Au   basis set group =>   1
Atom  10Au   basis set group =>   1
Atom  11Au   basis set group =>   1
Atom  12Au   basis set group =>   1
Atom  13Au   basis set group =>   1
Atom  14Cr   basis set group =>   2
---------------------------------
AUXILIARY/C BASIS SET INFORMATION
---------------------------------
There are 2 groups of distinct atoms

 Group   1 Type Au  : 8s8p7d5f3g2h contracted to 8s8p7d5f3g2h pattern {11111111/11111111/1111111/11111/111/11}
 Group   2 Type Cr  : 11s9p8d6f5g2h contracted to 9s8p8d6f5g2h pattern {311111111/21111111/11111111/111111/11111/11}

Atom   0Au   basis set group =>   1
Atom   1Au   basis set group =>   1
Atom   2Au   basis set group =>   1
Atom   3Au   basis set group =>   1
Atom   4Au   basis set group =>   1
Atom   5Au   basis set group =>   1
Atom   6Au   basis set group =>   1
Atom   7Au   basis set group =>   1
Atom   8Au   basis set group =>   1
Atom   9Au   basis set group =>   1
Atom  10Au   basis set group =>   1
Atom  11Au   basis set group =>   1
Atom  12Au   basis set group =>   1
Atom  13Au   basis set group =>   1
Atom  14Cr   basis set group =>   2
-------------------------
ECP PARAMETER INFORMATION
-------------------------

 Group 1, Type Au ECP Def2-ECP (replacing 60 core electrons, lmax=3)

Atom   0Au   ECP group =>   1
Atom   1Au   ECP group =>   1
Atom   2Au   ECP group =>   1
Atom   3Au   ECP group =>   1
Atom   4Au   ECP group =>   1
Atom   5Au   ECP group =>   1
Atom   6Au   ECP group =>   1
Atom   7Au   ECP group =>   1
Atom   8Au   ECP group =>   1
Atom   9Au   ECP group =>   1
Atom  10Au   ECP group =>   1
Atom  11Au   ECP group =>   1
Atom  12Au   ECP group =>   1
Atom  13Au   ECP group =>   1



           ************************************************************
           *        Program running with 8 parallel MPI-processes     *
           *              working on a common directory               *
           ************************************************************
------------------------------------------------------------------------------
                           ORCA GTO INTEGRAL CALCULATION
                           -- RI-GTO INTEGRALS CHOSEN --
------------------------------------------------------------------------------
------------------------------------------------------------------------------
                   ___                                                        
                  /   \      - P O W E R E D   B Y -                         
                 /     \                                                     
                 |  |  |   _    _      __       _____    __    __             
                 |  |  |  | |  | |    /  \     |  _  \  |  |  /  |          
                  \  \/   | |  | |   /    \    | | | |  |  | /  /          
                 / \  \   | |__| |  /  /\  \   | |_| |  |  |/  /          
                |  |  |   |  __  | /  /__\  \  |    /   |      \           
                |  |  |   | |  | | |   __   |  |    \   |  |\   \          
                \     /   | |  | | |  |  |  |  | |\  \  |  | \   \       
                 \___/    |_|  |_| |__|  |__|  |_| \__\ |__|  \__/        
                                                                              
                      - O R C A' S   B I G   F R I E N D -                    
                                      &                                       
                       - I N T E G R A L  F E E D E R -                       
                                                                              
 v1 FN, 2020, v2 2021                                                         
------------------------------------------------------------------------------


Reading SHARK input file nevpt2.SHARKINP.tmp ... ok
----------------------
SHARK INTEGRAL PACKAGE
----------------------

Number of atoms                             ...     15
Number of basis functions                   ...    605
Number of shells                            ...    211
Maximum angular momentum                    ...      3
Integral batch strategy                     ... SHARK/LIBINT Hybrid
RI-J (if used) integral strategy            ... SPLIT-RIJ (Revised 2003 algorithm where possible)
Printlevel                                  ...      1
Contraction scheme used                     ... SEGMENTED contraction
Coulomb Range Separation                    ... NOT USED
Exchange Range Separation                   ... NOT USED
Finite Nucleus Model                        ... NOT USED
Auxiliary Coulomb fitting basis             ... AVAILABLE
   # of basis functions in Aux-J            ...   1335
   # of shells in Aux-J                     ...    345
   Maximum angular momentum in Aux-J        ...      4
Auxiliary J/K fitting basis                 ... NOT available
Auxiliary Correlation fitting basis         ... AVAILABLE
   # of basis functions in Aux-C            ...   2296
   # of shells in Aux-C                     ...    500
   Maximum angular momentum in Aux-C        ...      5
Auxiliary 'external' fitting basis          ... NOT available
Integral threshold                          ...     1.000000e-10
Primitive cut-off                           ...     1.000000e-11
Primitive pair pre-selection threshold      ...     1.000000e-11

Calculating pre-screening integrals         ... done (  0.1 sec) Dimension = 211
Organizing shell pair data                  ... done (  0.3 sec)
Shell pair information
Total number of shell pairs                 ...     22366
Shell pairs after pre-screening             ...     17591
Total number of primitive shell pairs       ...     59609
Primitive shell pairs kept                  ...     33868
          la=0 lb=0:   2770 shell pairs
          la=1 lb=0:   4015 shell pairs
          la=1 lb=1:   1505 shell pairs
          la=2 lb=0:   3489 shell pairs
          la=2 lb=1:   2471 shell pairs
          la=2 lb=2:   1015 shell pairs
          la=3 lb=0:    924 shell pairs
          la=3 lb=1:    700 shell pairs
          la=3 lb=2:    608 shell pairs
          la=3 lb=3:     94 shell pairs

Calculating one electron integrals          ... done (  0.0 sec)
Calculating ECP integrals                   ... done (  8.8 sec)
Calculating RI/J V-Matrix + Cholesky decomp.... done (  0.1 sec)
Calculating RI/C V-Matrix + Cholesky decomp.... done (  0.2 sec)
Calculating Nuclear repulsion               ... done (  0.0 sec) ENN=   5492.053950929332 Eh

SHARK setup successfully completed in   9.7 seconds

Maximum memory used throughout the entire GTOINT-calculation: 44.1 MB


           ************************************************************
           *        Program running with 8 parallel MPI-processes     *
           *              working on a common directory               *
           ************************************************************
-------------------------------------------------------------------------------
                                 ORCA SCF
-------------------------------------------------------------------------------

------------
SCF SETTINGS
------------
Hamiltonian:
 Ab initio Hamiltonian  Method          .... Hartree-Fock(GTOs)
 RI-approximation to the Coulomb term is turned on
   Number of AuxJ basis functions       .... 1335
   RIJ-COSX (HFX calculated with COS-X)).... on


General Settings:
 Integral files         IntName         .... nevpt2
 Hartree-Fock type      HFTyp           .... CASSCF
 Total Charge           Charge          ....    0
 Multiplicity           Mult            ....    5
 Number of Electrons    NEL             ....  290
 Basis Dimension        Dim             ....  605
 Nuclear Repulsion      ENuc            ....   5492.0539509293 Eh


Diagonalization of the overlap matrix:
Smallest eigenvalue                        ... 1.797e-04
Time for diagonalization                   ...    0.090 sec
Threshold for overlap eigenvalues          ... 1.000e-08
Number of eigenvalues below threshold      ... 0
Time for construction of square roots      ...    0.038 sec
Total time needed                          ...    0.130 sec

---------------------
INITIAL GUESS: MOREAD
---------------------
Guess MOs are being read from file: casscf.gbw
Input Geometry matches current geometry (good)
Input basis set matches current basis set (good)
MOs were renormalized
Gram-Schmidt orthogonalization of all MOs with pivot on actives
                      ------------------
                      INITIAL GUESS DONE (   2.1 sec)
                      ------------------
--------------------
COSX GRID GENERATION
--------------------

GRIDX 1
-------
General Integration Accuracy     IntAcc      ... 3.816
Radial Grid Type                 RadialGrid  ... OptM3 with GC (2021)
Angular Grid (max. ang.)         AngularGrid ... 1 (Lebedev-50)
Angular grid pruning method      GridPruning ... 4 (adaptive)
Weight generation scheme         WeightScheme... Becke
Basis function cutoff            BFCut       ... 1.0000e-10
Integration weight cutoff        WCut        ... 1.0000e-14
Angular grids for H and He will be reduced by one unit
Partially contracted basis set               ... on
Rotationally invariant grid construction     ... off

Total number of grid points                  ...    17391
Total number of batches                      ...      280
Average number of points per batch           ...       62
Average number of grid points per atom       ...     1159
UseSFitting                                  ... on

GRIDX 2
-------
General Integration Accuracy     IntAcc      ... 4.020
Radial Grid Type                 RadialGrid  ... OptM3 with GC (2021)
Angular Grid (max. ang.)         AngularGrid ... 2 (Lebedev-110)
Angular grid pruning method      GridPruning ... 4 (adaptive)
Weight generation scheme         WeightScheme... Becke
Basis function cutoff            BFCut       ... 1.0000e-10
Integration weight cutoff        WCut        ... 1.0000e-14
Angular grids for H and He will be reduced by one unit
Partially contracted basis set               ... on
Rotationally invariant grid construction     ... off

Total number of grid points                  ...    52797
Total number of batches                      ...      833
Average number of points per batch           ...       63
Average number of grid points per atom       ...     3520
UseSFitting                                  ... on

GRIDX 3
-------
General Integration Accuracy     IntAcc      ... 4.338
Radial Grid Type                 RadialGrid  ... OptM3 with GC (2021)
Angular Grid (max. ang.)         AngularGrid ... 3 (Lebedev-194)
Angular grid pruning method      GridPruning ... 4 (adaptive)
Weight generation scheme         WeightScheme... Becke
Basis function cutoff            BFCut       ... 1.0000e-10
Integration weight cutoff        WCut        ... 1.0000e-14
Angular grids for H and He will be reduced by one unit
Partially contracted basis set               ... on
Rotationally invariant grid construction     ... off

Total number of grid points                  ...    96057
Total number of batches                      ...     1511
Average number of points per batch           ...       63
Average number of grid points per atom       ...     6404
UseSFitting                                  ... on

Time for X-Grid setup             =    1.234 sec



 ... the calculation is a CASSCF calculation -I'm leaving here GOOD LUCK!!!



           ************************************************************
           *        Program running with 8 parallel MPI-processes     *
           *              working on a common directory               *
           ************************************************************
-------------------------------------------------------------------------------
                              ORCA-CASSCF
-------------------------------------------------------------------------------

Setting up the integral package       ... done
Setting up the integral package (RI)  ... done
Building the CAS space                ... done (5 configurations for Mult=5)
Building the CAS space                ... done (35 configurations for Mult=3)

 CASSCF (estimated) memory needed     ... 150.4 MB
 NEVPT2 (estimated) memory needed     ... 543.4 MB


SYSTEM-SPECIFIC SETTINGS:
Number of active electrons          ...    6
Number of active orbitals           ...    5
Total number of electrons           ...  290
Total number of orbitals            ...  605
Total number aux. functions         ... 2296

Determined orbital ranges:
   Internal       0 -  141 ( 142 orbitals)
   Active       142 -  146 (   5 orbitals)
   External     147 -  604 ( 458 orbitals)
Number of rotation parameters      ...  68036

CI-STEP:
CI strategy                         ... General CI
Number of multiplicity blocks       ...    2
BLOCK  1 WEIGHT=   0.5000
  Multiplicity                      ...    5
  #(Configurations)                 ...    5
  #(CSFs)                           ...    5
  #(Roots)                          ...    5
    ROOT=0 WEIGHT=    0.100000
    ROOT=1 WEIGHT=    0.100000
    ROOT=2 WEIGHT=    0.100000
    ROOT=3 WEIGHT=    0.100000
    ROOT=4 WEIGHT=    0.100000

BLOCK  2 WEIGHT=   0.5000
  Multiplicity                      ...    3
  #(Configurations)                 ...   35
  #(CSFs)                           ...   45
  #(Roots)                          ...   45
    ROOT=0 WEIGHT=    0.011111
    ROOT=1 WEIGHT=    0.011111
    ROOT=2 WEIGHT=    0.011111
    ROOT=3 WEIGHT=    0.011111
    ROOT=4 WEIGHT=    0.011111
    ROOT=5 WEIGHT=    0.011111
    ROOT=6 WEIGHT=    0.011111
    ROOT=7 WEIGHT=    0.011111
    ROOT=8 WEIGHT=    0.011111
    ROOT=9 WEIGHT=    0.011111
    ROOT=10 WEIGHT=    0.011111
    ROOT=11 WEIGHT=    0.011111
    ROOT=12 WEIGHT=    0.011111
    ROOT=13 WEIGHT=    0.011111
    ROOT=14 WEIGHT=    0.011111
    ROOT=15 WEIGHT=    0.011111
    ROOT=16 WEIGHT=    0.011111
    ROOT=17 WEIGHT=    0.011111
    ROOT=18 WEIGHT=    0.011111
    ROOT=19 WEIGHT=    0.011111
    ROOT=20 WEIGHT=    0.011111
    ROOT=21 WEIGHT=    0.011111
    ROOT=22 WEIGHT=    0.011111
    ROOT=23 WEIGHT=    0.011111
    ROOT=24 WEIGHT=    0.011111
    ROOT=25 WEIGHT=    0.011111
    ROOT=26 WEIGHT=    0.011111
    ROOT=27 WEIGHT=    0.011111
    ROOT=28 WEIGHT=    0.011111
    ROOT=29 WEIGHT=    0.011111
    ROOT=30 WEIGHT=    0.011111
    ROOT=31 WEIGHT=    0.011111
    ROOT=32 WEIGHT=    0.011111
    ROOT=33 WEIGHT=    0.011111
    ROOT=34 WEIGHT=    0.011111
    ROOT=35 WEIGHT=    0.011111
    ROOT=36 WEIGHT=    0.011111
    ROOT=37 WEIGHT=    0.011111
    ROOT=38 WEIGHT=    0.011111
    ROOT=39 WEIGHT=    0.011111
    ROOT=40 WEIGHT=    0.011111
    ROOT=41 WEIGHT=    0.011111
    ROOT=42 WEIGHT=    0.011111
    ROOT=43 WEIGHT=    0.011111
    ROOT=44 WEIGHT=    0.011111

  PrintLevel                        ...    1
  N(GuessMat)                       ...       512
  MaxDim(CI)                        ...        10
  MaxIter(CI)                       ...        64
  Energy Tolerance CI               ...  1.00e-08
  Residual Tolerance CI             ...  1.00e-08
  Shift(CI)                         ...  1.00e-04

INTEGRAL-TRANSFORMATION-STEP:
  Algorithm                         ... RI-MO

ORBITAL-IMPROVEMENT-STEP:
  Algorithm                         ... SuperCI(PT)
  Default Parametrization           ... CAYLEY
  Act-Act rotations                 ... depends on algorithm used

  Note: SuperCI(PT) will ignore FreezeIE, FreezeAct and FreezeGrad. In general Default settings are encouraged.
        In conjunction with ShiftUp, ShiftDn or GradScaling the performance of SuperCI(PT) is less optimal.  

  MaxRot                            ... 2.00e-01 
  Max. no of vectors (DIIS)         ... 15
  DThresh (cut-off) metric          ... 1.00e-06
  Switch step at gradient           ...  3.00e-02 
  Switch step at iteration          ...        50   
  Switch step to                    ... SuperCI(PT)    

SCF-SETTINGS:
  Incremental                       ... off
  RIJCOSX approximation             ... on
  UseFinalGrid                      ... on
  RI-JK approximation               ... off
  AO integral handling              ... DIRECT
  Integral Neglect Thresh           ...  1.00e-10
  Primitive cutoff TCut             ...  1.00e-11
  Energy convergence tolerance      ...  1.00e-07
  Orbital gradient convergence      ...  1.00e-03
  Max. number of iterations         ...        75  

PT2-SETTINGS:
  A PT2 calculation will be performed on top of the CASSCF wave function (PT2 = SC-NEVPT2)   
 CI step strategy                   ... General CI
  D4C handling                      ... on the fly 
  CI truncation for D4C at          ...  1.00e-14
  CI truncation for D3  at          ...  1.00e-14
  Orbitals                          ... canonical for each state 
  Last  frozen  orbital             ... 4
  First deleted orbital             ... 605
  RI Step                           ... store IJV(array) (MC_ONDISK during integral transformation) 

PROPERTIES-SETTINGS:
  Spin orbit coupling               ... true
  GTensor                           ... true
  QDPT diagonal energies            ... NEVPT2 energies 

FINAL ORBITALS:
  Active   Orbitals                 ... natural 
  Internal Orbitals                 ... canonical 
  External Orbitals                 ... canonical 

------------------
CAS-SCF ITERATIONS
------------------


MACRO-ITERATION   1: 
   --- Inactive Energy E0 = -2921.91672732 Eh
CI-ITERATION   0: 
 -2930.591140356   0.000000000000 (    0.00)
 -2930.556987226   0.000000000000
 -2930.552832225   0.000000000000
 -2930.536487879   0.000000000000
 -2930.533048635   0.000000000000
   CI-PROBLEM SOLVED
   DENSITIES MADE
CI-ITERATION   0: 
 -2930.549092632   0.000000000000 (    0.00)
 -2930.545885509   0.000000000000
 -2930.537476263   0.000000000000
 -2930.533543173   0.000000000000
 -2930.529311462   0.000000000000
 -2930.525280648   0.000000000000
 -2930.522250318   0.000000000000
 -2930.517916211   0.000000000000
 -2930.513661770   0.000000000000
 -2930.511663988   0.000000000000
 -2930.508515518   0.000000000000
 -2930.506790361   0.000000000000
 -2930.504459869   0.000000000000
 -2930.501083892   0.000000000000
 -2930.499962970   0.000000000000
 -2930.498428787   0.000000000000
 -2930.496545641   0.000000000000
 -2930.493907423   0.000000000000
 -2930.490436012   0.000000000000
 -2930.489176533   0.000000000000
 -2930.485627920   0.000000000000
 -2930.477631604   0.000000000000
 -2930.475509462   0.000000000000
 -2930.472663684   0.000000000000
 -2930.466928420   0.000000000000
 -2930.465229037   0.000000000000
 -2930.462847020   0.000000000000
 -2930.460294108   0.000000000000
 -2930.457172771   0.000000000000
 -2930.455401242   0.000000000000
 -2930.450200206   0.000000000000
 -2930.442921780   0.000000000000
 -2930.422800196   0.000000000000
 -2930.421955224   0.000000000000
 -2930.404736953   0.000000000000
 -2930.396594306   0.000000000000
 -2930.383254906   0.000000000000
 -2930.368445405   0.000000000000
 -2930.364225875   0.000000000000
 -2930.197562820   0.000000000000
 -2930.163269093   0.000000000000
 -2930.154414228   0.000000000000
 -2930.124360928   0.000000000000
 -2930.116666002   0.000000000000
 -2930.099820571   0.000000000000
   CI-PROBLEM SOLVED
   DENSITIES MADE

                 <<<<<<<<<<<<<<<<<<INITIAL CI STATE CHECK>>>>>>>>>>>>>>>>>>

BLOCK  1 MULT= 5 NROOTS= 5 
ROOT   0:  E=   -2930.5911403557 Eh
      0.67357 [     1]: 11121
      0.27353 [     3]: 12111
      0.05135 [     2]: 11211
ROOT   1:  E=   -2930.5569872261 Eh  0.929 eV   7495.7 cm**-1
      0.61680 [     2]: 11211
      0.27507 [     4]: 21111
      0.09236 [     1]: 11121
      0.01216 [     3]: 12111
      0.00360 [     0]: 11112
ROOT   2:  E=   -2930.5528322247 Eh  1.042 eV   8407.7 cm**-1
      0.68791 [     3]: 12111
      0.22711 [     1]: 11121
      0.03533 [     2]: 11211
      0.03369 [     4]: 21111
      0.01596 [     0]: 11112
ROOT   3:  E=   -2930.5364878794 Eh  1.487 eV  11994.8 cm**-1
      0.58299 [     0]: 11112
      0.28703 [     4]: 21111
      0.10363 [     2]: 11211
      0.02634 [     3]: 12111
ROOT   4:  E=   -2930.5330486348 Eh  1.581 eV  12749.7 cm**-1
      0.40370 [     4]: 21111
      0.39641 [     0]: 11112
      0.19288 [     2]: 11211
      0.00696 [     1]: 11121

BLOCK  2 MULT= 3 NROOTS=45 
ROOT   0:  E=   -2930.5490926322 Eh
      0.26826 [     8]: 10221
      0.26451 [    13]: 11211
      0.15659 [    20]: 12201
      0.10764 [    28]: 21111
      0.08870 [    23]: 20121
      0.06947 [    33]: 22101
      0.01549 [    11]: 11121
      0.01474 [    18]: 12111
      0.00255 [    10]: 11112
ROOT   1:  E=   -2930.5458855089 Eh  0.087 eV    703.9 cm**-1
      0.47424 [    18]: 12111
      0.39606 [    11]: 11121
      0.03409 [    20]: 12201
      0.01798 [    13]: 11211
      0.01406 [    33]: 22101
      0.00908 [    10]: 11112
      0.00754 [     6]: 10122
      0.00670 [    28]: 21111
      0.00655 [    26]: 21021
      0.00600 [    17]: 12102
      0.00557 [    16]: 12021
      0.00497 [    19]: 12120
      0.00445 [    29]: 21120
      0.00391 [    32]: 22011
      0.00335 [     4]: 02121
ROOT   2:  E=   -2930.5374762629 Eh  0.316 eV   2549.5 cm**-1
      0.20072 [    18]: 12111
      0.15155 [    11]: 11121
      0.10603 [    26]: 21021
      0.08384 [    28]: 21111
      0.05733 [    16]: 12021
      0.05628 [     2]: 01221
      0.05449 [    32]: 22011
      0.05146 [     8]: 10221
      0.04699 [    23]: 20121
      0.03596 [    10]: 11112
      0.03386 [    13]: 11211
      0.02329 [    33]: 22101
      0.01872 [     4]: 02121
      0.01848 [    17]: 12102
      0.01036 [     9]: 11022
      0.00879 [     6]: 10122
      0.00814 [    15]: 12012
      0.00724 [     3]: 02112
      0.00680 [     0]: 01122
      0.00676 [     5]: 02211
      0.00413 [    14]: 11220
      0.00260 [    21]: 12210
ROOT   3:  E=   -2930.5335431727 Eh  0.423 eV   3412.7 cm**-1
      0.22412 [    23]: 20121
      0.16220 [     6]: 10122
      0.14198 [     8]: 10221
      0.08488 [    28]: 21111
      0.04958 [    11]: 11121
      0.04364 [    10]: 11112
      0.03785 [    13]: 11211
      0.03220 [    26]: 21021
      0.03195 [    18]: 12111
      0.02500 [    29]: 21120
      0.02006 [    33]: 22101
      0.01843 [    24]: 20211
      0.01820 [     2]: 01221
      0.01748 [     0]: 01122
      0.01733 [     9]: 11022
      0.01173 [    32]: 22011
      0.01124 [    16]: 12021
      0.01010 [     7]: 10212
      0.00874 [     4]: 02121
      0.00747 [     3]: 02112
      0.00733 [    34]: 22110
      0.00411 [    17]: 12102
      0.00402 [    14]: 11220
      0.00275 [     1]: 01212
      0.00273 [    15]: 12012
ROOT   4:  E=   -2930.5293114621 Eh  0.538 eV   4341.5 cm**-1
      0.22166 [    10]: 11112
      0.19979 [     6]: 10122
      0.15099 [    17]: 12102
      0.08936 [    28]: 21111
      0.07378 [    23]: 20121
      0.05804 [    33]: 22101
      0.04749 [    13]: 11211
      0.03160 [    20]: 12201
      0.02726 [     2]: 01221
      0.01531 [    11]: 11121
      0.01376 [    12]: 11202
      0.01175 [    19]: 12120
      0.01089 [     0]: 01122
      0.00739 [     7]: 10212
      0.00689 [    30]: 21201
      0.00536 [     5]: 02211
      0.00516 [    29]: 21120
      0.00366 [     9]: 11022
      0.00366 [     3]: 02112
      0.00353 [    18]: 12111
      0.00341 [     8]: 10221
ROOT   5:  E=   -2930.5252806484 Eh  0.648 eV   5226.1 cm**-1
      0.24197 [    11]: 11121
      0.17673 [     6]: 10122
      0.09960 [    18]: 12111
      0.08033 [    13]: 11211
      0.07565 [    10]: 11112
      0.05242 [     2]: 01221
      0.04461 [    28]: 21111
      0.02916 [    19]: 12120
      0.02756 [     8]: 10221
      0.02410 [     9]: 11022
      0.02375 [    33]: 22101
      0.02059 [    20]: 12201
      0.01613 [     0]: 01122
      0.01414 [     7]: 10212
      0.01125 [     4]: 02121
      0.01069 [    15]: 12012
      0.01006 [     3]: 02112
      0.00836 [    23]: 20121
      0.00805 [    21]: 12210
      0.00622 [     5]: 02211
      0.00407 [    30]: 21201
      0.00363 [    26]: 21021
      0.00251 [    14]: 11220
ROOT   6:  E=   -2930.5222503183 Eh  0.730 eV   5891.2 cm**-1
      0.23533 [    10]: 11112
      0.12225 [    17]: 12102
      0.09547 [    28]: 21111
      0.06114 [    19]: 12120
      0.06056 [    13]: 11211
      0.06054 [     0]: 01122
      0.06025 [    33]: 22101
      0.04414 [    20]: 12201
      0.04003 [    11]: 11121
      0.02596 [     9]: 11022
      0.02040 [    12]: 11202
      0.02002 [    23]: 20121
      0.01949 [     3]: 02112
      0.01791 [    26]: 21021
      0.01708 [    18]: 12111
      0.01442 [    14]: 11220
      0.01192 [     6]: 10122
      0.01190 [    30]: 21201
      0.01098 [    16]: 12021
      0.00993 [     8]: 10221
      0.00852 [    15]: 12012
      0.00728 [     1]: 01212
      0.00652 [    32]: 22011
      0.00573 [     7]: 10212
      0.00444 [    29]: 21120
ROOT   7:  E=   -2930.5179162110 Eh  0.848 eV   6842.4 cm**-1
      0.19167 [    11]: 11121
      0.09291 [    26]: 21021
      0.08861 [    14]: 11220
      0.08571 [     4]: 02121
      0.07621 [    18]: 12111
      0.06659 [    13]: 11211
      0.06601 [     5]: 02211
      0.05362 [    28]: 21111
      0.04249 [    16]: 12021
      0.03805 [    32]: 22011
      0.03799 [     8]: 10221
      0.03373 [    33]: 22101
      0.02770 [     9]: 11022
      0.02114 [    19]: 12120
      0.01854 [     2]: 01221
      0.00842 [    29]: 21120
      0.00737 [     3]: 02112
      0.00681 [    20]: 12201
      0.00648 [    15]: 12012
      0.00610 [    23]: 20121
      0.00471 [    10]: 11112
      0.00458 [    30]: 21201
      0.00433 [    21]: 12210
      0.00418 [    34]: 22110
ROOT   8:  E=   -2930.5136617695 Eh  0.964 eV   7776.2 cm**-1
      0.20663 [    14]: 11220
      0.19825 [    21]: 12210
      0.10209 [     5]: 02211
      0.08637 [    29]: 21120
      0.05753 [    34]: 22110
      0.05534 [    13]: 11211
      0.05248 [    28]: 21111
      0.05151 [    11]: 11121
      0.03977 [    18]: 12111
      0.02542 [     2]: 01221
      0.02345 [    20]: 12201
      0.01902 [     0]: 01122
      0.01188 [     9]: 11022
      0.01080 [     3]: 02112
      0.01046 [    19]: 12120
      0.00889 [    24]: 20211
      0.00799 [     7]: 10212
      0.00695 [    10]: 11112
      0.00580 [     8]: 10221
      0.00450 [    32]: 22011
      0.00263 [     1]: 01212
ROOT   9:  E=   -2930.5116639882 Eh  1.018 eV   8214.6 cm**-1
      0.18475 [    11]: 11121
      0.17100 [    18]: 12111
      0.15597 [    19]: 12120
      0.11583 [     2]: 01221
      0.08943 [    14]: 11220
      0.05248 [     5]: 02211
      0.02879 [    23]: 20121
      0.02471 [     3]: 02112
      0.02101 [    13]: 11211
      0.02072 [    32]: 22011
      0.02066 [    34]: 22110
      0.01747 [     9]: 11022
      0.01722 [    28]: 21111
      0.01650 [     4]: 02121
      0.01363 [    29]: 21120
      0.01066 [    30]: 21201
      0.00812 [    24]: 20211
      0.00786 [    20]: 12201
      0.00662 [    10]: 11112
      0.00410 [    16]: 12021
      0.00328 [     6]: 10122
      0.00280 [    33]: 22101
ROOT  10:  E=   -2930.5085155178 Eh  1.104 eV   8905.6 cm**-1
      0.17074 [     2]: 01221
      0.10737 [    18]: 12111
      0.10227 [    13]: 11211
      0.07753 [    11]: 11121
      0.07708 [    34]: 22110
      0.07581 [    16]: 12021
      0.05349 [    21]: 12210
      0.05083 [     8]: 10221
      0.05056 [    28]: 21111
      0.05020 [    32]: 22011
      0.03800 [    19]: 12120
      0.02350 [    26]: 21021
      0.01629 [     4]: 02121
      0.01197 [     1]: 01212
      0.01101 [    22]: 20112
      0.00925 [    17]: 12102
      0.00900 [     7]: 10212
      0.00848 [    14]: 11220
      0.00795 [     0]: 01122
      0.00697 [    31]: 21210
      0.00591 [    25]: 21012
      0.00585 [    20]: 12201
      0.00497 [     5]: 02211
      0.00456 [    10]: 11112
      0.00435 [     6]: 10122
      0.00361 [    33]: 22101
      0.00275 [    29]: 21120
ROOT  11:  E=   -2930.5067903611 Eh  1.151 eV   9284.3 cm**-1
      0.22860 [    11]: 11121
      0.11588 [    19]: 12120
      0.10490 [    13]: 11211
      0.08148 [    18]: 12111
      0.07299 [    28]: 21111
      0.07274 [    23]: 20121
      0.05928 [    34]: 22110
      0.03638 [    32]: 22011
      0.03367 [     2]: 01221
      0.02344 [    26]: 21021
      0.02288 [     0]: 01122
      0.01909 [     4]: 02121
      0.01872 [    21]: 12210
      0.01506 [     8]: 10221
      0.01411 [    33]: 22101
      0.01320 [    14]: 11220
      0.01315 [    15]: 12012
      0.00868 [    24]: 20211
      0.00810 [    10]: 11112
      0.00794 [    29]: 21120
      0.00677 [     3]: 02112
      0.00617 [    20]: 12201
      0.00421 [     1]: 01212
      0.00306 [    31]: 21210
      0.00258 [    22]: 20112
ROOT  12:  E=   -2930.5044598689 Eh  1.215 eV   9795.8 cm**-1
      0.14007 [    18]: 12111
      0.11699 [     1]: 01212
      0.11169 [    10]: 11112
      0.07415 [    13]: 11211
      0.06870 [    34]: 22110
      0.06727 [     5]: 02211
      0.06685 [    11]: 11121
      0.04661 [    31]: 21210
      0.04638 [    16]: 12021
      0.03488 [     4]: 02121
      0.03355 [    19]: 12120
      0.02544 [    21]: 12210
      0.02449 [     2]: 01221
      0.01603 [    12]: 11202
      0.01581 [    20]: 12201
      0.01482 [    28]: 21111
      0.01437 [     7]: 10212
      0.01424 [     6]: 10122
      0.01259 [    25]: 21012
      0.01137 [    22]: 20112
      0.00893 [    29]: 21120
      0.00733 [    27]: 21102
      0.00709 [    32]: 22011
      0.00527 [    23]: 20121
      0.00284 [     0]: 01122
      0.00277 [     9]: 11022
ROOT  13:  E=   -2930.5010838924 Eh  1.306 eV  10536.7 cm**-1
      0.12045 [    29]: 21120
      0.10892 [    21]: 12210
      0.08425 [    18]: 12111
      0.07972 [    34]: 22110
      0.06983 [     9]: 11022
      0.06958 [    13]: 11211
      0.06951 [     0]: 01122
      0.06571 [    14]: 11220
      0.05542 [     1]: 01212
      0.05051 [    11]: 11121
      0.04468 [    15]: 12012
      0.04059 [    10]: 11112
      0.03849 [     3]: 02112
      0.02903 [    28]: 21111
      0.02786 [    31]: 21210
      0.01074 [    19]: 12120
      0.00924 [    32]: 22011
      0.00412 [     6]: 10122
      0.00327 [    20]: 12201
      0.00313 [     8]: 10221
      0.00280 [    25]: 21012
      0.00278 [    17]: 12102
ROOT  14:  E=   -2930.4999629701 Eh  1.337 eV  10782.7 cm**-1
      0.31964 [    29]: 21120
      0.09121 [    14]: 11220
      0.08032 [    21]: 12210
      0.07247 [     0]: 01122
      0.05692 [    10]: 11112
      0.04787 [    19]: 12120
      0.04647 [    18]: 12111
      0.04486 [    34]: 22110
      0.04177 [     1]: 01212
      0.03829 [    28]: 21111
      0.03630 [     9]: 11022
      0.02842 [    31]: 21210
      0.01912 [    13]: 11211
      0.01862 [    25]: 21012
      0.01584 [    11]: 11121
      0.01140 [     2]: 01221
      0.00759 [     6]: 10122
      0.00565 [     7]: 10212
      0.00431 [    16]: 12021
      0.00322 [    33]: 22101
ROOT  15:  E=   -2930.4984287869 Eh  1.379 eV  11119.4 cm**-1
      0.38357 [    11]: 11121
      0.15824 [    18]: 12111
      0.08698 [     5]: 02211
      0.03905 [    10]: 11112
      0.03602 [    13]: 11211
      0.03222 [    21]: 12210
      0.03192 [    14]: 11220
      0.02873 [    32]: 22011
      0.02761 [    19]: 12120
      0.02481 [    26]: 21021
      0.02051 [    16]: 12021
      0.02003 [    28]: 21111
      0.01875 [     1]: 01212
      0.01791 [    31]: 21210
      0.01696 [    15]: 12012
      0.01336 [     9]: 11022
      0.01192 [     4]: 02121
      0.00649 [     6]: 10122
      0.00620 [    34]: 22110
      0.00334 [     0]: 01122
      0.00293 [     3]: 02112
      0.00271 [    29]: 21120
      0.00270 [     7]: 10212
ROOT  16:  E=   -2930.4965456409 Eh  1.430 eV  11532.7 cm**-1
      0.17446 [     1]: 01212
      0.16053 [     5]: 02211
      0.14371 [    11]: 11121
      0.08623 [    34]: 22110
      0.06189 [    26]: 21021
      0.05947 [    10]: 11112
      0.05652 [    28]: 21111
      0.05385 [    13]: 11211
      0.04446 [     4]: 02121
      0.02543 [    29]: 21120
      0.02427 [     2]: 01221
      0.02097 [    18]: 12111
      0.01224 [    16]: 12021
      0.00951 [     7]: 10212
      0.00899 [    32]: 22011
      0.00661 [     8]: 10221
      0.00657 [     3]: 02112
      0.00603 [    20]: 12201
      0.00600 [    14]: 11220
      0.00513 [    33]: 22101
      0.00450 [    31]: 21210
      0.00447 [    12]: 11202
      0.00426 [    24]: 20211
      0.00343 [    21]: 12210
      0.00304 [     9]: 11022
ROOT  17:  E=   -2930.4939074227 Eh  1.502 eV  12111.8 cm**-1
      0.19136 [    13]: 11211
      0.13685 [    10]: 11112
      0.10726 [    34]: 22110
      0.08151 [    28]: 21111
      0.08090 [    21]: 12210
      0.07386 [    26]: 21021
      0.06255 [    25]: 21012
      0.04522 [     7]: 10212
      0.03282 [     2]: 01221
      0.02763 [    22]: 20112
      0.02513 [    18]: 12111
      0.01905 [    15]: 12012
      0.01545 [     8]: 10221
      0.01329 [    32]: 22011
      0.01065 [    29]: 21120
      0.00887 [    12]: 11202
      0.00879 [     4]: 02121
      0.00821 [    16]: 12021
      0.00798 [    31]: 21210
      0.00761 [    33]: 22101
      0.00624 [    27]: 21102
      0.00608 [     9]: 11022
      0.00486 [     3]: 02112
      0.00468 [    19]: 12120
      0.00320 [     0]: 01122
      0.00278 [     1]: 01212
ROOT  18:  E=   -2930.4904360116 Eh  1.596 eV  12873.6 cm**-1
      0.10624 [     2]: 01221
      0.09394 [    18]: 12111
      0.07277 [    28]: 21111
      0.07024 [    16]: 12021
      0.06936 [    11]: 11121
      0.06912 [    23]: 20121
      0.05801 [    13]: 11211
      0.05410 [     7]: 10212
      0.05267 [     8]: 10221
      0.04568 [    26]: 21021
      0.04490 [     4]: 02121
      0.03999 [     1]: 01212
      0.03612 [    22]: 20112
      0.03570 [     3]: 02112
      0.03414 [    32]: 22011
      0.02893 [    25]: 21012
      0.01601 [    12]: 11202
      0.01537 [    10]: 11112
      0.01444 [    34]: 22110
      0.00988 [    27]: 21102
      0.00961 [    31]: 21210
      0.00704 [     6]: 10122
      0.00428 [    19]: 12120
      0.00368 [    15]: 12012
      0.00273 [    20]: 12201
ROOT  19:  E=   -2930.4891765332 Eh  1.630 eV  13150.1 cm**-1
      0.10928 [    11]: 11121
      0.10382 [    13]: 11211
      0.10058 [     7]: 10212
      0.08994 [    32]: 22011
      0.07513 [     1]: 01212
      0.05792 [    16]: 12021
      0.04989 [    25]: 21012
      0.04665 [    28]: 21111
      0.04504 [     5]: 02211
      0.04091 [    34]: 22110
      0.03883 [    12]: 11202
      0.03797 [     3]: 02112
      0.03410 [    22]: 20112
      0.03129 [     4]: 02121
      0.03064 [    18]: 12111
      0.02596 [    23]: 20121
      0.02169 [    20]: 12201
      0.01117 [    33]: 22101
      0.01064 [     2]: 01221
      0.00753 [    21]: 12210
      0.00689 [    27]: 21102
      0.00498 [     6]: 10122
      0.00339 [    10]: 11112
      0.00268 [     8]: 10221
      0.00256 [    31]: 21210
ROOT  20:  E=   -2930.4856279203 Eh  1.727 eV  13928.9 cm**-1
      0.26658 [    28]: 21111
      0.11547 [    13]: 11211
      0.05947 [    10]: 11112
      0.05348 [    18]: 12111
      0.05049 [    33]: 22101
      0.04395 [    22]: 20112
      0.03957 [    21]: 12210
      0.03620 [     5]: 02211
      0.03482 [    26]: 21021
      0.03163 [     8]: 10221
      0.02938 [    34]: 22110
      0.02885 [    11]: 11121
      0.02093 [    14]: 11220
      0.01994 [    16]: 12021
      0.01963 [    23]: 20121
      0.01935 [    32]: 22011
      0.01795 [     4]: 02121
      0.01559 [    29]: 21120
      0.01494 [    27]: 21102
      0.01446 [    31]: 21210
      0.01259 [    15]: 12012
      0.01147 [    25]: 21012
      0.01055 [     3]: 02112
      0.00873 [     6]: 10122
      0.00791 [     7]: 10212
      0.00750 [    20]: 12201
ROOT  21:  E=   -2930.4776316045 Eh  1.945 eV  15683.9 cm**-1
      0.18560 [    13]: 11211
      0.16645 [    22]: 20112
      0.14372 [    28]: 21111
      0.12585 [    10]: 11112
      0.08426 [    24]: 20211
      0.05799 [    27]: 21102
      0.03134 [     1]: 01212
      0.02532 [    15]: 12012
      0.01885 [     8]: 10221
      0.01836 [     7]: 10212
      0.01685 [     0]: 01122
      0.01627 [    26]: 21021
      0.01473 [    23]: 20121
      0.01268 [    25]: 21012
      0.01240 [    30]: 21201
      0.01003 [     6]: 10122
      0.00997 [    32]: 22011
      0.00993 [    18]: 12111
      0.00733 [    17]: 12102
      0.00592 [     3]: 02112
      0.00564 [    12]: 11202
      0.00504 [    20]: 12201
      0.00315 [     5]: 02211
ROOT  22:  E=   -2930.4755094621 Eh  2.002 eV  16149.6 cm**-1
      0.21406 [    13]: 11211
      0.15127 [    28]: 21111
      0.09735 [    18]: 12111
      0.09068 [    32]: 22011
      0.08284 [    15]: 12012
      0.08150 [     7]: 10212
      0.03119 [    26]: 21021
      0.03058 [    12]: 11202
      0.02757 [    11]: 11121
      0.02391 [    24]: 20211
      0.02017 [    14]: 11220
      0.01935 [    34]: 22110
      0.01859 [     8]: 10221
      0.01858 [     5]: 02211
      0.01652 [    20]: 12201
      0.01384 [     3]: 02112
      0.01228 [     0]: 01122
      0.01206 [    10]: 11112
      0.00601 [     4]: 02121
      0.00555 [    30]: 21201
      0.00396 [    31]: 21210
      0.00353 [    33]: 22101
      0.00300 [     1]: 01212
ROOT  23:  E=   -2930.4726636845 Eh  2.080 eV  16774.2 cm**-1
      0.31111 [    18]: 12111
      0.11896 [    11]: 11121
      0.07267 [    25]: 21012
      0.06605 [     1]: 01212
      0.04713 [    14]: 11220
      0.04683 [    28]: 21111
      0.04232 [    13]: 11211
      0.03478 [     4]: 02121
      0.03005 [    32]: 22011
      0.02712 [     0]: 01122
      0.02458 [     5]: 02211
      0.02407 [     7]: 10212
      0.02323 [     2]: 01221
      0.01943 [    12]: 11202
      0.01853 [    33]: 22101
      0.01522 [    20]: 12201
      0.01513 [    10]: 11112
      0.01042 [    15]: 12012
      0.00980 [    27]: 21102
      0.00705 [    19]: 12120
      0.00619 [    34]: 22110
      0.00608 [     8]: 10221
      0.00450 [    26]: 21021
      0.00441 [    22]: 20112
      0.00377 [     9]: 11022
      0.00324 [    31]: 21210
      0.00300 [    21]: 12210
ROOT  24:  E=   -2930.4669284202 Eh  2.236 eV  18033.0 cm**-1
      0.09860 [    29]: 21120
      0.09501 [    19]: 12120
      0.08899 [     9]: 11022
      0.08698 [    18]: 12111
      0.07177 [    25]: 21012
      0.06595 [    31]: 21210
      0.04568 [    28]: 21111
      0.04278 [    10]: 11112
      0.04110 [     5]: 02211
      0.03805 [    26]: 21021
      0.03735 [    34]: 22110
      0.03665 [    24]: 20211
      0.03515 [     6]: 10122
      0.02752 [    13]: 11211
      0.02617 [     7]: 10212
      0.02470 [     1]: 01212
      0.02461 [    20]: 12201
      0.02226 [    30]: 21201
      0.02146 [    32]: 22011
      0.01279 [     3]: 02112
      0.01024 [    12]: 11202
      0.01012 [    14]: 11220
      0.00926 [    11]: 11121
      0.00817 [    21]: 12210
      0.00363 [     0]: 01122
      0.00292 [    16]: 12021
      0.00252 [    33]: 22101
ROOT  25:  E=   -2930.4652290372 Eh  2.282 eV  18405.9 cm**-1
      0.20070 [    19]: 12120
      0.09328 [    21]: 12210
      0.08282 [    16]: 12021
      0.05811 [     5]: 02211
      0.05556 [    14]: 11220
      0.05336 [    28]: 21111
      0.04492 [    34]: 22110
      0.03919 [     4]: 02121
      0.03374 [    11]: 11121
      0.03054 [    32]: 22011
      0.02969 [    31]: 21210
      0.02904 [     7]: 10212
      0.02743 [    29]: 21120
      0.02649 [    25]: 21012
      0.02560 [    18]: 12111
      0.02553 [    10]: 11112
      0.02434 [     6]: 10122
      0.02091 [    13]: 11211
      0.02068 [    15]: 12012
      0.02028 [    26]: 21021
      0.01384 [    12]: 11202
      0.00939 [     1]: 01212
      0.00654 [    22]: 20112
      0.00644 [     2]: 01221
      0.00423 [     3]: 02112
      0.00421 [    17]: 12102
      0.00385 [    20]: 12201
      0.00350 [    23]: 20121
ROOT  26:  E=   -2930.4628470198 Eh  2.347 eV  18928.7 cm**-1
      0.12462 [    28]: 21111
      0.09812 [    26]: 21021
      0.08496 [    10]: 11112
      0.07472 [    18]: 12111
      0.06644 [    13]: 11211
      0.06417 [    11]: 11121
      0.06208 [    29]: 21120
      0.06133 [    31]: 21210
      0.05406 [     4]: 02121
      0.03519 [     0]: 01122
      0.03327 [     2]: 01221
      0.02686 [     9]: 11022
      0.02650 [    19]: 12120
      0.02426 [     1]: 01212
      0.02140 [    16]: 12021
      0.01731 [    34]: 22110
      0.01537 [    17]: 12102
      0.01510 [    21]: 12210
      0.01407 [    23]: 20121
      0.01105 [    32]: 22011
      0.00996 [    24]: 20211
      0.00945 [    30]: 21201
      0.00830 [     6]: 10122
      0.00769 [    15]: 12012
      0.00767 [     5]: 02211
      0.00561 [    12]: 11202
      0.00485 [     7]: 10212
      0.00453 [    22]: 20112
      0.00255 [    33]: 22101
ROOT  27:  E=   -2930.4602941078 Eh  2.416 eV  19489.0 cm**-1
      0.18616 [    10]: 11112
      0.13228 [     4]: 02121
      0.06302 [     2]: 01221
      0.06261 [    25]: 21012
      0.05606 [     7]: 10212
      0.05417 [     3]: 02112
      0.05247 [    32]: 22011
      0.04982 [    18]: 12111
      0.04443 [     1]: 01212
      0.04410 [    16]: 12021
      0.03415 [    13]: 11211
      0.03044 [    17]: 12102
      0.02910 [    19]: 12120
      0.02881 [    15]: 12012
      0.02568 [    12]: 11202
      0.01951 [    26]: 21021
      0.01515 [     6]: 10122
      0.01509 [    34]: 22110
      0.01027 [    31]: 21210
      0.00874 [    28]: 21111
      0.00811 [     5]: 02211
      0.00751 [    11]: 11121
      0.00562 [    21]: 12210
      0.00374 [    14]: 11220
      0.00370 [    22]: 20112
      0.00270 [    29]: 21120
ROOT  28:  E=   -2930.4571727715 Eh  2.501 eV  20174.1 cm**-1
      0.32229 [    10]: 11112
      0.09433 [    31]: 21210
      0.08542 [     0]: 01122
      0.07238 [    13]: 11211
      0.07042 [    22]: 20112
      0.05548 [     1]: 01212
      0.05413 [     6]: 10122
      0.03614 [    27]: 21102
      0.02779 [    17]: 12102
      0.02584 [    15]: 12012
      0.01794 [     8]: 10221
      0.01685 [    24]: 20211
      0.01663 [    18]: 12111
      0.01149 [    11]: 11121
      0.01134 [    29]: 21120
      0.01072 [     3]: 02112
      0.01048 [    14]: 11220
      0.00976 [    20]: 12201
      0.00871 [    28]: 21111
      0.00783 [    12]: 11202
      0.00708 [    23]: 20121
      0.00679 [    16]: 12021
      0.00460 [    34]: 22110
      0.00434 [    30]: 21201
      0.00252 [    26]: 21021
ROOT  29:  E=   -2930.4554012422 Eh  2.549 eV  20562.9 cm**-1
      0.16374 [    10]: 11112
      0.13417 [    24]: 20211
      0.10520 [    32]: 22011
      0.09982 [    31]: 21210
      0.08803 [    25]: 21012
      0.04839 [    28]: 21111
      0.04645 [    30]: 21201
      0.04162 [    18]: 12111
      0.03567 [    17]: 12102
      0.02582 [     0]: 01122
      0.02053 [    23]: 20121
      0.02027 [     7]: 10212
      0.01727 [     5]: 02211
      0.01703 [    11]: 11121
      0.01632 [    33]: 22101
      0.01529 [     9]: 11022
      0.01461 [     1]: 01212
      0.01261 [     3]: 02112
      0.01166 [    15]: 12012
      0.01111 [    16]: 12021
      0.01090 [    12]: 11202
      0.00853 [    19]: 12120
      0.00646 [    34]: 22110
      0.00536 [     4]: 02121
      0.00460 [     6]: 10122
      0.00433 [    13]: 11211
      0.00396 [    27]: 21102
      0.00257 [    20]: 12201
ROOT  30:  E=   -2930.4502002063 Eh  2.691 eV  21704.4 cm**-1
      0.17594 [    28]: 21111
      0.10711 [     3]: 02112
      0.10060 [    10]: 11112
      0.08533 [    13]: 11211
      0.08391 [    31]: 21210
      0.07747 [    25]: 21012
      0.07650 [     0]: 01122
      0.05789 [    22]: 20112
      0.05008 [    27]: 21102
      0.02972 [     9]: 11022
      0.02354 [    18]: 12111
      0.02194 [    12]: 11202
      0.02128 [     7]: 10212
      0.01482 [    15]: 12012
      0.01468 [    17]: 12102
      0.01086 [    29]: 21120
      0.00984 [    34]: 22110
      0.00709 [    32]: 22011
      0.00595 [    21]: 12210
      0.00420 [    11]: 11121
      0.00403 [     6]: 10122
      0.00391 [     5]: 02211
      0.00323 [    30]: 21201
      0.00253 [    23]: 20121
ROOT  31:  E=   -2930.4429217800 Eh  2.889 eV  23301.8 cm**-1
      0.12110 [     9]: 11022
      0.10521 [    14]: 11220
      0.09721 [    21]: 12210
      0.08750 [     3]: 02112
      0.07757 [     0]: 01122
      0.06269 [     4]: 02121
      0.04271 [     5]: 02211
      0.03941 [    15]: 12012
      0.03831 [    19]: 12120
      0.03826 [    29]: 21120
      0.03350 [    26]: 21021
      0.03318 [    16]: 12021
      0.02943 [    28]: 21111
      0.02926 [    25]: 21012
      0.02824 [     2]: 01221
      0.02808 [     6]: 10122
      0.02265 [    18]: 12111
      0.02016 [    34]: 22110
      0.01940 [    10]: 11112
      0.01452 [    22]: 20112
      0.00751 [    11]: 11121
      0.00619 [    13]: 11211
      0.00467 [     7]: 10212
      0.00423 [    24]: 20211
      0.00283 [    32]: 22011
ROOT  32:  E=   -2930.4228001955 Eh  3.437 eV  27718.0 cm**-1
      0.15293 [     0]: 01122
      0.12737 [     9]: 11022
      0.06062 [    10]: 11112
      0.05309 [     2]: 01221
      0.05274 [    29]: 21120
      0.04936 [    26]: 21021
      0.04670 [    16]: 12021
      0.04575 [    13]: 11211
      0.04505 [    15]: 12012
      0.04300 [    14]: 11220
      0.03525 [     3]: 02112
      0.03315 [     8]: 10221
      0.03196 [    28]: 21111
      0.02830 [    31]: 21210
      0.02345 [     6]: 10122
      0.02173 [    17]: 12102
      0.01820 [    11]: 11121
      0.01814 [    23]: 20121
      0.01743 [    18]: 12111
      0.01276 [     1]: 01212
      0.01256 [    21]: 12210
      0.01226 [    20]: 12201
      0.01176 [     4]: 02121
      0.00917 [    34]: 22110
      0.00707 [     5]: 02211
      0.00665 [     7]: 10212
      0.00634 [    33]: 22101
      0.00596 [    24]: 20211
      0.00387 [    12]: 11202
      0.00367 [    32]: 22011
      0.00361 [    30]: 21201
ROOT  33:  E=   -2930.4219552237 Eh  3.460 eV  27903.4 cm**-1
      0.11076 [     4]: 02121
      0.08923 [    28]: 21111
      0.08435 [     9]: 11022
      0.06340 [    23]: 20121
      0.05915 [    13]: 11211
      0.05554 [    16]: 12021
      0.04993 [    10]: 11112
      0.04783 [    26]: 21021
      0.04579 [    15]: 12012
      0.04238 [     3]: 02112
      0.03734 [     8]: 10221
      0.03542 [     6]: 10122
      0.03078 [    11]: 11121
      0.03040 [     2]: 01221
      0.02904 [    14]: 11220
      0.02879 [    18]: 12111
      0.02716 [    21]: 12210
      0.02607 [     0]: 01122
      0.02152 [    33]: 22101
      0.01892 [    20]: 12201
      0.01816 [    32]: 22011
      0.01143 [    31]: 21210
      0.00925 [     5]: 02211
      0.00700 [    17]: 12102
      0.00621 [    29]: 21120
      0.00383 [    34]: 22110
      0.00338 [    25]: 21012
      0.00280 [    24]: 20211
ROOT  34:  E=   -2930.4047369529 Eh  3.928 eV  31682.4 cm**-1
      0.19248 [    16]: 12021
      0.12958 [     4]: 02121
      0.08766 [    18]: 12111
      0.08120 [    11]: 11121
      0.07034 [    13]: 11211
      0.06012 [    28]: 21111
      0.03681 [    23]: 20121
      0.03597 [    15]: 12012
      0.03369 [    26]: 21021
      0.03245 [     8]: 10221
      0.02723 [     3]: 02112
      0.02697 [    20]: 12201
      0.02549 [    31]: 21210
      0.02507 [     5]: 02211
      0.01651 [    22]: 20112
      0.01611 [    25]: 21012
      0.01506 [    34]: 22110
      0.01440 [    33]: 22101
      0.00909 [     6]: 10122
      0.00901 [     0]: 01122
      0.00879 [    10]: 11112
      0.00823 [    19]: 12120
      0.00785 [     7]: 10212
      0.00598 [    32]: 22011
      0.00473 [     1]: 01212
      0.00389 [    27]: 21102
      0.00322 [    21]: 12210
      0.00269 [    30]: 21201
ROOT  35:  E=   -2930.3965943057 Eh  4.150 eV  33469.5 cm**-1
      0.16002 [    31]: 21210
      0.15813 [     3]: 02112
      0.06802 [    25]: 21012
      0.06674 [    22]: 20112
      0.06499 [     9]: 11022
      0.06251 [    34]: 22110
      0.06170 [    18]: 12111
      0.04079 [    16]: 12021
      0.03534 [    15]: 12012
      0.02761 [    28]: 21111
      0.02735 [    11]: 11121
      0.02686 [     7]: 10212
      0.02166 [    13]: 11211
      0.02148 [     0]: 01122
      0.02135 [     1]: 01212
      0.02132 [     4]: 02121
      0.01583 [    27]: 21102
      0.01557 [    21]: 12210
      0.01417 [    32]: 22011
      0.01195 [    24]: 20211
      0.01014 [    23]: 20121
      0.00932 [    10]: 11112
      0.00788 [    12]: 11202
      0.00632 [     8]: 10221
      0.00440 [    29]: 21120
      0.00324 [     5]: 02211
      0.00318 [    14]: 11220
      0.00283 [    30]: 21201
ROOT  36:  E=   -2930.3832549058 Eh  4.513 eV  36397.2 cm**-1
      0.15284 [    24]: 20211
      0.14281 [    15]: 12012
      0.09849 [    31]: 21210
      0.08213 [    30]: 21201
      0.06571 [     1]: 01212
      0.05735 [    32]: 22011
      0.05629 [    25]: 21012
      0.05176 [     9]: 11022
      0.04217 [     5]: 02211
      0.03279 [    10]: 11112
      0.03148 [     7]: 10212
      0.02809 [    28]: 21111
      0.02756 [    26]: 21021
      0.02647 [    12]: 11202
      0.01833 [    33]: 22101
      0.01501 [    21]: 12210
      0.01365 [     2]: 01221
      0.00878 [    14]: 11220
      0.00667 [     0]: 01122
      0.00659 [     4]: 02121
      0.00491 [    17]: 12102
      0.00486 [    18]: 12111
      0.00465 [    13]: 11211
      0.00429 [    16]: 12021
      0.00420 [    27]: 21102
      0.00408 [    34]: 22110
      0.00297 [    11]: 11121
ROOT  37:  E=   -2930.3684454052 Eh  4.916 eV  39647.5 cm**-1
      0.23392 [    15]: 12012
      0.17699 [     3]: 02112
      0.09480 [     9]: 11022
      0.07773 [     0]: 01122
      0.05331 [    10]: 11112
      0.03804 [    17]: 12102
      0.03753 [    25]: 21012
      0.02908 [    22]: 20112
      0.02753 [     5]: 02211
      0.02677 [    27]: 21102
      0.02464 [    24]: 20211
      0.02240 [    18]: 12111
      0.02013 [    21]: 12210
      0.01938 [     7]: 10212
      0.01512 [    30]: 21201
      0.01216 [    34]: 22110
      0.01182 [    28]: 21111
      0.01021 [    32]: 22011
      0.01002 [    12]: 11202
      0.00839 [    13]: 11211
      0.00770 [    31]: 21210
      0.00735 [    29]: 21120
      0.00655 [    14]: 11220
      0.00616 [    20]: 12201
      0.00502 [     2]: 01221
      0.00460 [     1]: 01212
      0.00426 [    11]: 11121
      0.00356 [    33]: 22101
ROOT  38:  E=   -2930.3642258754 Eh  5.030 eV  40573.6 cm**-1
      0.14966 [    25]: 21012
      0.12541 [    24]: 20211
      0.08413 [    30]: 21201
      0.07425 [    28]: 21111
      0.07352 [    27]: 21102
      0.07304 [    22]: 20112
      0.06942 [    32]: 22011
      0.05353 [     1]: 01212
      0.04995 [    10]: 11112
      0.04006 [    31]: 21210
      0.02850 [     7]: 10212
      0.02849 [     0]: 01122
      0.02407 [    33]: 22101
      0.02308 [    12]: 11202
      0.01701 [    15]: 12012
      0.01476 [    13]: 11211
      0.01335 [     5]: 02211
      0.01002 [    26]: 21021
      0.00919 [     3]: 02112
      0.00879 [    29]: 21120
      0.00815 [    18]: 12111
      0.00604 [     2]: 01221
      0.00334 [    21]: 12210
      0.00305 [     6]: 10122
ROOT  39:  E=   -2930.1975628202 Eh  9.566 eV  77151.9 cm**-1
      0.30151 [    20]: 12201
      0.26523 [    13]: 11211
      0.09242 [    33]: 22101
      0.09209 [    28]: 21111
      0.06327 [     8]: 10221
      0.02793 [    18]: 12111
      0.02782 [    17]: 12102
      0.02441 [    23]: 20121
      0.01921 [    10]: 11112
      0.01713 [    12]: 11202
      0.01473 [    27]: 21102
      0.01258 [    11]: 11121
      0.00912 [    30]: 21201
      0.00777 [     7]: 10212
      0.00656 [    22]: 20112
      0.00431 [    24]: 20211
      0.00341 [    32]: 22011
      0.00306 [     6]: 10122
ROOT  40:  E=   -2930.1632690932 Eh 10.499 eV  84678.5 cm**-1
      0.39648 [    12]: 11202
      0.18232 [     7]: 10212
      0.12080 [    27]: 21102
      0.06446 [    17]: 12102
      0.05866 [    22]: 20112
      0.04709 [    10]: 11112
      0.04251 [    33]: 22101
      0.03866 [    28]: 21111
      0.00968 [    20]: 12201
      0.00905 [    13]: 11211
      0.00903 [    23]: 20121
      0.00452 [    25]: 21012
      0.00341 [    30]: 21201
      0.00280 [    15]: 12012
ROOT  41:  E=   -2930.1544142276 Eh 10.740 eV  86621.9 cm**-1
      0.30473 [    33]: 22101
      0.25282 [    28]: 21111
      0.10098 [    20]: 12201
      0.08374 [    13]: 11211
      0.05531 [    23]: 20121
      0.04792 [    27]: 21102
      0.03864 [    30]: 21201
      0.02172 [    22]: 20112
      0.01860 [     8]: 10221
      0.01756 [    24]: 20211
      0.01242 [    32]: 22011
      0.01120 [    12]: 11202
      0.00748 [    10]: 11112
      0.00638 [    18]: 12111
      0.00507 [     7]: 10212
      0.00435 [    26]: 21021
      0.00293 [     6]: 10122
      0.00264 [    17]: 12102
      0.00254 [    11]: 11121
ROOT  42:  E=   -2930.1243609283 Eh 11.558 eV  93217.8 cm**-1
      0.50979 [    30]: 21201
      0.23339 [    24]: 20211
      0.06236 [    28]: 21111
      0.05452 [    27]: 21102
      0.03178 [    13]: 11211
      0.02495 [    22]: 20112
      0.02233 [    20]: 12201
      0.01826 [    23]: 20121
      0.00934 [     8]: 10221
      0.00796 [    33]: 22101
      0.00569 [    10]: 11112
      0.00530 [    17]: 12102
      0.00322 [    12]: 11202
ROOT  43:  E=   -2930.1166660021 Eh 11.767 eV  94906.7 cm**-1
      0.36933 [    10]: 11112
      0.36008 [    17]: 12102
      0.09714 [     6]: 10122
      0.04767 [    12]: 11202
      0.02195 [    30]: 21201
      0.02137 [     7]: 10212
      0.01595 [    20]: 12201
      0.01532 [    15]: 12012
      0.01169 [    13]: 11211
      0.01077 [    24]: 20211
      0.00906 [     9]: 11022
      0.00673 [    27]: 21102
      0.00345 [    22]: 20112
ROOT  44:  E=   -2930.0998205708 Eh 12.225 eV  98603.8 cm**-1
      0.41555 [    27]: 21102
      0.19466 [    22]: 20112
      0.17248 [    12]: 11202
      0.07651 [     7]: 10212
      0.06432 [    30]: 21201
      0.02913 [    24]: 20211
      0.01749 [    25]: 21012
      0.01042 [    10]: 11112
      0.00855 [    33]: 22101
      0.00706 [    28]: 21111

                 <<<<<<<<<<<<<<<<<<INITIAL CI STATE CHECK>>>>>>>>>>>>>>>>>>

   E(CAS)= -2930.493337662 Eh DE=    0.000000e+00
   --- Energy gap subspaces: Ext-Act = 0.064   Act-Int = 0.093
   N(occ)=  1.20000 1.20000 1.20000 1.20000 1.20000
   ||g|| =     8.041459e-04 Max(G)=   -8.195242e-05 Rot=184,144
                     ---- THE CAS-SCF GRADIENT HAS CONVERGED ----
                            --- FINALIZING ORBITALS ---
                    ---- DOING ONE FINAL ITERATION FOR PRINTING ----
   --- Forming Natural Orbitals
   --- Canonicalize Internal Space
   --- Canonicalize External Space

MACRO-ITERATION   2: 
   --- Inactive Energy E0 = -2921.91672732 Eh
   --- All densities will be recomputed
CI-ITERATION   0: 
 -2930.591140355   0.000000000000 (    0.00)
 -2930.556987226   0.000000000000
 -2930.552832224   0.000000000000
 -2930.536487879   0.000000000000
 -2930.533048634   0.000000000000
   CI-PROBLEM SOLVED
   DENSITIES MADE
CI-ITERATION   0: 
 -2930.549092632   0.000000000000 (    0.00)
 -2930.545885508   0.000000000000
 -2930.537476263   0.000000000000
 -2930.533543172   0.000000000000
 -2930.529311462   0.000000000000
 -2930.525280648   0.000000000000
 -2930.522250318   0.000000000000
 -2930.517916211   0.000000000000
 -2930.513661769   0.000000000000
 -2930.511663988   0.000000000000
 -2930.508515517   0.000000000000
 -2930.506790361   0.000000000000
 -2930.504459869   0.000000000000
 -2930.501083892   0.000000000000
 -2930.499962970   0.000000000000
 -2930.498428787   0.000000000000
 -2930.496545641   0.000000000000
 -2930.493907422   0.000000000000
 -2930.490436011   0.000000000000
 -2930.489176533   0.000000000000
 -2930.485627920   0.000000000000
 -2930.477631604   0.000000000000
 -2930.475509462   0.000000000000
 -2930.472663684   0.000000000000
 -2930.466928420   0.000000000000
 -2930.465229037   0.000000000000
 -2930.462847019   0.000000000000
 -2930.460294107   0.000000000000
 -2930.457172771   0.000000000000
 -2930.455401242   0.000000000000
 -2930.450200206   0.000000000000
 -2930.442921780   0.000000000000
 -2930.422800195   0.000000000000
 -2930.421955223   0.000000000000
 -2930.404736953   0.000000000000
 -2930.396594305   0.000000000000
 -2930.383254905   0.000000000000
 -2930.368445405   0.000000000000
 -2930.364225875   0.000000000000
 -2930.197562820   0.000000000000
 -2930.163269092   0.000000000000
 -2930.154414227   0.000000000000
 -2930.124360928   0.000000000000
 -2930.116666002   0.000000000000
 -2930.099820570   0.000000000000
   CI-PROBLEM SOLVED
   DENSITIES MADE
   E(CAS)= -2930.493337662 Eh DE=    4.297362e-10
   --- Energy gap subspaces: Ext-Act = 0.064   Act-Int = 0.104
   N(occ)=  1.20000 1.20000 1.20000 1.20000 1.20000
   ||g|| =     8.041459e-04 Max(G)=    7.419535e-05 Rot=148,139
--------------
CASSCF RESULTS
--------------

Final CASSCF energy       : -2930.493337662 Eh  -79742.7778 eV

----------------
ORBITAL ENERGIES
----------------

  NO   OCC          E(Eh)            E(eV) 
   0   2.0000    -220.506710     -6000.2926 
   1   2.0000     -26.346728      -716.9309 
   2   2.0000     -22.280498      -606.2832 
   3   2.0000     -22.279481      -606.2555 
   4   2.0000     -22.266960      -605.9148 
   5   2.0000      -4.715400      -128.3126 
   6   2.0000      -4.715074      -128.3037 
   7   2.0000      -4.714207      -128.2801 
   8   2.0000      -4.712630      -128.2372 
   9   2.0000      -4.712228      -128.2263 
  10   2.0000      -4.712111      -128.2231 
  11   2.0000      -4.711612      -128.2095 
  12   2.0000      -4.711424      -128.2044 
  13   2.0000      -4.706613      -128.0735 
  14   2.0000      -4.706588      -128.0728 
  15   2.0000      -4.704440      -128.0143 
  16   2.0000      -4.700754      -127.9140 
  17   2.0000      -4.700094      -127.8961 
  18   2.0000      -4.698180      -127.8440 
  19   2.0000      -3.399463       -92.5041 
  20   2.0000      -2.755547       -74.9823 
  21   2.0000      -2.754750       -74.9606 
  22   2.0000      -2.754575       -74.9558 
  23   2.0000      -2.754379       -74.9505 
  24   2.0000      -2.752986       -74.9125 
  25   2.0000      -2.752647       -74.9033 
  26   2.0000      -2.752438       -74.8976 
  27   2.0000      -2.752098       -74.8884 
  28   2.0000      -2.751329       -74.8675 
  29   2.0000      -2.751203       -74.8640 
  30   2.0000      -2.750709       -74.8506 
  31   2.0000      -2.750457       -74.8438 
  32   2.0000      -2.750006       -74.8315 
  33   2.0000      -2.748693       -74.7957 
  34   2.0000      -2.748557       -74.7920 
  35   2.0000      -2.747837       -74.7724 
  36   2.0000      -2.747711       -74.7690 
  37   2.0000      -2.746925       -74.7476 
  38   2.0000      -2.746501       -74.7361 
  39   2.0000      -2.746259       -74.7295 
  40   2.0000      -2.745711       -74.7146 
  41   2.0000      -2.745602       -74.7116 
  42   2.0000      -2.744774       -74.6891 
  43   2.0000      -2.744514       -74.6820 
  44   2.0000      -2.743127       -74.6443 
  45   2.0000      -2.742917       -74.6386 
  46   2.0000      -2.741831       -74.6090 
  47   2.0000      -2.741683       -74.6050 
  48   2.0000      -2.741187       -74.5915 
  49   2.0000      -2.740581       -74.5750 
  50   2.0000      -2.739689       -74.5507 
  51   2.0000      -2.739283       -74.5397 
  52   2.0000      -2.738832       -74.5274 
  53   2.0000      -2.738181       -74.5097 
  54   2.0000      -2.736697       -74.4693 
  55   2.0000      -2.735857       -74.4464 
  56   2.0000      -2.735545       -74.4380 
  57   2.0000      -2.734896       -74.4203 
  58   2.0000      -2.734771       -74.4169 
  59   2.0000      -2.733508       -74.3825 
  60   2.0000      -2.733301       -74.3769 
  61   2.0000      -2.730572       -74.3026 
  62   2.0000      -2.163911       -58.8830 
  63   2.0000      -2.162725       -58.8507 
  64   2.0000      -2.152937       -58.5844 
  65   2.0000      -0.553723       -15.0676 
  66   2.0000      -0.548561       -14.9271 
  67   2.0000      -0.547414       -14.8959 
  68   2.0000      -0.546711       -14.8768 
  69   2.0000      -0.543237       -14.7822 
  70   2.0000      -0.542176       -14.7534 
  71   2.0000      -0.541355       -14.7310 
  72   2.0000      -0.540333       -14.7032 
  73   2.0000      -0.537961       -14.6387 
  74   2.0000      -0.535464       -14.5707 
  75   2.0000      -0.534015       -14.5313 
  76   2.0000      -0.533453       -14.5160 
  77   2.0000      -0.530820       -14.4444 
  78   2.0000      -0.529729       -14.4146 
  79   2.0000      -0.528295       -14.3756 
  80   2.0000      -0.526958       -14.3393 
  81   2.0000      -0.524052       -14.2602 
  82   2.0000      -0.522385       -14.2148 
  83   2.0000      -0.518457       -14.1079 
  84   2.0000      -0.517007       -14.0685 
  85   2.0000      -0.514004       -13.9868 
  86   2.0000      -0.509528       -13.8650 
  87   2.0000      -0.506493       -13.7824 
  88   2.0000      -0.506421       -13.7804 
  89   2.0000      -0.502654       -13.6779 
  90   2.0000      -0.500758       -13.6263 
  91   2.0000      -0.498136       -13.5550 
  92   2.0000      -0.495465       -13.4823 
  93   2.0000      -0.493339       -13.4244 
  94   2.0000      -0.490537       -13.3482 
  95   2.0000      -0.486988       -13.2516 
  96   2.0000      -0.485566       -13.2129 
  97   2.0000      -0.483756       -13.1637 
  98   2.0000      -0.481460       -13.1012 
  99   2.0000      -0.476607       -12.9691 
 100   2.0000      -0.474329       -12.9071 
 101   2.0000      -0.471163       -12.8210 
 102   2.0000      -0.467342       -12.7170 
 103   2.0000      -0.466524       -12.6948 
 104   2.0000      -0.464150       -12.6302 
 105   2.0000      -0.460046       -12.5185 
 106   2.0000      -0.459088       -12.4924 
 107   2.0000      -0.455598       -12.3975 
 108   2.0000      -0.453687       -12.3455 
 109   2.0000      -0.451985       -12.2991 
 110   2.0000      -0.450296       -12.2532 
 111   2.0000      -0.447798       -12.1852 
 112   2.0000      -0.446803       -12.1581 
 113   2.0000      -0.445223       -12.1151 
 114   2.0000      -0.443823       -12.0770 
 115   2.0000      -0.442940       -12.0530 
 116   2.0000      -0.441093       -12.0027 
 117   2.0000      -0.439025       -11.9465 
 118   2.0000      -0.436705       -11.8833 
[...]
 3 117  310041.0     32.3   0.000000000   0.00001   0.00204   0.00000   0.00101
 3 118  311046.7     32.1   0.000000000   0.00049   0.00259   0.00489   0.02132
 3 119  311047.1     32.1   0.000000000   0.00118   0.00348   0.00550   0.03373
 3 120  311047.8     32.1   0.000000000   0.00758   0.01162   0.02105   0.08369
 3 121  312366.2     32.0   0.000000000   0.00135   0.03122   0.01367   0.01364
 3 122  312367.6     32.0   0.000000000   0.00036   0.01700   0.00572   0.00624
 3 123  312368.2     32.0   0.000000000   0.00038   0.01482   0.00872   0.00920
 3 124  313243.7     31.9   0.000000000   0.00090   0.02117   0.02123   0.00238
 3 125  313245.4     31.9   0.000000000   0.02017   0.08430   0.11420   0.00428
 3 126  313248.6     31.9   0.000000000   0.00066   0.01527   0.02066   0.00061
 3 127  314786.9     31.8   0.000000000   0.00626   0.05781   0.01002   0.05306
 3 128  314789.7     31.8   0.000000000   0.01319   0.08160   0.01603   0.07921
 3 129  314790.5     31.8   0.000000000   0.00896   0.06656   0.00707   0.06697
 3 130  317567.3     31.5   0.000000000   0.00351   0.04667   0.01977   0.03064
 3 131  317573.0     31.5   0.000000000   0.00186   0.02658   0.02494   0.02313
 3 132  317579.6     31.5   0.000000000   0.00169   0.02293   0.02436   0.02397
 3 133  317718.8     31.5   0.000000000   0.00022   0.01309   0.00706   0.00022
 3 134  317722.9     31.5   0.000000000   0.00073   0.02103   0.01675   0.00165
 3 135  317731.6     31.5   0.000000000   0.00118   0.02844   0.00494   0.01853
 3 136  318039.1     31.4   0.000000000   0.01150   0.10552   0.01857   0.00444
 3 137  318046.1     31.4   0.000000000   0.03254   0.17739   0.03205   0.00630
 3 138  318050.1     31.4   0.000000000   0.00005   0.00324   0.00395   0.00456
 3 139  318447.8     31.4   0.000000000   0.00100   0.02885   0.01127   0.00671
 3 140  318453.9     31.4   0.000000000   0.04232   0.19189   0.06682   0.03220
 3 141  318458.1     31.4   0.000000000   0.00549   0.06597   0.02996   0.01541
 3 142  321631.1     31.1   0.000000000   0.04306   0.20595   0.02386   0.00848
 3 143  321632.7     31.1   0.000000000   0.00651   0.08000   0.00965   0.00367
 3 144  321633.2     31.1   0.000000000   0.00372   0.06066   0.00573   0.00308
 3 145  329216.7     30.4   0.000000000   0.00839   0.09022   0.01426   0.00709
 3 146  329217.3     30.4   0.000000000   0.04030   0.19791   0.02990   0.01537
 3 147  329218.7     30.4   0.000000000   0.06188   0.24519   0.03777   0.01820
 3 148  331257.4     30.2   0.000000000   0.00091   0.02972   0.00315   0.00348
 3 149  331260.7     30.2   0.000000000   0.00596   0.07623   0.00958   0.00784
 3 150  331262.9     30.2   0.000000000   0.02581   0.15856   0.01857   0.01790
 3 151  333088.9     30.0   0.000000000   0.00091   0.02989   0.00271   0.00213
 3 152  333089.3     30.0   0.000000000   0.05551   0.23381   0.02442   0.01575
 3 153  333091.6     30.0   0.000000000   0.00030   0.01725   0.00195   0.00126
 3 154  358397.8     27.9   0.000000000   0.00006   0.00009   0.00410   0.00667
 3 155  358397.8     27.9   0.000000000   0.00438   0.00091   0.03252   0.05759
 3 156  358398.0     27.9   0.000000000   0.00901   0.00151   0.04668   0.08265
 3 157  396570.4     25.2   0.000000000   0.07097   0.01349   0.20694   0.16723
 3 158  396570.5     25.2   0.000000000   0.02917   0.00858   0.13265   0.10724
 3 159  396570.6     25.2   0.000000000   0.02628   0.00823   0.12584   0.10185
 4  5       0.1   107596661.5   0.000000000   0.00000   0.00000   0.00000   0.00000
 4  6  201171.0     49.7   0.000000000   0.01221   0.00695   0.08567   0.06947
 4  7  201171.0     49.7   0.000000000   0.00616   0.00491   0.06089   0.04928
 4  8  201171.1     49.7   0.000000000   0.01874   0.00862   0.10615   0.08600
 4  9  249173.9     40.1   0.000000000   0.00000   0.00012   0.00006   0.00000
 4 10  249174.0     40.1   0.000000000   0.00000   0.00013   0.00010   0.00007
 4 11  249175.0     40.1   0.000000000   0.00000   0.00013   0.00009   0.00004
 4 12  249175.5     40.1   0.000000000   0.00000   0.00006   0.00006   0.00001
 4 13  249175.7     40.1   0.000000000   0.00000   0.00005   0.00003   0.00006
 4 14  257291.6     38.9   0.000000000   0.00884   0.06967   0.02424   0.05831
 4 15  257291.7     38.9   0.000000000   0.03137   0.13125   0.04558   0.10986
 4 16  257291.7     38.9   0.000000000   0.00139   0.02763   0.00968   0.02303
 4 17  271752.0     36.8   0.000000000   0.00046   0.00769   0.00379   0.01960
 4 18  271752.2     36.8   0.000000000   0.00000   0.00021   0.00032   0.00055
 4 19  271752.2     36.8   0.000000000   0.00149   0.01275   0.00733   0.03571
 4 20  277494.6     36.0   0.000000000   0.00476   0.06671   0.01164   0.01309
 4 21  277496.2     36.0   0.000000000   0.01171   0.10578   0.01757   0.01438
 4 22  277505.7     36.0   0.000000000   0.00001   0.00273   0.00075   0.00014
 4 23  278584.7     35.9   0.000000000   0.00000   0.00102   0.00022   0.00048
 4 24  278589.5     35.9   0.000000000   0.00054   0.01455   0.00722   0.01666
 4 25  278593.9     35.9   0.000000000   0.00240   0.04429   0.00517   0.02032
 4 26  280164.8     35.7   0.000000000   0.00019   0.00382   0.00748   0.01096
 4 27  280165.8     35.7   0.000000000   0.00006   0.00322   0.00291   0.00652
 4 28  280172.8     35.7   0.000000000   0.00100   0.00195   0.02147   0.02312
 4 29  281269.3     35.6   0.000000000   0.00009   0.00406   0.00565   0.00656
 4 30  281274.6     35.6   0.000000000   0.00129   0.00426   0.03186   0.01587
 4 31  281291.6     35.6   0.000000000   0.00353   0.00642   0.05423   0.02345
 4 32  281806.5     35.5   0.000000000   0.00154   0.03363   0.01203   0.01631
 4 33  281813.9     35.5   0.000000000   0.00008   0.00438   0.00325   0.00697
 4 34  281891.4     35.5   0.000000000   0.00008   0.00386   0.00405   0.00690
 4 35  281953.8     35.5   0.000000000   0.00016   0.01123   0.00136   0.00542
 4 36  282007.5     35.5   0.000000000   0.00003   0.00196   0.00003   0.00463
 4 37  282027.4     35.5   0.000000000   0.00143   0.03302   0.00998   0.01558
 4 38  282506.5     35.4   0.000000000   0.00017   0.01254   0.00189   0.00250
 4 39  282507.9     35.4   0.000000000   0.00017   0.00686   0.00160   0.01090
 4 40  282522.9     35.4   0.000000000   0.00021   0.01186   0.00359   0.00771
 4 41  282870.7     35.4   0.000000000   0.00036   0.00558   0.01710   0.00575
 4 42  282872.1     35.4   0.000000000   0.00022   0.00380   0.00135   0.01443
 4 43  282878.4     35.4   0.000000000   0.00234   0.00722   0.03724   0.03007
 4 44  282971.3     35.3   0.000000000   0.00380   0.01803   0.02124   0.05502
 4 45  282995.2     35.3   0.000000000   0.00013   0.00053   0.00743   0.00881
 4 46  282998.4     35.3   0.000000000   0.00154   0.00978   0.01540   0.03475
 4 47  291041.2     34.4   0.000000000   0.00126   0.01356   0.01222   0.03039
 4 48  291041.9     34.4   0.000000000   0.00270   0.02130   0.01557   0.04471
 4 49  291043.2     34.4   0.000000000   0.00554   0.02604   0.02564   0.06485
 4 50  293927.5     34.0   0.000000000   0.00142   0.03068   0.01790   0.01270
 4 51  293929.3     34.0   0.000000000   0.00027   0.01297   0.00364   0.00944
 4 52  293930.0     34.0   0.000000000   0.00606   0.06710   0.03210   0.02301
 4 53  294034.5     34.0   0.000000000   0.00468   0.04978   0.00152   0.04692
 4 54  294035.1     34.0   0.000000000   0.00384   0.04434   0.00047   0.04330
 4 55  294035.6     34.0   0.000000000   0.00121   0.02274   0.00187   0.02624
 4 56  296152.4     33.8   0.000000000   0.00547   0.04838   0.01213   0.05463
 4 57  296153.3     33.8   0.000000000   0.00207   0.02644   0.00943   0.03581
 4 58  296154.0     33.8   0.000000000   0.01472   0.06890   0.02272   0.09725
 4 59  296986.6     33.7   0.000000000   0.02583   0.15959   0.01677   0.00890
 4 60  296988.0     33.7   0.000000000   0.01053   0.10247   0.00554   0.00180
 4 61  296998.5     33.7   0.000000000   0.07899   0.27957   0.02822   0.00619
 4 62  297059.6     33.7   0.000000000   0.00331   0.04487   0.03264   0.01520
 4 63  297071.9     33.7   0.000000000   0.00587   0.07407   0.01921   0.00360
 4 64  297074.3     33.7   0.000000000   0.00053   0.01840   0.01022   0.00911
 4 65  297945.5     33.6   0.000000000   0.00079   0.02061   0.01755   0.00731
 4 66  297947.7     33.6   0.000000000   0.00247   0.03709   0.02966   0.01473
 4 67  297951.8     33.6   0.000000000   0.00007   0.00686   0.00431   0.00289
 4 68  298416.0     33.5   0.000000000   0.00072   0.02195   0.00332   0.01521
 4 69  298418.5     33.5   0.000000000   0.00075   0.00510   0.02618   0.00590
 4 70  298430.3     33.5   0.000000000   0.00000   0.00051   0.00099   0.00128
 4 71  298610.8     33.5   0.000000000   0.00011   0.00917   0.00014   0.00521
 4 72  298625.6     33.5   0.000000000   0.00057   0.02071   0.00957   0.00713
 4 73  298627.2     33.5   0.000000000   0.01353   0.09192   0.03528   0.06193
 4 74  302710.5     33.0   0.000000000   0.02896   0.04632   0.15924   0.03816
 4 75  302712.8     33.0   0.000000000   0.02657   0.03629   0.15545   0.03302
 4 76  302716.4     33.0   0.000000000   0.00015   0.00492   0.01119   0.00224
 4 77  303437.6     33.0   0.000000000   0.00005   0.00326   0.00279   0.00570
 4 78  303438.1     33.0   0.000000000   0.00004   0.00352   0.00237   0.00484
 4 79  303441.5     33.0   0.000000000   0.00004   0.00202   0.00377   0.00515
 4 80  303444.8     33.0   0.000000000   0.00001   0.00202   0.00078   0.00258
 4 81  303445.3     33.0   0.000000000   0.00000   0.00043   0.00058   0.00193
 4 82  303699.2     32.9   0.000000000   0.00218   0.01106   0.02532   0.03761
 4 83  303699.8     32.9   0.000000000   0.00346   0.02393   0.01435   0.05177
 4 84  303703.7     32.9   0.000000000   0.00057   0.00552   0.00738   0.02202
 4 85  304323.6     32.9   0.000000000   0.00153   0.02239   0.02611   0.01851
 4 86  304337.6     32.9   0.000000000   0.00483   0.04190   0.04638   0.03035
 4 87  304339.2     32.9   0.000000000   0.00684   0.05348   0.05265   0.03472
 4 88  304492.5     32.8   0.000000000   0.00005   0.00418   0.00502   0.00166
 4 89  304492.6     32.8   0.000000000   0.00002   0.00086   0.00010   0.00415
 4 90  304534.0     32.8   0.000000000   0.00197   0.02425   0.03173   0.01944
 4 91  304539.1     32.8   0.000000000   0.00072   0.01615   0.01864   0.01075
 4 92  304546.6     32.8   0.000000000   0.00146   0.02106   0.02983   0.01141
 4 93  305202.7     32.8   0.000000000   0.01232   0.01456   0.06345   0.08989
 4 94  305204.5     32.8   0.000000000   0.00101   0.00677   0.01783   0.02552
 4 95  305209.8     32.8   0.000000000   0.01326   0.00890   0.06713   0.09311
 4 96  306212.1     32.7   0.000000000   0.00783   0.00889   0.02404   0.08469
 4 97  306215.7     32.7   0.000000000   0.00799   0.02486   0.01286   0.08487
 4 98  306222.0     32.7   0.000000000   0.00019   0.00601   0.00258   0.01193
 4 99  307062.4     32.6   0.000000000   0.00134   0.03511   0.00114   0.01047
 4 100  307066.2     32.6   0.000000000   0.05160   0.21037   0.01814   0.08378
 4 101  307067.7     32.6   0.000000000   0.00405   0.05593   0.01120   0.02826
 4 102  307301.2     32.5   0.000000000   0.00190   0.02524   0.03336   0.01236
 4 103  307308.2     32.5   0.000000000   0.00301   0.01573   0.05019   0.01573
 4 104  307310.2     32.5   0.000000000   0.00014   0.00225   0.00266   0.01142
 4 105  307445.5     32.5   0.000000000   0.00004   0.00523   0.00167   0.00290
 4 106  307449.3     32.5   0.000000000   0.00641   0.07870   0.01482   0.00076
 4 107  307450.2     32.5   0.000000000   0.02706   0.16233   0.02506   0.00920
 4 108  309394.7     32.3   0.000000000   0.00000   0.00082   0.00074   0.00005
 4 109  309395.0     32.3   0.000000000   0.00003   0.00444   0.00204   0.00139
 4 110  309415.5     32.3   0.000000000   0.00001   0.00237   0.00156   0.00058
 4 111  309420.7     32.3   0.000000000   0.00001   0.00017   0.00251   0.00115
 4 112  309426.3     32.3   0.000000000   0.00005   0.00734   0.00032   0.00013
 4 113  310020.5     32.3   0.000000000   0.00000   0.00004   0.00053   0.00115
 4 114  310022.5     32.3   0.000000000   0.00002   0.00201   0.00052   0.00338
 4 115  310029.9     32.3   0.000000000   0.00000   0.00011   0.00030   0.00201
 4 116  310040.0     32.3   0.000000000   0.00000   0.00154   0.00001   0.00031
 4 117  310041.0     32.3   0.000000000   0.00001   0.00076   0.00040   0.00366
 4 118  311046.7     32.1   0.000000000   0.00146   0.00667   0.00994   0.03629
 4 119  311047.0     32.1   0.000000000   0.00615   0.00971   0.01862   0.07559
 4 120  311047.8     32.1   0.000000000   0.00165   0.00430   0.00712   0.03970
 4 121  312366.2     32.0   0.000000000   0.00070   0.02189   0.01009   0.01074
 4 122  312367.6     32.0   0.000000000   0.00041   0.01833   0.00671   0.00556
 4 123  312368.2     32.0   0.000000000   0.00096   0.02560   0.01206   0.01275
 4 124  313243.7     31.9   0.000000000   0.01170   0.06389   0.08723   0.00299
 4 125  313245.4     31.9   0.000000000   0.00155   0.02600   0.02949   0.00146
 4 126  313248.6     31.9   0.000000000   0.00847   0.05484   0.07385   0.00327
 4 127  314786.9     31.8   0.000000000   0.01122   0.07530   0.01151   0.07357
 4 128  314789.7     31.8   0.000000000   0.00104   0.02114   0.00024   0.02427
 4 129  314790.5     31.8   0.000000000   0.01618   0.09129   0.01647   0.08705
 4 130  317567.2     31.5   0.000000000   0.00251   0.03262   0.02649   0.02731
 4 131  317573.0     31.5   0.000000000   0.00023   0.01304   0.00744   0.00058
 4 132  317579.6     31.5   0.000000000   0.00424   0.04339   0.02998   0.03823
 4 133  317718.7     31.5   0.000000000   0.00111   0.02948   0.01243   0.00926
 4 134  317722.8     31.5   0.000000000   0.00019   0.00500   0.00870   0.00919
 4 135  317731.6     31.5   0.000000000   0.00061   0.02344   0.00673   0.00363
 4 136  318039.1     31.4   0.000000000   0.03352   0.17996   0.03289   0.00712
 4 137  318046.1     31.4   0.000000000   0.01125   0.10444   0.01809   0.00394
 4 138  318050.1     31.4   0.000000000   0.00011   0.00717   0.00601   0.00451
 4 139  318447.8     31.4   0.000000000   0.00018   0.01267   0.00403   0.00278
 4 140  318453.9     31.4   0.000000000   0.00588   0.06838   0.03078   0.01604
 4 141  318458.1     31.4   0.000000000   0.04222   0.19151   0.06705   0.03242
 4 142  321631.1     31.1   0.000000000   0.01016   0.10004   0.01122   0.00474
 4 143  321632.7     31.1   0.000000000   0.03125   0.17546   0.02034   0.00728
 4 144  321633.2     31.1   0.000000000   0.01190   0.10829   0.01245   0.00439
 4 145  329216.7     30.4   0.000000000   0.04323   0.20502   0.03086   0.01562
 4 146  329217.2     30.4   0.000000000   0.02537   0.15696   0.02459   0.01135
 4 147  329218.7     30.4   0.000000000   0.04206   0.20210   0.03113   0.01565
 4 148  331257.4     30.2   0.000000000   0.01900   0.13605   0.01604   0.01516
 4 149  331260.6     30.2   0.000000000   0.00863   0.09170   0.01089   0.01036
 4 150  331262.8     30.2   0.000000000   0.00504   0.07011   0.00839   0.00752
 4 151  333088.9     30.0   0.000000000   0.02283   0.14996   0.01567   0.00982
 4 152  333089.2     30.0   0.000000000   0.00004   0.00601   0.00026   0.00035
 4 153  333091.5     30.0   0.000000000   0.03379   0.18239   0.01900   0.01255
 4 154  358397.7     27.9   0.000000000   0.00104   0.00047   0.01600   0.02797
 4 155  358397.8     27.9   0.000000000   0.00812   0.00145   0.04425   0.07851
 4 156  358397.9     27.9   0.000000000   0.00429   0.00090   0.03223   0.05697
 4 157  396570.3     25.2   0.000000000   0.05164   0.01150   0.17647   0.14272
 4 158  396570.5     25.2   0.000000000   0.01497   0.00625   0.09512   0.07670
 4 159  396570.5     25.2   0.000000000   0.05981   0.01234   0.18993   0.15357

------------------------------------------------------------------------------
                           SOC CORRECTED DIPOLE MOMENTS
------------------------------------------------------------------------------
      TX        TY        TZ           |T|
   (Debye)   (Debye)   (Debye)      (Debye)
------------------------------------------------------------------------------
 -14.44710  69.94326  49.02546     86.62721

--------------
CASSCF TIMINGS
--------------

Total time                       ...     4850.8 sec
Sum of individual times          ...     4847.8 sec ( 99.9%)

Calculation of AO operators
   F(Core) operator              ...       32.0 sec (  0.7%)
   G(Act) operator               ...       30.5 sec (  0.6%)
   J(AO) operators               ...        0.0 sec (  0.0%)
Calculation of MO transformed quantities
   J(MO) operators               ...        3.8 sec (  0.1%)
   (pq|rs) integrals             ...        0.0 sec (  0.0%)
   AO->MO one electron integrals ...        0.1 sec (  0.0%)
Configuration interaction steps
   CI-setup phase                ...        0.0 sec (  0.0%)
   CI-solution phase             ...        0.1 sec (  0.0%)
   Generation of densities       ...        0.0 sec (  0.0%)
Orbital improvement steps
   Orbital gradient              ...        0.0 sec (  0.0%)
PT2 
   NEVPT2 time                   ...     4753.9 sec ( 98.0%)
Properties                       ...       14.4 sec (  0.3%)
   SOC integral calculation      ...       13.0 sec (  0.3%)
   SSC RMEs (incl. integrals)    ...        0.0 sec (  0.0%)
   SOC RMEs                      ...        0.0 sec (  0.0%)

Maximum memory used throughout the entire CASSCF-calculation: 1658.5 MB

-------------------------   --------------------
FINAL SINGLE POINT ENERGY     -2937.654498538805
-------------------------   --------------------


                            ***************************************
                            *     ORCA property calculations      *
                            ***************************************

                                    ---------------------
                                    Active property flags
                                    ---------------------
   (+) Dipole Moment


------------------------------------------------------------------------------
                       ORCA ELECTRIC PROPERTIES CALCULATION
------------------------------------------------------------------------------

Dipole Moment Calculation                       ... on
Quadrupole Moment Calculation                   ... off
Polarizability Calculation                      ... off
GBWName                                         ... nevpt2.gbw
Electron density                                ... nevpt2.scfp
The origin for moment calculation is the CENTER OF MASS  = (13.964215, 14.156554 13.754741)

-------------
DIPOLE MOMENT
-------------
                                X             Y             Z
Electronic contribution:      5.67449     -27.32643     -18.91981
Nuclear contribution   :     -5.68381      27.51724      19.28771
                        -----------------------------------------
Total Dipole Moment    :     -0.00932       0.19080       0.36790
                        -----------------------------------------
Magnitude (a.u.)       :      0.41454
Magnitude (Debye)      :      1.05368



--------------------
Rotational spectrum 
--------------------
 
Rotational constants in cm-1:     0.001364     0.000834     0.000818 
Rotational constants in MHz :    40.877836    25.009831    24.516101 

 Dipole components along the rotational axes: 
x,y,z [a.u.] :     0.397699    -0.113796     0.027003 
x,y,z [Debye]:     1.010871    -0.289246     0.068636 

 

Timings for individual modules:

Sum of individual times         ...     4875.749 sec (=  81.262 min)
GTO integral calculation        ...        9.835 sec (=   0.164 min)   0.2 %
SCF iterations                  ...       12.048 sec (=   0.201 min)   0.2 %
CASSCF iterations               ...     4853.867 sec (=  80.898 min)  99.6 %
                             ****ORCA TERMINATED NORMALLY****
TOTAL RUN TIME: 0 days 1 hours 21 minutes 16 seconds 388 msec
