
                                 *****************
                                 * O   R   C   A *
                                 *****************

                                            #,                                       
                                            ###                                      
                                            ####                                     
                                            #####                                    
                                            ######                                   
                                           ########,                                 
                                     ,,################,,,,,                         
                               ,,#################################,,                 
                          ,,##########################################,,             
                       ,#########################################, ''#####,          
                    ,#############################################,,   '####,        
                  ,##################################################,,,,####,       
                ,###########''''           ''''###############################       
              ,#####''   ,,,,##########,,,,          '''####'''          '####       
            ,##' ,,,,###########################,,,                        '##       
           ' ,,###''''                  '''############,,,                           
         ,,##''                                '''############,,,,        ,,,,,,###''
      ,#''                                            '''#######################'''  
     '                                                          ''''####''''         
             ,#######,   #######,   ,#######,      ##                                
            ,#'     '#,  ##    ##  ,#'     '#,    #''#        ######   ,####,        
            ##       ##  ##   ,#'  ##            #'  '#       #        #'  '#        
            ##       ##  #######   ##           ,######,      #####,   #    #        
            '#,     ,#'  ##    ##  '#,     ,#' ,#      #,         ##   #,  ,#        
             '#######'   ##     ##  '#######'  #'      '#     #####' # '####'        



                  #######################################################
                  #                        -***-                        #
                  #          Department of theory and spectroscopy      #
                  #    Directorship and core code : Frank Neese         #
                  #        Max Planck Institute fuer Kohlenforschung    #
                  #                Kaiser Wilhelm Platz 1               #
                  #                 D-45470 Muelheim/Ruhr               #
                  #                      Germany                        #
                  #                                                     #
                  #                  All rights reserved                #
                  #                        -***-                        #
                  #######################################################


                         Program Version 5.0.3 -  RELEASE  -


 With contributions from (in alphabetic order):
   Daniel Aravena         : Magnetic Suceptibility
   Michael Atanasov       : Ab Initio Ligand Field Theory (pilot matlab implementation)
   Alexander A. Auer      : GIAO ZORA, VPT2 properties, NMR spectrum
   Ute Becker             : Parallelization
   Giovanni Bistoni       : ED, misc. LED, open-shell LED, HFLD
   Martin Brehm           : Molecular dynamics
   Dmytro Bykov           : SCF Hessian
   Vijay G. Chilkuri      : MRCI spin determinant printing, contributions to CSF-ICE
   Dipayan Datta          : RHF DLPNO-CCSD density
   Achintya Kumar Dutta   : EOM-CC, STEOM-CC
   Dmitry Ganyushin       : Spin-Orbit,Spin-Spin,Magnetic field MRCI
   Miquel Garcia          : C-PCM and meta-GGA Hessian, CC/C-PCM, Gaussian charge scheme
   Yang Guo               : DLPNO-NEVPT2, F12-NEVPT2, CIM, IAO-localization
   Andreas Hansen         : Spin unrestricted coupled pair/coupled cluster methods
   Benjamin Helmich-Paris : MC-RPA, TRAH-SCF, COSX integrals
   Lee Huntington         : MR-EOM, pCC
   Robert Izsak           : Overlap fitted RIJCOSX, COSX-SCS-MP3, EOM
   Marcus Kettner         : VPT2
   Christian Kollmar      : KDIIS, OOCD, Brueckner-CCSD(T), CCSD density, CASPT2, CASPT2-K
   Simone Kossmann        : Meta GGA functionals, TD-DFT gradient, OOMP2, MP2 Hessian
   Martin Krupicka        : Initial AUTO-CI
   Lucas Lang             : DCDCAS
   Marvin Lechner         : AUTO-CI (C++ implementation), FIC-MRCC
   Dagmar Lenk            : GEPOL surface, SMD
   Dimitrios Liakos       : Extrapolation schemes; Compound Job, initial MDCI parallelization
   Dimitrios Manganas     : Further ROCIS development; embedding schemes
   Dimitrios Pantazis     : SARC Basis sets
   Anastasios Papadopoulos: AUTO-CI, single reference methods and gradients
   Taras Petrenko         : DFT Hessian,TD-DFT gradient, ASA, ECA, R-Raman, ABS, FL, XAS/XES, NRVS
   Peter Pinski           : DLPNO-MP2, DLPNO-MP2 Gradient
   Christoph Reimann      : Effective Core Potentials
   Marius Retegan         : Local ZFS, SOC
   Christoph Riplinger    : Optimizer, TS searches, QM/MM, DLPNO-CCSD(T), (RO)-DLPNO pert. Triples
   Tobias Risthaus        : Range-separated hybrids, TD-DFT gradient, RPA, STAB
   Michael Roemelt        : Original ROCIS implementation
   Masaaki Saitow         : Open-shell DLPNO-CCSD energy and density
   Barbara Sandhoefer     : DKH picture change effects
   Avijit Sen             : IP-ROCIS
   Kantharuban Sivalingam : CASSCF convergence, NEVPT2, FIC-MRCI
   Bernardo de Souza      : ESD, SOC TD-DFT
   Georgi Stoychev        : AutoAux, RI-MP2 NMR, DLPNO-MP2 response
   Willem Van den Heuvel  : Paramagnetic NMR
   Boris Wezisla          : Elementary symmetry handling
   Frank Wennmohs         : Technical directorship


 We gratefully acknowledge several colleagues who have allowed us to
 interface, adapt or use parts of their codes:
   Stefan Grimme, W. Hujo, H. Kruse, P. Pracht,  : VdW corrections, initial TS optimization,
                  C. Bannwarth, S. Ehlert          DFT functionals, gCP, sTDA/sTD-DF
   Ed Valeev, F. Pavosevic, A. Kumar             : LibInt (2-el integral package), F12 methods
   Garnet Chan, S. Sharma, J. Yang, R. Olivares  : DMRG
   Ulf Ekstrom                                   : XCFun DFT Library
   Mihaly Kallay                                 : mrcc  (arbitrary order and MRCC methods)
   Jiri Pittner, Ondrej Demel                    : Mk-CCSD
   Frank Weinhold                                : gennbo (NPA and NBO analysis)
   Christopher J. Cramer and Donald G. Truhlar   : smd solvation model
   Lars Goerigk                                  : TD-DFT with DH, B97 family of functionals
   V. Asgeirsson, H. Jonsson                     : NEB implementation
   FAccTs GmbH                                   : IRC, NEB, NEB-TS, DLPNO-Multilevel, CI-OPT
                                                   MM, QMMM, 2- and 3-layer-ONIOM, Crystal-QMMM,
                                                   LR-CPCM, SF, NACMEs, symmetry and pop. for TD-DFT,
                                                   nearIR, NL-DFT gradient (VV10), updates on ESD,
                                                   ML-optimized integration grids
   S Lehtola, MJT Oliveira, MAL Marques          : LibXC Library
   Liviu Ungur et al                             : ANISO software


 Your calculation uses the libint2 library for the computation of 2-el integrals
 For citations please refer to: http://libint.valeyev.net

 Your ORCA version has been built with support for libXC version: 5.1.0
 For citations please refer to: https://tddft.org/programs/libxc/

 This ORCA versions uses:
   CBLAS   interface :  Fast vector & matrix operations
   LAPACKE interface :  Fast linear algebra routines
   SCALAPACK package :  Parallel linear algebra routines
   Shared memory     :  Shared parallel matrices
   BLAS/LAPACK       :  OpenBLAS 0.3.15  USE64BITINT DYNAMIC_ARCH NO_AFFINITY Haswell SINGLE_THREADED
        Core in use  :  Haswell
   Copyright (c) 2011-2014, The OpenBLAS Project




***************************************
The coordinates will be read from file: pbe.xyz
***************************************


================================================================================

cite the ECPs for Au [Def2-ECP] as follows:
Ce-Yb(ecp-28): M. Dolg, H. Stoll, H.Preuss, J. Chem. Phys., 1989, 90, 1730-1734.
Y-Cd(ecp-28), Hf-Hg(ecp-46): D. Andrae,U. Haeussermann, M. Dolg, H. Stoll, H. Preuss, Theor. Chim. Acta, 1990, 77, 123-141.
In-Sb(ecp-28), Tl-Bi(ecp-46): B. Metz, H. Stoll, M. Dolg, J. Chem. Phys., 2000, 113, 2563-2569.
Te-Xe(ecp-28), Po-Rn(ecp-46): K. A. Peterson, D. Figgen, E. Goll, H. Stoll, M. Dolg, J. Chem. Phys., 2003, 119, 11113-11123.
Rb(ecp-28), Cs(ecp-46): T. Leininger, A. Nicklass, W. Kuechle, H. Stoll, M. Dolg, A. Bergner, Chem. Phys. Lett., 1996, 255, 274-280.
Sr(ecp-28), Ba(ecp-46): M. Kaupp, P. V. Schleyer, H. Stoll and H. Preuss, J. Chem. Phys., 1991, 94, 1360-1366.
La(ecp-46): M. Dolg, H. Stoll, A. Savin, H. Preuss, Theor. Chim. Acta, 1989, 75, 173-194.
Lu(ecp-28): X. Cao, M. Dolg, J. Chem. Phys., 2001, 115, 7348-7355.

ECP parameters for Au [Def2-ECP] have been obtained from:
TURBOMOLE (7.0.2)

----- Orbital basis set information -----
Your calculation utilizes the basis: def2-TZVP
   F. Weigend and R. Ahlrichs, Phys. Chem. Chem. Phys. 7, 3297 (2005).

----- AuxJ basis set information -----
Your calculation utilizes the auxiliary basis: def2/J
   F. Weigend, Phys. Chem. Chem. Phys. 8, 1057 (2006).

----- AuxC basis set information -----
Your calculation utilizes the auxiliary basis: def2-TZVP/C
  H-La, Hf-Rn : A. Hellweg, C. Hattig, S. Hofener and W. Klopper, Theor. Chem. Acc. 117, 587 (2007).
        Ce-Lu : J. Chmela and M. E. Harding, Mol. Phys. (2018).

================================================================================
                                        WARNINGS
                       Please study these warnings very carefully!
================================================================================


WARNING: your system is open-shell and RHF/RKS was chosen
  ===> : WILL SWITCH to UHF/UKS


WARNING: No MP2 level density has been requested!
         To caclulate MP2 level properties use
         %mp2 Density relaxed end
         or
         %mp2 Density unrelaxed end
         Otherwise for double-hybrid DFT only the energy is correct!

WARNING: The frozen-core approximation is turned on by default for 
         the MP2 part of double-hybrid DFT.

INFO   : the flag for use of the SHARK integral package has been found!



***************************************
The coordinates will be read from file: pbe.xyz
***************************************


================================================================================

cite the ECPs for Au [Def2-ECP] as follows:
Ce-Yb(ecp-28): M. Dolg, H. Stoll, H.Preuss, J. Chem. Phys., 1989, 90, 1730-1734.
Y-Cd(ecp-28), Hf-Hg(ecp-46): D. Andrae,U. Haeussermann, M. Dolg, H. Stoll, H. Preuss, Theor. Chim. Acta, 1990, 77, 123-141.
In-Sb(ecp-28), Tl-Bi(ecp-46): B. Metz, H. Stoll, M. Dolg, J. Chem. Phys., 2000, 113, 2563-2569.
Te-Xe(ecp-28), Po-Rn(ecp-46): K. A. Peterson, D. Figgen, E. Goll, H. Stoll, M. Dolg, J. Chem. Phys., 2003, 119, 11113-11123.
Rb(ecp-28), Cs(ecp-46): T. Leininger, A. Nicklass, W. Kuechle, H. Stoll, M. Dolg, A. Bergner, Chem. Phys. Lett., 1996, 255, 274-280.
Sr(ecp-28), Ba(ecp-46): M. Kaupp, P. V. Schleyer, H. Stoll and H. Preuss, J. Chem. Phys., 1991, 94, 1360-1366.
La(ecp-46): M. Dolg, H. Stoll, A. Savin, H. Preuss, Theor. Chim. Acta, 1989, 75, 173-194.
Lu(ecp-28): X. Cao, M. Dolg, J. Chem. Phys., 2001, 115, 7348-7355.

ECP parameters for Au [Def2-ECP] have been obtained from:
TURBOMOLE (7.0.2)

----- Orbital basis set information -----
Your calculation utilizes the basis: def2-TZVP
   F. Weigend and R. Ahlrichs, Phys. Chem. Chem. Phys. 7, 3297 (2005).

----- AuxJ basis set information -----
Your calculation utilizes the auxiliary basis: def2/J
   F. Weigend, Phys. Chem. Chem. Phys. 8, 1057 (2006).

----- AuxC basis set information -----
Your calculation utilizes the auxiliary basis: def2-TZVP/C
  H-La, Hf-Rn : A. Hellweg, C. Hattig, S. Hofener and W. Klopper, Theor. Chem. Acc. 117, 587 (2007).
        Ce-Lu : J. Chmela and M. E. Harding, Mol. Phys. (2018).

================================================================================
                                        WARNINGS
                       Please study these warnings very carefully!
================================================================================


WARNING: No MP2 level density has been requested!
         To caclulate MP2 level properties use
         %mp2 Density relaxed end
         or
         %mp2 Density unrelaxed end
         Otherwise for double-hybrid DFT only the energy is correct!

WARNING: The frozen-core approximation is turned on by default for 
         the MP2 part of double-hybrid DFT.

INFO   : the flag for use of the SHARK integral package has been found!

================================================================================
                                       INPUT FILE
================================================================================
NAME = b2plyp.inp
|  1> !RI-B2PLYP def2-TZVP def2-TZVP/C
|  2> !RIJCOSX VERYSLOWCONV
|  3> 
|  4> %scf
|  5>   AutoTRAHIter 200
|  6>   maxiter 400
|  7> end
|  8> 
|  9> 
| 10> %pal nprocs 6 end 
| 11> 
| 12> *xyzfile 0 5 pbe.xyz
| 13> 
| 14> $new_job
| 15> 
| 16> !RI-B2PLYP def2-TZVP def2-TZVP/C
| 17> !RIJCOSX VERYSLOWCONV
| 18> 
| 19> %scf
| 20>   AutoTRAHIter 200
| 21>   maxiter 400
| 22> end
| 23> 
| 24> 
| 25> %pal nprocs 6 end 
| 26> 
| 27> *xyzfile 0 3 pbe.xyz
| 28> 
| 29> 
| 30> 
| 31> 
| 32> 
| 33>                          ****END OF INPUT****
================================================================================


                 $$$$$$$$$$$$$$$$$$$$$$$$$$$$$$$$$$$$$$$$$$$$$$ 
                 $ THERE ARE  2 JOBS TO BE PROCESSED THIS RUN $
                 $$$$$$$$$$$$$$$$$$$$$$$$$$$$$$$$$$$$$$$$$$$$$$ 




                 $$$$$$$$$$$$$$$$  JOB NUMBER  1 $$$$$$$$$$$$$$


                       ****************************
                       * Single Point Calculation *
                       ****************************

---------------------------------
CARTESIAN COORDINATES (ANGSTROEM)
---------------------------------
  Au     5.328275    9.567976    7.323774
  Au     7.575423    9.303226    5.417949
  Au     4.960829    7.143365    8.353148
  Au     7.025797   10.230007    9.396678
  Au     7.242756   11.630786    6.996804
  Au     6.867947    7.722371   10.467255
  Au     8.770025    5.000649    7.557753
  Au    10.176458    7.346608    7.630232
  Au     9.348319    8.761463    9.849047
  Au     8.300031    6.746013    5.494392
  Au     9.448486    9.961889    7.335872
  Au     6.685174    5.245023    9.316887
  Cr     7.511962    7.784978    7.836740

----------------------------
CARTESIAN COORDINATES (A.U.)
----------------------------
  NO LB      ZA    FRAG     MASS         X           Y           Z
   0 Au   19.0000*   0   196.966   10.068980   18.080854   13.839927
   1 Au   19.0000*   0   196.966   14.315474   17.580550   10.238441
   2 Au   19.0000*   0   196.966    9.374609   13.499004   15.785162
   3 Au   19.0000*   0   196.966   13.276833   19.331911   17.757148
   4 Au   19.0000*   0   196.966   13.686825   21.979000   13.222043
   5 Au   19.0000*   0   196.966   12.978540   14.593166   19.780245
   6 Au   19.0000*   0   196.966   16.572945    9.449856   14.282083
   7 Au   19.0000*   0   196.966   19.230719   13.883076   14.419049
   8 Au   19.0000*   0   196.966   17.665763   16.556766   18.612001
   9 Au   19.0000*   0   196.966   15.684786   12.748117   10.382896
  10 Au   19.0000*   0   196.966   17.855051   18.825241   13.862788
  11 Au   19.0000*   0   196.966   12.633148    9.911657   17.606365
  12 Cr   24.0000    0    52.000   14.195552   14.711477   14.809292
* core charge reduced due to ECP

--------------------------------
INTERNAL COORDINATES (ANGSTROEM)
--------------------------------
 Au     0   0   0     0.000000000000     0.00000000     0.00000000
 Au     1   0   0     2.958366491041     0.00000000     0.00000000
 Au     1   2   0     2.659579453926   105.82492017     0.00000000
 Au     1   2   3     2.759854993406    92.18493762    91.39204822
 Au     4   1   2     2.787229607275    61.42720712    51.14033240
 Au     4   1   2     2.731169969168    92.21341045   257.69605243
 Au     6   4   1     4.414846725855   106.42780015    66.06825040
 Au     7   6   4     2.736207679472    71.06049402    38.01890604
 Au     8   7   6     2.758762374598   107.86165638    13.33614764
 Au     2   1   3     2.658992241067   105.93483699     0.45801500
 Au     8   7   6     2.730620041635   132.94321370   306.63333666
 Au     6   4   1     2.737517727015   132.06954299    36.06042470
 Cr     3   1   2     2.680788063109    64.89824895    35.43654639

---------------------------
INTERNAL COORDINATES (A.U.)
---------------------------
 Au     0   0   0     0.000000000000     0.00000000     0.00000000
 Au     1   0   0     5.590502471837     0.00000000     0.00000000
 Au     1   2   0     5.025876799324   105.82492017     0.00000000
 Au     1   2   3     5.215370106873    92.18493762    91.39204822
 Au     4   1   2     5.267100630107    61.42720712    51.14033240
 Au     4   1   2     5.161163266918    92.21341045   257.69605243
 Au     6   4   1     8.342851235104   106.42780015    66.06825040
 Au     7   6   4     5.170683159734    71.06049402    38.01890604
 Au     8   7   6     5.213305356556   107.86165638    13.33614764
 Au     2   1   3     5.024767127838   105.93483699     0.45801500
 Au     8   7   6     5.160124054486   132.94321370   306.63333666
 Au     6   4   1     5.173158790814   132.06954299    36.06042470
 Cr     3   1   2     5.065955262361    64.89824895    35.43654639

---------------------
BASIS SET INFORMATION
---------------------
There are 2 groups of distinct atoms

 Group   1 Type Au  : 8s7p6d1f contracted to 6s4p3d1f pattern {311111/4111/411/1}
 Group   2 Type Cr  : 17s11p7d1f contracted to 6s4p4d1f pattern {842111/6311/4111/1}

Atom   0Au   basis set group =>   1
Atom   1Au   basis set group =>   1
Atom   2Au   basis set group =>   1
Atom   3Au   basis set group =>   1
Atom   4Au   basis set group =>   1
Atom   5Au   basis set group =>   1
Atom   6Au   basis set group =>   1
Atom   7Au   basis set group =>   1
Atom   8Au   basis set group =>   1
Atom   9Au   basis set group =>   1
Atom  10Au   basis set group =>   1
Atom  11Au   basis set group =>   1
Atom  12Cr   basis set group =>   2
---------------------------------
AUXILIARY/J BASIS SET INFORMATION
---------------------------------
There are 2 groups of distinct atoms

 Group   1 Type Au  : 11s5p5d3f3g contracted to 8s5p5d2f3g pattern {41111111/11111/11111/21/111}
 Group   2 Type Cr  : 19s5p5d3f3g contracted to 8s5p5d2f3g pattern {121111111/11111/11111/21/111}

Atom   0Au   basis set group =>   1
Atom   1Au   basis set group =>   1
Atom   2Au   basis set group =>   1
Atom   3Au   basis set group =>   1
Atom   4Au   basis set group =>   1
Atom   5Au   basis set group =>   1
Atom   6Au   basis set group =>   1
Atom   7Au   basis set group =>   1
Atom   8Au   basis set group =>   1
Atom   9Au   basis set group =>   1
Atom  10Au   basis set group =>   1
Atom  11Au   basis set group =>   1
Atom  12Cr   basis set group =>   2
---------------------------------
AUXILIARY/C BASIS SET INFORMATION
---------------------------------
There are 2 groups of distinct atoms

 Group   1 Type Au  : 8s8p7d5f3g2h contracted to 8s8p7d5f3g2h pattern {11111111/11111111/1111111/11111/111/11}
 Group   2 Type Cr  : 11s9p8d6f5g2h contracted to 9s8p8d6f5g2h pattern {311111111/21111111/11111111/111111/11111/11}

Atom   0Au   basis set group =>   1
Atom   1Au   basis set group =>   1
Atom   2Au   basis set group =>   1
Atom   3Au   basis set group =>   1
Atom   4Au   basis set group =>   1
Atom   5Au   basis set group =>   1
Atom   6Au   basis set group =>   1
Atom   7Au   basis set group =>   1
Atom   8Au   basis set group =>   1
Atom   9Au   basis set group =>   1
Atom  10Au   basis set group =>   1
Atom  11Au   basis set group =>   1
Atom  12Cr   basis set group =>   2
-------------------------
ECP PARAMETER INFORMATION
-------------------------

 Group 1, Type Au ECP Def2-ECP (replacing 60 core electrons, lmax=3)

Atom   0Au   ECP group =>   1
Atom   1Au   ECP group =>   1
Atom   2Au   ECP group =>   1
Atom   3Au   ECP group =>   1
Atom   4Au   ECP group =>   1
Atom   5Au   ECP group =>   1
Atom   6Au   ECP group =>   1
Atom   7Au   ECP group =>   1
Atom   8Au   ECP group =>   1
Atom   9Au   ECP group =>   1
Atom  10Au   ECP group =>   1
Atom  11Au   ECP group =>   1



           ************************************************************
           *        Program running with 6 parallel MPI-processes     *
           *              working on a common directory               *
           ************************************************************
------------------------------------------------------------------------------
                           ORCA GTO INTEGRAL CALCULATION
                           -- RI-GTO INTEGRALS CHOSEN --
------------------------------------------------------------------------------
------------------------------------------------------------------------------
                   ___                                                        
                  /   \      - P O W E R E D   B Y -                         
                 /     \                                                     
                 |  |  |   _    _      __       _____    __    __             
                 |  |  |  | |  | |    /  \     |  _  \  |  |  /  |          
                  \  \/   | |  | |   /    \    | | | |  |  | /  /          
                 / \  \   | |__| |  /  /\  \   | |_| |  |  |/  /          
                |  |  |   |  __  | /  /__\  \  |    /   |      \           
                |  |  |   | |  | | |   __   |  |    \   |  |\   \          
                \     /   | |  | | |  |  |  |  | |\  \  |  | \   \       
                 \___/    |_|  |_| |__|  |__|  |_| \__\ |__|  \__/        
                                                                              
                      - O R C A' S   B I G   F R I E N D -                    
                                      &                                       
                       - I N T E G R A L  F E E D E R -                       
                                                                              
 v1 FN, 2020, v2 2021                                                         
------------------------------------------------------------------------------


Reading SHARK input file b2plyp.SHARKINP.tmp ... ok
----------------------
SHARK INTEGRAL PACKAGE
----------------------

Number of atoms                             ...     13
Number of basis functions                   ...    525
Number of shells                            ...    183
Maximum angular momentum                    ...      3
Integral batch strategy                     ... SHARK/LIBINT Hybrid
RI-J (if used) integral strategy            ... SPLIT-RIJ (Revised 2003 algorithm where possible)
Printlevel                                  ...      1
Contraction scheme used                     ... SEGMENTED contraction
Coulomb Range Separation                    ... NOT USED
Exchange Range Separation                   ... NOT USED
Finite Nucleus Model                        ... NOT USED
Auxiliary Coulomb fitting basis             ... AVAILABLE
   # of basis functions in Aux-J            ...   1157
   # of shells in Aux-J                     ...    299
   Maximum angular momentum in Aux-J        ...      4
Auxiliary J/K fitting basis                 ... NOT available
Auxiliary Correlation fitting basis         ... AVAILABLE
   # of basis functions in Aux-C            ...   1994
   # of shells in Aux-C                     ...    434
   Maximum angular momentum in Aux-C        ...      5
Auxiliary 'external' fitting basis          ... NOT available
Integral threshold                          ...     1.000000e-10
Primitive cut-off                           ...     1.000000e-11
Primitive pair pre-selection threshold      ...     1.000000e-11

Calculating pre-screening integrals         ... done (  0.3 sec) Dimension = 183
Organizing shell pair data                  ... done (  0.6 sec)
Shell pair information
Total number of shell pairs                 ...     16836
Shell pairs after pre-screening             ...     13631
Total number of primitive shell pairs       ...     45389
Primitive shell pairs kept                  ...     26735
          la=0 lb=0:   2135 shell pairs
          la=1 lb=0:   3094 shell pairs
          la=1 lb=1:   1177 shell pairs
          la=2 lb=0:   2700 shell pairs
          la=2 lb=1:   1920 shell pairs
          la=2 lb=2:    792 shell pairs
          la=3 lb=0:    714 shell pairs
          la=3 lb=1:    552 shell pairs
          la=3 lb=2:    472 shell pairs
          la=3 lb=3:     75 shell pairs

Calculating one electron integrals          ... done (  0.2 sec)
Calculating ECP integrals                   ... done ( 15.5 sec)
Calculating RI/J V-Matrix + Cholesky decomp.... done (  3.3 sec)
Calculating RI/C V-Matrix + Cholesky decomp.... done (  3.4 sec)
Calculating Nuclear repulsion               ... done (  0.0 sec) ENN=   4271.081453445378 Eh

SHARK setup successfully completed in  24.5 seconds

Maximum memory used throughout the entire GTOINT-calculation: 39.1 MB


           ************************************************************
           *        Program running with 6 parallel MPI-processes     *
           *              working on a common directory               *
           ************************************************************
-------------------------------------------------------------------------------
                                 ORCA SCF
-------------------------------------------------------------------------------

------------
SCF SETTINGS
------------
Hamiltonian:
 Density Functional     Method          .... DFT(GTOs)
 Exchange Functional    Exchange        .... B88
   X-Alpha parameter    XAlpha          ....  0.666667
   Becke's b parameter  XBeta           ....  0.004200
 Correlation Functional Correlation     .... LYP
 LDA part of GGA corr.  LDAOpt          .... VWN-3
 Gradients option       PostSCFGGA      .... off
 Hybrid DFT is turned on
   Fraction HF Exchange ScalHFX         ....  0.530000
   Scaling of DF-GGA-X  ScalDFX         ....  0.470000
   Scaling of DF-GGA-C  ScalDFC         ....  0.730000
   Scaling of DF-LDA-C  ScalLDAC        ....  0.730000
   Perturbative correction              ....  0.270000
   Density functional embedding theory  .... OFF
   NL short-range parameter             ....  7.800000
 RI-approximation to the Coulomb term is turned on
   Number of AuxJ basis functions       .... 1157
   RIJ-COSX (HFX calculated with COS-X)).... on


General Settings:
 Integral files         IntName         .... b2plyp
 Hartree-Fock type      HFTyp           .... UHF
 Total Charge           Charge          ....    0
 Multiplicity           Mult            ....    5
 Number of Electrons    NEL             ....  252
 Basis Dimension        Dim             ....  525
 Nuclear Repulsion      ENuc            ....   4271.0814534454 Eh

Convergence Acceleration:
 DIIS                   CNVDIIS         .... on
   Start iteration      DIISMaxIt       ....     0
   Startup error        DIISStart       ....  0.200000
   # of expansion vecs  DIISMaxEq       ....     5
   Bias factor          DIISBfac        ....   1.050
   Max. coefficient     DIISMaxC        ....  10.000
 Trust-Rad. Augm. Hess. CNVTRAH         .... auto
   Auto Start mean grad. ratio tolernc. ....  1.125000
   Auto Start start iteration           ....   200
   Auto Start num. interpolation iter.  ....    10
   Max. Number of Micro iterations      ....    16
   Max. Number of Macro iterations      .... Maxiter - #DIIS iter
   Number of Davidson start vectors     ....     2
   Converg. threshold I  (grad. norm)   ....   5.000e-05
   Converg. threshold II (energy diff.) ....   1.000e-06
   Grad. Scal. Fac. for Micro threshold ....   0.100
   Minimum threshold for Micro iter.    ....   0.010
   NR start threshold (gradient norm)   ....   0.001
   Initial trust radius                 ....   0.400
   Minimum AH scaling param. (alpha)    ....   1.000
   Maximum AH scaling param. (alpha)    .... 1000.000
   Orbital update algorithm             .... Taylor
   White noise on init. David. guess    .... on
   Maximum white noise                  ....   0.010
   Quad. conv. algorithm                .... NR
 SOSCF                  CNVSOSCF        .... off
 Level Shifting         CNVShift        .... on
   Level shift para.    LevelShift      ....    0.2500
   Turn off err/grad.   ShiftErr        ....    0.0000
 Zerner damping         CNVZerner       .... off
 Static damping         CNVDamp         .... on
   Fraction old density DampFac         ....    0.9200
   Max. Damping (<1)    DampMax         ....    0.9800
   Min. Damping (>=0)   DampMin         ....    0.0000
   Turn off err/grad.   DampErr         ....    0.0030
 Fernandez-Rico         CNVRico         .... off

SCF Procedure:
 Maximum # iterations   MaxIter         ....   400
 SCF integral mode      SCFMode         .... Direct
   Integral package                     .... SHARK and LIBINT hybrid scheme
 Reset frequency        DirectResetFreq ....    20
 Integral Threshold     Thresh          ....  1.000e-10 Eh
 Primitive CutOff       TCut            ....  1.000e-11 Eh

Convergence Tolerance:
 Convergence Check Mode ConvCheckMode   .... Total+1el-Energy
 Convergence forced     ConvForced      .... 0
 Energy Change          TolE            ....  1.000e-06 Eh
 1-El. energy change                    ....  1.000e-03 Eh
 DIIS Error             TolErr          ....  1.000e-06


Diagonalization of the overlap matrix:
Smallest eigenvalue                        ... 2.281e-04
Time for diagonalization                   ...    0.104 sec
Threshold for overlap eigenvalues          ... 1.000e-08
Number of eigenvalues below threshold      ... 0
Time for construction of square roots      ...    0.244 sec
Total time needed                          ...    0.568 sec

Time for model grid setup =    1.578 sec

------------------------------
INITIAL GUESS: MODEL POTENTIAL
------------------------------
Loading Hartree-Fock densities                     ... done
  calling /media/Programs/ORCA501/orca b2plyp_atom79.inp > b2plyp_atom79.out in order to generate an atomic fitting density for atom 0 (Au with ECP) on-the-fly... 
    atom 0 (Au), assumed electronic state with S=2: 1s2 2s2 2p6 3s2 3p6 4s2 3d10 4p6 5s2 4d10 5p6 6s1 4f14 5d10           ... done
Calculating cut-offs                               ... done
Initializing the effective Hamiltonian             ... done
Setting up the integral package (SHARK)            ... done
Starting the Coulomb interaction                   ... done (   1.5 sec)
Reading the grid                                   ... done
Mapping shells                                     ... done
Starting the XC term evaluation                    ... done (   0.7 sec)
  promolecular density results
     # of electrons  =    972.013326282
     EX              =  -4455.929754623
     EC              =    -19.725959097
     EX+EC           =  -4475.655713721
Transforming the Hamiltonian                       ... done (   0.7 sec)
Diagonalizing the Hamiltonian                      ... done (   1.0 sec)
Back transforming the eigenvectors                 ... done (   0.1 sec)
Now organizing SCF variables                       ... done
                      ------------------
                      INITIAL GUESS DONE (   7.6 sec)
                      ------------------
-------------------
DFT GRID GENERATION
-------------------

General Integration Accuracy     IntAcc      ... 4.388
Radial Grid Type                 RadialGrid  ... OptM3 with GC (2021)
Angular Grid (max. ang.)         AngularGrid ... 4 (Lebedev-302)
Angular grid pruning method      GridPruning ... 4 (adaptive)
Weight generation scheme         WeightScheme... Becke
Basis function cutoff            BFCut       ... 1.0000e-10
Integration weight cutoff        WCut        ... 1.0000e-14
Angular grids for H and He will be reduced by one unit
Partially contracted basis set               ... off
Rotationally invariant grid construction     ... off

Total number of grid points                  ...   144779
Total number of batches                      ...     2270
Average number of points per batch           ...       63
Average number of grid points per atom       ...    11137
Time for grid setup =    3.012 sec

--------------------
COSX GRID GENERATION
--------------------

GRIDX 1
-------
General Integration Accuracy     IntAcc      ... 3.816
Radial Grid Type                 RadialGrid  ... OptM3 with GC (2021)
Angular Grid (max. ang.)         AngularGrid ... 1 (Lebedev-50)
Angular grid pruning method      GridPruning ... 4 (adaptive)
Weight generation scheme         WeightScheme... Becke
Basis function cutoff            BFCut       ... 1.0000e-10
Integration weight cutoff        WCut        ... 1.0000e-14
Angular grids for H and He will be reduced by one unit
Partially contracted basis set               ... on
Rotationally invariant grid construction     ... off

Total number of grid points                  ...    15201
Total number of batches                      ...      245
Average number of points per batch           ...       62
Average number of grid points per atom       ...     1169
UseSFitting                                  ... on

GRIDX 2
-------
General Integration Accuracy     IntAcc      ... 4.020
Radial Grid Type                 RadialGrid  ... OptM3 with GC (2021)
Angular Grid (max. ang.)         AngularGrid ... 2 (Lebedev-110)
Angular grid pruning method      GridPruning ... 4 (adaptive)
Weight generation scheme         WeightScheme... Becke
Basis function cutoff            BFCut       ... 1.0000e-10
Integration weight cutoff        WCut        ... 1.0000e-14
Angular grids for H and He will be reduced by one unit
Partially contracted basis set               ... on
Rotationally invariant grid construction     ... off

Total number of grid points                  ...    46118
Total number of batches                      ...      728
Average number of points per batch           ...       63
Average number of grid points per atom       ...     3548
UseSFitting                                  ... on

GRIDX 3
-------
General Integration Accuracy     IntAcc      ... 4.338
Radial Grid Type                 RadialGrid  ... OptM3 with GC (2021)
Angular Grid (max. ang.)         AngularGrid ... 3 (Lebedev-194)
Angular grid pruning method      GridPruning ... 4 (adaptive)
Weight generation scheme         WeightScheme... Becke
Basis function cutoff            BFCut       ... 1.0000e-10
Integration weight cutoff        WCut        ... 1.0000e-14
Angular grids for H and He will be reduced by one unit
Partially contracted basis set               ... on
Rotationally invariant grid construction     ... off

Total number of grid points                  ...    84363
Total number of batches                      ...     1325
Average number of points per batch           ...       63
Average number of grid points per atom       ...     6489
UseSFitting                                  ... on

Time for X-Grid setup             =    5.709 sec

--------------
SCF ITERATIONS
--------------
ITER       Energy         Delta-E        Max-DP      RMS-DP      [F,P]     Damp
               ***  Starting incremental Fock matrix formation  ***
  0  -2667.7924755392   0.000000000000 0.06127511  0.00049564  0.2743031 0.9200
  1  -2668.0864914481  -0.294015908960 0.05435854  0.00048093  0.2517963 0.9200
                               ***Turning on DIIS***
  2  -2668.2515089691  -0.165017521007 0.04147553  0.00041709  0.2315433 0.9200
  3  -2668.3220446732  -0.070535704114 0.03310735  0.00027800  0.2129379 0.9200
  4  -2668.3831901376  -0.061145464394 0.03286500  0.00025003  0.1958480 0.9200
  5  -2668.4440273836  -0.060837245990 0.03297273  0.00023716  0.1801462 0.9200
  6  -2668.4975885334  -0.053561149731 0.02982910  0.00021935  0.1657669 0.9200
  7  -2668.5516759234  -0.054087390030 0.01942245  0.00020739  0.1525757 0.9200
  8  -2668.6088336865  -0.057157763128 0.01829321  0.00019547  0.1404220 0.9200
  9  -2668.6609608741  -0.052127187550 0.02279745  0.00017896  0.1292038 0.9200
 10  -2668.7098157467  -0.048854872597 0.02391148  0.00016856  0.1188616 0.9200
 11  -2668.7545867520  -0.044771005322 0.02304006  0.00015782  0.1093413 0.9200
 12  -2668.7968191432  -0.042232391192 0.02058741  0.00014737  0.1005938 0.9200
 13  -2668.8372082482  -0.040389104999 0.01785648  0.00013759  0.0925564 0.9200
 14  -2668.8749921620  -0.037783913865 0.01620813  0.00012715  0.0851636 0.9200
 15  -2668.9102386740  -0.035246511974 0.01484516  0.00011812  0.0783572 0.9200
 16  -2668.9430776781  -0.032839004095 0.01398910  0.00010996  0.0720904 0.9200
 17  -2668.9737741226  -0.030696444453 0.01325131  0.00010219  0.0663242 0.9200
 18  -2669.0025518841  -0.028777761568 0.01214940  0.00009486  0.0610212 0.9200
 19  -2669.0294490399  -0.026897155790 0.01047629  0.00008763  0.0561439 0.9200
               *** Restarting incremental Fock matrix formation ***
                                   *** Resetting DIIS ***
 20  -2669.0535390643  -0.024090024407 0.00894341  0.00007722  0.0516592 0.9200
 21  -2669.0771745296  -0.023635465253 0.00853062  0.00007058  0.0475366 0.9200
 22  -2669.0991444078  -0.021969878221 0.00816067  0.00006600  0.0437441 0.9200
 23  -2669.1195144344  -0.020370026624 0.00782935  0.00006272  0.0402573 0.9200
 24  -2669.1383846674  -0.018870232963 0.00751149  0.00005974  0.0370495 0.9200
 25  -2669.1558703583  -0.017485690937 0.00713281  0.00005631  0.0340959 0.9200
 26  -2669.1720964241  -0.016226065798 0.00652906  0.00005275  0.0313745 0.9200
 27  -2669.1871477012  -0.015051277063 0.00576833  0.00004923  0.0288682 0.9200
 28  -2669.2011060007  -0.013958299525 0.00507691  0.00004588  0.0265616 0.9200
 29  -2669.2140498893  -0.012943888628 0.00455665  0.00004270  0.0244395 0.9200
 30  -2669.2260526100  -0.012002720669 0.00415550  0.00003970  0.0224874 0.9200
 31  -2669.2371801430  -0.011127532989 0.00376902  0.00003689  0.0206914 0.9200
 32  -2669.2474922364  -0.010312093439 0.00336482  0.00003427  0.0190388 0.9200
 33  -2669.2570448485  -0.009552612064 0.00298939  0.00003183  0.0175182 0.9200
 34  -2669.2658908217  -0.008845973182 0.00266671  0.00002956  0.0161190 0.9200
 35  -2669.2740797400  -0.008188918330 0.00239005  0.00002744  0.0148316 0.9200
 36  -2669.2816579087  -0.007578168677 0.00213626  0.00002547  0.0136470 0.9200
 37  -2669.2886684167  -0.007010507970 0.00189628  0.00002365  0.0125571 0.9200
 38  -2669.2951516094  -0.006483192744 0.00168368  0.00002196  0.0115543 0.9200
 39  -2669.3011452417  -0.005993632272 0.00149342  0.00002023  0.0106315 0.9200
               *** Restarting incremental Fock matrix formation ***
                                   *** Resetting DIIS ***
 40  -2669.3066869980  -0.005541756285 0.00138985  0.00001697  0.0097825 0.9200
 41  -2669.3118248831  -0.005137885142 0.00135243  0.00001529  0.0090038 0.9200
 42  -2669.3165679063  -0.004743023183 0.00119676  0.00001441  0.0082870 0.9200
 43  -2669.3209425841  -0.004374677835 0.00104598  0.00001391  0.0076274 0.9200
 44  -2669.3249759067  -0.004033322588 0.00097329  0.00001346  0.0070200 0.9200
 45  -2669.3286940428  -0.003718136083 0.00090397  0.00001280  0.0064605 0.9200
 46  -2669.3321230572  -0.003429014379 0.00083720  0.00001209  0.0059450 0.9200
 47  -2669.3352855979  -0.003162540726 0.00080822  0.00001139  0.0054703 0.9200
 48  -2669.3382023653  -0.002916767439 0.00078009  0.00001070  0.0050335 0.9200
 49  -2669.3408924929  -0.002690127535 0.00074623  0.00001002  0.0046315 0.9200
 50  -2669.3433735509  -0.002481058048 0.00070923  0.00000938  0.0042618 0.9200
 51  -2669.3456616512  -0.002288100288 0.00067179  0.00000877  0.0039215 0.9200
 52  -2669.3477715822  -0.002109931004 0.00063519  0.00000820  0.0036084 0.9200
 53  -2669.3497170513  -0.001945469117 0.00059982  0.00000766  0.0033204 0.9200
 54  -2669.3515106854  -0.001793634071 0.00056550  0.00000716  0.0030553 0.9200
 55  -2669.3531641808  -0.001653495376 0.00665261  0.00008366  0.0028113 0.0000
 56  -2669.3724521551  -0.019287974322 0.00151580  0.00000738  0.0004658 0.0000
               *** Restarting incremental Fock matrix formation ***
                                   *** Resetting DIIS ***
 57  -2669.3732371260  -0.000784970869 0.00546416  0.00011398  0.0004917 0.0000
 58  -2669.3733760795  -0.000138953579 0.00265528  0.00003949  0.0002119 0.0000
 59  -2669.3733960252  -0.000019945694 0.00070808  0.00001309  0.0002371 0.0000
 60  -2669.3734010067  -0.000004981438 0.00029566  0.00000609  0.0001232 0.0000
 61  -2669.3734030470  -0.000002040273 0.00046484  0.00000314  0.0001142 0.0000
 62  -2669.3734042846  -0.000001237608 0.00044666  0.00000260  0.0001106 0.0000
 63  -2669.3734052079  -0.000000923310 0.00029254  0.00000195  0.0001040 0.0000
 64  -2669.3734059078  -0.000000699957 0.00055225  0.00000217  0.0000990 0.0000
 65  -2669.3734065653  -0.000000657466 0.00065477  0.00000219  0.0000913 0.0000
 66  -2669.3734072422  -0.000000676903 0.00048389  0.00000202  0.0000832 0.0000
 67  -2669.3734077217  -0.000000479500 0.00041292  0.00000178  0.0000755 0.0000
 68  -2669.3734082588  -0.000000537097 0.00056474  0.00000205  0.0000692 0.0000
 69  -2669.3734087125  -0.000000453697 0.00020016  0.00000114  0.0000647 0.0000
 70  -2669.3734090062  -0.000000293714 0.00049023  0.00000214  0.0000585 0.0000
 71  -2669.3734094866  -0.000000480425 0.00009208  0.00000069  0.0000600 0.0000
                 **** Energy Check signals convergence ****

               *****************************************************
               *                     SUCCESS                       *
               *           SCF CONVERGED AFTER  72 CYCLES          *
               *****************************************************

Old exchange energy                            =   -101.077896023 Eh
New exchange energy                            =   -101.077753710 Eh
Exchange energy change after final integration =      0.000142314 Eh
Total energy after final integration           =  -2669.373267356 Eh
Final COS-X integration done in                =    38.006 sec

----------------
TOTAL SCF ENERGY
----------------

Total Energy       :        -2669.37326736 Eh          -72637.33942 eV

Components:
Nuclear Repulsion  :         4271.08145345 Eh          116222.03496 eV
Electronic Energy  :        -6940.45472080 Eh         -188859.37438 eV
One Electron Energy:       -12838.98808368 Eh         -349366.62721 eV
Two Electron Energy:         5898.53336288 Eh          160507.25283 eV
Max COSX asymmetry :            0.00000562 Eh               0.00015 eV

Virial components:
Potential Energy   :        -4263.97387793 Eh         -116028.62800 eV
Kinetic Energy     :         1594.60061057 Eh           43391.28858 eV
Virial Ratio       :            2.67400743


DFT components:
N(Alpha)           :      128.000012426547 electrons
N(Beta)            :      124.000017323372 electrons
N(Total)           :      252.000029749919 electrons
E(X)               :      -91.050664907800 Eh       
E(C)               :       -6.928691099959 Eh       
E(XC)              :      -97.979356007759 Eh       
DFET-embed. en.    :        0.000000000000 Eh       

---------------
SCF CONVERGENCE
---------------

  Last Energy change         ...   -1.8299e-07  Tolerance :   1.0000e-06
  Last MAX-Density change    ...    0.0000e+00  Tolerance :   1.0000e-05
  Last RMS-Density change    ...    0.0000e+00  Tolerance :   1.0000e-06
  Last DIIS Error            ...    4.9945e-05  Tolerance :   1.0000e-06

             **** THE GBW FILE WAS UPDATED (b2plyp.gbw) ****
             **** DENSITY b2plyp.scfp WAS UPDATED ****
             **** ENERGY FILE WAS UPDATED (b2plyp.en.tmp) ****
----------------------
UHF SPIN CONTAMINATION
----------------------

Warning: in a DFT calculation there is little theoretical justification to 
         calculate <S**2> as in Hartree-Fock theory. We will do it anyways
         but you should keep in mind that the values have only limited relevance

Expectation value of <S**2>     :     6.096724
Ideal value S*(S+1) for S=2.0   :     6.000000
Deviation                       :     0.096724

             **** THE GBW FILE WAS UPDATED (b2plyp.gbw) ****
             **** DENSITY b2plyp.scfp WAS UPDATED ****
----------------
ORBITAL ENERGIES
----------------
                 SPIN UP ORBITALS
  NO   OCC          E(Eh)            E(eV) 
   0   1.0000    -217.753713     -5925.3798 
   1   1.0000     -25.438042      -692.2043 
   2   1.0000     -21.577913      -587.1649 
   3   1.0000     -21.576976      -587.1394 
   4   1.0000     -21.571520      -586.9909 
   5   1.0000      -4.404224      -119.8450 
   6   1.0000      -4.404090      -119.8414 
   7   1.0000      -4.403948      -119.8375 
   8   1.0000      -4.397062      -119.6501 
   9   1.0000      -4.396568      -119.6367 
  10   1.0000      -4.391987      -119.5121 
  11   1.0000      -4.391425      -119.4967 
  12   1.0000      -4.391345      -119.4946 
  13   1.0000      -4.391091      -119.4877 
  14   1.0000      -4.391019      -119.4857 
  15   1.0000      -4.380879      -119.2098 
  16   1.0000      -4.380599      -119.2022 
  17   1.0000      -3.229944       -87.8913 
  18   1.0000      -2.525997       -68.7359 
  19   1.0000      -2.525947       -68.7345 
  20   1.0000      -2.523083       -68.6566 
  21   1.0000      -2.522413       -68.6384 
  22   1.0000      -2.521812       -68.6220 
  23   1.0000      -2.521354       -68.6095 
  24   1.0000      -2.520713       -68.5921 
  25   1.0000      -2.518268       -68.5256 
  26   1.0000      -2.518060       -68.5199 
  27   1.0000      -2.516063       -68.4656 
  28   1.0000      -2.515639       -68.4540 
  29   1.0000      -2.514640       -68.4268 
  30   1.0000      -2.514208       -68.4151 
  31   1.0000      -2.514091       -68.4119 
  32   1.0000      -2.513819       -68.4045 
  33   1.0000      -2.512502       -68.3687 
  34   1.0000      -2.511575       -68.3434 
  35   1.0000      -2.510773       -68.3216 
  36   1.0000      -2.510535       -68.3151 
  37   1.0000      -2.509841       -68.2962 
  38   1.0000      -2.508309       -68.2546 
  39   1.0000      -2.508170       -68.2508 
  40   1.0000      -2.507992       -68.2459 
  41   1.0000      -2.507577       -68.2346 
  42   1.0000      -2.506086       -68.1941 
  43   1.0000      -2.505940       -68.1901 
  44   1.0000      -2.505773       -68.1856 
  45   1.0000      -2.504727       -68.1571 
  46   1.0000      -2.504030       -68.1381 
  47   1.0000      -2.503872       -68.1338 
  48   1.0000      -2.500472       -68.0413 
  49   1.0000      -2.499140       -68.0050 
  50   1.0000      -2.498446       -67.9862 
  51   1.0000      -2.495862       -67.9158 
  52   1.0000      -2.495475       -67.9053 
  53   1.0000      -2.494144       -67.8691 
  54   1.0000      -2.122314       -57.7511 
  55   1.0000      -2.112313       -57.4790 
  56   1.0000      -2.111987       -57.4701 
  57   1.0000      -0.489987       -13.3332 
  58   1.0000      -0.478338       -13.0162 
  59   1.0000      -0.475050       -12.9268 
  60   1.0000      -0.470661       -12.8073 
  61   1.0000      -0.465816       -12.6755 
  62   1.0000      -0.464001       -12.6261 
  63   1.0000      -0.453276       -12.3343 
  64   1.0000      -0.451851       -12.2955 
  65   1.0000      -0.451470       -12.2851 
  66   1.0000      -0.449514       -12.2319 
  67   1.0000      -0.448501       -12.2043 
  68   1.0000      -0.445618       -12.1259 
  69   1.0000      -0.442867       -12.0510 
  70   1.0000      -0.438931       -11.9439 
  71   1.0000      -0.438001       -11.9186 
  72   1.0000      -0.435165       -11.8415 
  73   1.0000      -0.431501       -11.7417 
  74   1.0000      -0.427336       -11.6284 
  75   1.0000      -0.426013       -11.5924 
  76   1.0000      -0.424494       -11.5511 
  77   1.0000      -0.420279       -11.4364 
  78   1.0000      -0.419708       -11.4208 
  79   1.0000      -0.418667       -11.3925 
  80   1.0000      -0.415241       -11.2993 
  81   1.0000      -0.412697       -11.2300 
  82   1.0000      -0.411139       -11.1877 
  83   1.0000      -0.408218       -11.1082 
  84   1.0000      -0.407429       -11.0867 
  85   1.0000      -0.403078       -10.9683 
  86   1.0000      -0.402465       -10.9516 
  87   1.0000      -0.395897       -10.7729 
  88   1.0000      -0.395871       -10.7722 
  89   1.0000      -0.392032       -10.6677 
  90   1.0000      -0.388949       -10.5838 
  91   1.0000      -0.386654       -10.5214 
  92   1.0000      -0.382708       -10.4140 
  93   1.0000      -0.380103       -10.3431 
  94   1.0000      -0.374470       -10.1898 
  95   1.0000      -0.371913       -10.1203 
  96   1.0000      -0.371347       -10.1049 
  97   1.0000      -0.369130       -10.0445 
  98   1.0000      -0.368481       -10.0269 
  99   1.0000      -0.366115        -9.9625 
 100   1.0000      -0.364258        -9.9120 
 101   1.0000      -0.362576        -9.8662 
 102   1.0000      -0.359297        -9.7770 
 103   1.0000      -0.358165        -9.7462 
 104   1.0000      -0.356821        -9.7096 
 105   1.0000      -0.355390        -9.6707 
 106   1.0000      -0.355047        -9.6613 
 107   1.0000      -0.351987        -9.5780 
 108   1.0000      -0.350399        -9.5348 
 109   1.0000      -0.348628        -9.4867 
 110   1.0000      -0.347228        -9.4486 
 111   1.0000      -0.344895        -9.3851 
 112   1.0000      -0.342935        -9.3317 
 113   1.0000      -0.340461        -9.2644 
 114   1.0000      -0.339351        -9.2342 
 115   1.0000      -0.338330        -9.2064 
 116   1.0000      -0.337515        -9.1842 
 117   1.0000      -0.333228        -9.0676 
 118   1.0000      -0.330328        -8.9887 
 119   1.0000      -0.327678        -8.9166 
 120   1.0000      -0.319618        -8.6973 
 121   1.0000      -0.313045        -8.5184 
 122   1.0000      -0.310487        -8.4488 
 123   1.0000      -0.306465        -8.3393 
 124   1.0000      -0.286282        -7.7901 
 125   1.0000      -0.234913        -6.3923 
 126   1.0000      -0.226442        -6.1618 
 127   1.0000      -0.213310        -5.8045 
 128   0.0000      -0.098984        -2.6935 
 129   0.0000      -0.088695        -2.4135 
 130   0.0000      -0.069418        -1.8890 
 131   0.0000      -0.064287        -1.7493 
 132   0.0000      -0.059701        -1.6245 
 133   0.0000      -0.054725        -1.4891 
 134   0.0000      -0.028053        -0.7634 
 135   0.0000      -0.006911        -0.1881 
 136   0.0000      -0.005309        -0.1445 
 137   0.0000      -0.001472        -0.0401 
 138   0.0000       0.003020         0.0822 
 139   0.0000       0.017635         0.4799 
 140   0.0000       0.018309         0.4982 
 141   0.0000       0.022857         0.6220 
 142   0.0000       0.034789         0.9467 
 143   0.0000       0.046753         1.2722 
 144   0.0000       0.066683         1.8145 
 145   0.0000       0.069925         1.9027 
 146   0.0000       0.072644         1.9768 
 147   0.0000       0.080250         2.1837 
 148   0.0000       0.082408         2.2424 
 149   0.0000       0.083098         2.2612 
 150   0.0000       0.086830         2.3628 
 151   0.0000       0.094316         2.5665 
 152   0.0000       0.101505         2.7621 
 153   0.0000       0.103817         2.8250 
 154   0.0000       0.105069         2.8591 
 155   0.0000       0.105896         2.8816 
 156   0.0000       0.106629         2.9015 
 157   0.0000       0.109171         2.9707 
 158   0.0000       0.117665         3.2018 
 159   0.0000       0.124006         3.3744 
 160   0.0000       0.135777         3.6947 
 161   0.0000       0.145013         3.9460 
 162   0.0000       0.147058         4.0016 
 163   0.0000       0.149488         4.0678 
 164   0.0000       0.154216         4.1964 
 165   0.0000       0.162813         4.4304 
 166   0.0000       0.171385         4.6636 
 167   0.0000       0.173522         4.7218 
 168   0.0000       0.182951         4.9783 
 169   0.0000       0.184342         5.0162 
 170   0.0000       0.184396         5.0177 
 171   0.0000       0.188852         5.1389 
 172   0.0000       0.191351         5.2069 
 173   0.0000       0.193679         5.2703 
 174   0.0000       0.209357         5.6969 
 175   0.0000       0.209724         5.7069 
 176   0.0000       0.215214         5.8563 
 177   0.0000       0.219845         5.9823 
 178   0.0000       0.224192         6.1006 
 179   0.0000       0.262326         7.1382 
 180   0.0000       0.285352         7.7648 
 181   0.0000       0.289694         7.8830 
 182   0.0000       0.291655         7.9363 
 183   0.0000       0.297649         8.0994 
 184   0.0000       0.305361         8.3093 
 185   0.0000       0.310574         8.4511 
 186   0.0000       0.311084         8.4650 
 187   0.0000       0.324948         8.8423 
 188   0.0000       0.331967         9.0333 
 189   0.0000       0.337181         9.1752 
 190   0.0000       0.345947         9.4137 
 191   0.0000       0.346283         9.4228 
 192   0.0000       0.350809         9.5460 
 193   0.0000       0.354894         9.6572 
 194   0.0000       0.365273         9.9396 
 195   0.0000       0.367647        10.0042 
 196   0.0000       0.372986        10.1495 
 197   0.0000       0.375111        10.2073 
 198   0.0000       0.375299        10.2124 
 199   0.0000       0.378307        10.2943 
 200   0.0000       0.385282        10.4840 
 201   0.0000       0.395204        10.7540 
 202   0.0000       0.402012        10.9393 
 203   0.0000       0.402386        10.9495 
 204   0.0000       0.406037        11.0488 
 205   0.0000       0.417268        11.3544 
 206   0.0000       0.418555        11.3895 
 207   0.0000       0.426230        11.5983 
 208   0.0000       0.426505        11.6058 
 209   0.0000       0.432472        11.7682 
 210   0.0000       0.439447        11.9579 
 211   0.0000       0.443751        12.0751 
 212   0.0000       0.450617        12.2619 
 213   0.0000       0.454746        12.3743 
 214   0.0000       0.455551        12.3962 
 215   0.0000       0.460875        12.5410 
 216   0.0000       0.465165        12.6578 
 217   0.0000       0.466859        12.7039 
 218   0.0000       0.470230        12.7956 
 219   0.0000       0.479503        13.0479 
 220   0.0000       0.484279        13.1779 
 221   0.0000       0.484987        13.1972 
 222   0.0000       0.492066        13.3898 
 223   0.0000       0.504608        13.7311 
 224   0.0000       0.508355        13.8330 
 225   0.0000       0.510735        13.8978 
 226   0.0000       0.511303        13.9133 
 227   0.0000       0.513499        13.9730 
 228   0.0000       0.533583        14.5195 
 229   0.0000       0.538355        14.6494 
 230   0.0000       0.541558        14.7365 
 231   0.0000       0.545678        14.8487 
 232   0.0000       0.556942        15.1552 
 233   0.0000       0.562196        15.2981 
 234   0.0000       0.564152        15.3514 
 235   0.0000       0.567659        15.4468 
 236   0.0000       0.577832        15.7236 
 237   0.0000       0.579760        15.7761 
 238   0.0000       0.586870        15.9695 
 239   0.0000       0.588758        16.0209 
 240   0.0000       0.595653        16.2085 
 241   0.0000       0.599019        16.3001 
 242   0.0000       0.600279        16.3344 
 243   0.0000       0.605839        16.4857 
 244   0.0000       0.608259        16.5516 
 245   0.0000       0.623083        16.9550 
 246   0.0000       0.625348        17.0166 
 247   0.0000       0.631455        17.1828 
 248   0.0000       0.638129        17.3644 
 249   0.0000       0.639108        17.3910 
 250   0.0000       0.653482        17.7822 
 251   0.0000       0.659777        17.9534 
 252   0.0000       0.669478        18.2174 
 253   0.0000       0.672157        18.2903 
 254   0.0000       0.688517        18.7355 
 255   0.0000       0.695167        18.9164 
 256   0.0000       0.710590        19.3361 
 257   0.0000       0.765469        20.8295 
 258   0.0000       0.787974        21.4419 
 259   0.0000       0.797012        21.6878 
 260   0.0000       0.810022        22.0418 
 261   0.0000       0.832243        22.6465 
 262   0.0000       0.855755        23.2863 
 263   0.0000       0.861335        23.4381 
 264   0.0000       0.871984        23.7279 
 265   0.0000       0.886435        24.1211 
 266   0.0000       0.887828        24.1590 
 267   0.0000       0.897101        24.4114 
 268   0.0000       0.912251        24.8236 
 269   0.0000       0.925271        25.1779 
 270   0.0000       0.929953        25.3053 
 271   0.0000       0.947909        25.7939 
 272   0.0000       0.954718        25.9792 
 273   0.0000       0.962184        26.1823 
 274   0.0000       0.978967        26.6390 
 275   0.0000       0.987104        26.8605 
 276   0.0000       0.990804        26.9611 
 277   0.0000       1.001743        27.2588 
 278   0.0000       1.010770        27.5044 
 279   0.0000       1.021844        27.8058 
 280   0.0000       1.022977        27.8366 
 281   0.0000       1.043544        28.3963 
 282   0.0000       1.047879        28.5142 
 283   0.0000       1.063362        28.9355 
 284   0.0000       1.066200        29.0128 
 285   0.0000       1.069631        29.1061 
 286   0.0000       1.080874        29.4121 
 287   0.0000       1.106889        30.1200 
 288   0.0000       1.120444        30.4888 
 289   0.0000       1.177758        32.0484 
 290   0.0000       1.193834        32.4859 
 291   0.0000       1.241956        33.7954 
 292   0.0000       1.245322        33.8869 
 293   0.0000       1.382287        37.6139 
 294   0.0000       1.388440        37.7814 
 295   0.0000       1.401609        38.1397 
 296   0.0000       1.420494        38.6536 
 297   0.0000       1.424833        38.7717 
 298   0.0000       1.457543        39.6618 
 299   0.0000       1.464892        39.8617 
 300   0.0000       1.472470        40.0679 
 301   0.0000       1.476565        40.1794 
 302   0.0000       1.483276        40.3620 
 303   0.0000       1.484569        40.3972 
 304   0.0000       1.507717        41.0271 
 305   0.0000       1.510840        41.1121 
 306   0.0000       1.522923        41.4408 
 307   0.0000       1.531275        41.6681 
 308   0.0000       1.536953        41.8226 
 309   0.0000       1.551952        42.2308 
 310   0.0000       1.558198        42.4007 
 311   0.0000       1.562389        42.5148 
 312   0.0000       1.569138        42.6984 
 313   0.0000       1.573158        42.8078 
 314   0.0000       1.579597        42.9830 
 315   0.0000       1.581668        43.0394 
 316   0.0000       1.591700        43.3124 
 317   0.0000       1.593576        43.3634 
 318   0.0000       1.603998        43.6470 
 319   0.0000       1.604481        43.6602 
 320   0.0000       1.610427        43.8220 
 321   0.0000       1.611174        43.8423 
 322   0.0000       1.612328        43.8737 
 323   0.0000       1.621295        44.1177 
 324   0.0000       1.624047        44.1926 
 325   0.0000       1.629829        44.3499 
 326   0.0000       1.634820        44.4857 
 327   0.0000       1.636039        44.5189 
 328   0.0000       1.640329        44.6356 
 329   0.0000       1.643590        44.7244 
 330   0.0000       1.645419        44.7741 
 331   0.0000       1.654247        45.0144 
 332   0.0000       1.658387        45.1270 
 333   0.0000       1.661451        45.2104 
 334   0.0000       1.663602        45.2689 
 335   0.0000       1.664820        45.3021 
 336   0.0000       1.668070        45.3905 
 337   0.0000       1.669587        45.4318 
 338   0.0000       1.671399        45.4811 
 339   0.0000       1.672137        45.5012 
 340   0.0000       1.675126        45.5825 
 341   0.0000       1.682626        45.7866 
 342   0.0000       1.683812        45.8189 
 343   0.0000       1.688749        45.9532 
 344   0.0000       1.691342        46.0238 
 345   0.0000       1.692049        46.0430 
 346   0.0000       1.693031        46.0697 
 347   0.0000       1.694208        46.1017 
 348   0.0000       1.695692        46.1421 
 349   0.0000       1.699864        46.2556 
 350   0.0000       1.700270        46.2667 
 351   0.0000       1.702165        46.3183 
 352   0.0000       1.703626        46.3580 
 353   0.0000       1.704904        46.3928 
 354   0.0000       1.706193        46.4279 
 355   0.0000       1.709201        46.5097 
 356   0.0000       1.709638        46.5216 
 357   0.0000       1.713501        46.6267 
 358   0.0000       1.713969        46.6395 
 359   0.0000       1.715249        46.6743 
 360   0.0000       1.715418        46.6789 
 361   0.0000       1.718053        46.7506 
 362   0.0000       1.719796        46.7980 
 363   0.0000       1.720070        46.8055 
 364   0.0000       1.723921        46.9103 
 365   0.0000       1.725218        46.9456 
 366   0.0000       1.727476        47.0070 
 367   0.0000       1.729554        47.0635 
 368   0.0000       1.730871        47.0994 
 369   0.0000       1.731170        47.1075 
 370   0.0000       1.734069        47.1864 
 371   0.0000       1.735132        47.2154 
 372   0.0000       1.738200        47.2988 
 373   0.0000       1.739478        47.3336 
 374   0.0000       1.741178        47.3799 
 375   0.0000       1.741974        47.4015 
 376   0.0000       1.742615        47.4190 
 377   0.0000       1.743548        47.4443 
 378   0.0000       1.748232        47.5718 
 379   0.0000       1.749445        47.6048 
 380   0.0000       1.750958        47.6460 
 381   0.0000       1.752238        47.6808 
 382   0.0000       1.753692        47.7204 
 383   0.0000       1.754842        47.7517 
 384   0.0000       1.765276        48.0356 
 385   0.0000       1.765619        48.0449 
 386   0.0000       1.767961        48.1087 
 387   0.0000       1.768342        48.1190 
 388   0.0000       1.768880        48.1337 
 389   0.0000       1.772734        48.2385 
 390   0.0000       1.778523        48.3961 
 391   0.0000       1.780497        48.4498 
 392   0.0000       1.784534        48.5596 
 393   0.0000       1.785180        48.5772 
 394   0.0000       1.788096        48.6566 
 395   0.0000       1.789485        48.6944 
 396   0.0000       1.792118        48.7660 
 397   0.0000       1.793309        48.7984 
 398   0.0000       1.798401        48.9370 
 399   0.0000       1.801317        49.0163 
 400   0.0000       1.804650        49.1070 
 401   0.0000       1.807474        49.1839 
 402   0.0000       1.809619        49.2422 
 403   0.0000       1.813573        49.3498 
 404   0.0000       1.816280        49.4235 
 405   0.0000       1.820433        49.5365 
 406   0.0000       1.826227        49.6942 
 407   0.0000       1.827400        49.7261 
 408   0.0000       1.832737        49.8713 
 409   0.0000       1.834401        49.9166 
 410   0.0000       1.841381        50.1065 
 411   0.0000       1.845193        50.2103 
 412   0.0000       1.855204        50.4827 
 413   0.0000       1.858163        50.5632 
 414   0.0000       1.860300        50.6213 
 415   0.0000       1.867553        50.8187 
 416   0.0000       1.877136        51.0795 
 417   0.0000       1.882377        51.2221 
 418   0.0000       1.920385        52.2563 
 419   0.0000       1.939115        52.7660 
 420   0.0000       1.944633        52.9162 
 421   0.0000       1.945275        52.9336 
 422   0.0000       1.970754        53.6269 
 423   0.0000       1.985126        54.0180 
 424   0.0000       1.988723        54.1159 
 425   0.0000       2.005264        54.5660 
 426   0.0000       2.008289        54.6483 
 427   0.0000       2.021120        54.9975 
 428   0.0000       2.032523        55.3078 
 429   0.0000       2.036033        55.4033 
 430   0.0000       2.048410        55.7401 
 431   0.0000       2.072304        56.3903 
 432   0.0000       2.096231        57.0414 
 433   0.0000       2.101344        57.1805 
 434   0.0000       2.105646        57.2975 
 435   0.0000       2.127722        57.8983 
 436   0.0000       2.171666        59.0940 
 437   0.0000       2.192394        59.6581 
 438   0.0000       2.234649        60.8079 
 439   0.0000       2.376748        64.6746 
 440   0.0000       2.379408        64.7470 
 441   0.0000       2.442180        66.4551 
 442   0.0000       2.497504        67.9605 
 443   0.0000       2.554013        69.4982 
 444   0.0000       2.562373        69.7257 
 445   0.0000       2.579637        70.1955 
 446   0.0000       2.636210        71.7349 
 447   0.0000       2.646549        72.0162 
 448   0.0000       2.657245        72.3073 
 449   0.0000       2.707756        73.6818 
 450   0.0000       2.711105        73.7729 
 451   0.0000       2.719664        74.0058 
 452   0.0000       2.741230        74.5927 
 453   0.0000       2.762374        75.1680 
 454   0.0000       2.769628        75.3654 
 455   0.0000       2.837513        77.2127 
 456   0.0000       2.870217        78.1026 
 457   0.0000       2.956094        80.4394 
 458   0.0000       3.043301        82.8124 
 459   0.0000       3.050423        83.0062 
 460   0.0000       3.052739        83.0692 
 461   0.0000       3.089399        84.0668 
 462   0.0000       3.092133        84.1412 
 463   0.0000       3.113486        84.7223 
 464   0.0000       3.118053        84.8465 
 465   0.0000      23.668234       644.0454 
 466   0.0000      23.868356       649.4910 
 467   0.0000      24.053873       654.5392 
 468   0.0000      24.068899       654.9480 
 469   0.0000      24.419860       664.4982 
 470   0.0000      24.658678       670.9967 
 471   0.0000      24.908229       677.7874 
 472   0.0000      25.072407       682.2549 
 473   0.0000      25.095759       682.8903 
 474   0.0000      25.222618       686.3423 
 475   0.0000      25.329180       689.2420 
 476   0.0000      25.471071       693.1031 
 477   0.0000      25.507337       694.0899 
 478   0.0000      25.694239       699.1758 
 479   0.0000      25.911217       705.0800 
 480   0.0000      25.968513       706.6392 
 481   0.0000      26.055859       709.0160 
 482   0.0000      26.268441       714.8006 
 483   0.0000      26.276158       715.0106 
 484   0.0000      26.535694       722.0729 
 485   0.0000      26.622575       724.4371 
 486   0.0000      26.760405       728.1876 
 487   0.0000      26.794879       729.1257 
 488   0.0000      26.877694       731.3792 
 489   0.0000      26.943764       733.1771 
 490   0.0000      27.049124       736.0441 
 491   0.0000      27.167844       739.2746 
 492   0.0000      27.410579       745.8798 
 493   0.0000      27.625446       751.7266 
 494   0.0000      27.632747       751.9253 
 495   0.0000      27.747919       755.0593 
 496   0.0000      27.914597       759.5948 
 497   0.0000      27.939401       760.2697 
 498   0.0000      27.991502       761.6875 
 499   0.0000      28.397643       772.7392 
 500   0.0000      28.435127       773.7591 
 501   0.0000      44.118471      1200.5246 
 502   0.0000      44.197724      1202.6812 
 503   0.0000      44.245900      1203.9921 
 504   0.0000      44.261666      1204.4212 
 505   0.0000      44.282853      1204.9977 
 506   0.0000      44.326857      1206.1951 
 507   0.0000      44.353597      1206.9227 
 508   0.0000      44.364283      1207.2135 
 509   0.0000      44.374147      1207.4819 
 510   0.0000      44.378593      1207.6029 
 511   0.0000      44.432008      1209.0564 
 512   0.0000      44.449272      1209.5262 
 513   0.0000     202.679649      5515.1936 
 514   0.0000     202.712358      5516.0837 
 515   0.0000     202.727834      5516.5048 
 516   0.0000     202.737924      5516.7794 
 517   0.0000     202.743195      5516.9228 
 518   0.0000     202.766422      5517.5549 
 519   0.0000     202.775400      5517.7991 
 520   0.0000     202.777752      5517.8632 
 521   0.0000     202.785398      5518.0712 
 522   0.0000     202.785865      5518.0839 
 523   0.0000     202.804545      5518.5922 
 524   0.0000     202.816765      5518.9248 

                 SPIN DOWN ORBITALS
  NO   OCC          E(Eh)            E(eV) 
   0   1.0000    -217.752422     -5925.3446 
   1   1.0000     -25.366622      -690.2609 
   2   1.0000     -21.517138      -585.5111 
   3   1.0000     -21.516178      -585.4850 
   4   1.0000     -21.495255      -584.9156 
   5   1.0000      -4.403822      -119.8341 
   6   1.0000      -4.403745      -119.8320 
   7   1.0000      -4.403239      -119.8182 
   8   1.0000      -4.396337      -119.6304 
   9   1.0000      -4.395871      -119.6177 
  10   1.0000      -4.391591      -119.5013 
  11   1.0000      -4.390693      -119.4768 
  12   1.0000      -4.390663      -119.4760 
  13   1.0000      -4.390330      -119.4670 
  14   1.0000      -4.390238      -119.4645 
  15   1.0000      -4.380245      -119.1925 
  16   1.0000      -4.379977      -119.1852 
  17   1.0000      -3.011277       -81.9410 
  18   1.0000      -2.525331       -68.7177 
  19   1.0000      -2.524962       -68.7077 
  20   1.0000      -2.522186       -68.6322 
  21   1.0000      -2.521932       -68.6252 
  22   1.0000      -2.521372       -68.6100 
  23   1.0000      -2.520436       -68.5846 
  24   1.0000      -2.520116       -68.5759 
  25   1.0000      -2.517550       -68.5060 
  26   1.0000      -2.517332       -68.5001 
  27   1.0000      -2.515269       -68.4439 
  28   1.0000      -2.514850       -68.4325 
  29   1.0000      -2.513484       -68.3954 
  30   1.0000      -2.513250       -68.3890 
  31   1.0000      -2.513025       -68.3829 
  32   1.0000      -2.512877       -68.3789 
  33   1.0000      -2.511886       -68.3519 
  34   1.0000      -2.510942       -68.3262 
  35   1.0000      -2.509826       -68.2958 
  36   1.0000      -2.509494       -68.2868 
  37   1.0000      -2.508983       -68.2729 
  38   1.0000      -2.507673       -68.2373 
  39   1.0000      -2.507487       -68.2322 
  40   1.0000      -2.506897       -68.2161 
  41   1.0000      -2.506572       -68.2073 
  42   1.0000      -2.505271       -68.1719 
  43   1.0000      -2.505048       -68.1658 
  44   1.0000      -2.504880       -68.1613 
  45   1.0000      -2.503808       -68.1321 
  46   1.0000      -2.503215       -68.1159 
  47   1.0000      -2.503070       -68.1120 
  48   1.0000      -2.499963       -68.0274 
  49   1.0000      -2.498211       -67.9798 
  50   1.0000      -2.497385       -67.9573 
  51   1.0000      -2.495078       -67.8945 
  52   1.0000      -2.494696       -67.8841 
  53   1.0000      -2.493509       -67.8518 
  54   1.0000      -1.880718       -51.1769 
  55   1.0000      -1.879974       -51.1567 
  56   1.0000      -1.831394       -49.8348 
  57   1.0000      -0.481980       -13.1154 
  58   1.0000      -0.470201       -12.7948 
  59   1.0000      -0.465533       -12.6678 
  60   1.0000      -0.464420       -12.6375 
  61   1.0000      -0.457558       -12.4508 
  62   1.0000      -0.456383       -12.4188 
  63   1.0000      -0.448835       -12.2134 
  64   1.0000      -0.448496       -12.2042 
  65   1.0000      -0.447958       -12.1895 
  66   1.0000      -0.446037       -12.1373 
  67   1.0000      -0.445707       -12.1283 
  68   1.0000      -0.441706       -12.0194 
  69   1.0000      -0.440907       -11.9977 
  70   1.0000      -0.437448       -11.9036 
  71   1.0000      -0.434373       -11.8199 
  72   1.0000      -0.434122       -11.8131 
  73   1.0000      -0.429050       -11.6750 
  74   1.0000      -0.425737       -11.5849 
  75   1.0000      -0.423021       -11.5110 
  76   1.0000      -0.420814       -11.4509 
  77   1.0000      -0.418018       -11.3748 
  78   1.0000      -0.416872       -11.3437 
  79   1.0000      -0.416148       -11.3240 
  80   1.0000      -0.410113       -11.1597 
  81   1.0000      -0.407786       -11.0964 
  82   1.0000      -0.407129       -11.0785 
  83   1.0000      -0.402086       -10.9413 
  84   1.0000      -0.400137       -10.8883 
  85   1.0000      -0.398358       -10.8399 
  86   1.0000      -0.395379       -10.7588 
  87   1.0000      -0.391817       -10.6619 
  88   1.0000      -0.390597       -10.6287 
  89   1.0000      -0.389765       -10.6060 
  90   1.0000      -0.387038       -10.5318 
  91   1.0000      -0.379036       -10.3141 
  92   1.0000      -0.375557       -10.2194 
  93   1.0000      -0.372918       -10.1476 
  94   1.0000      -0.371056       -10.0969 
  95   1.0000      -0.368435       -10.0256 
  96   1.0000      -0.368196       -10.0191 
  97   1.0000      -0.367536       -10.0012 
  98   1.0000      -0.366965        -9.9856 
  99   1.0000      -0.363798        -9.8994 
 100   1.0000      -0.361475        -9.8362 
 101   1.0000      -0.361324        -9.8321 
 102   1.0000      -0.356797        -9.7089 
 103   1.0000      -0.354875        -9.6566 
 104   1.0000      -0.352924        -9.6035 
 105   1.0000      -0.350824        -9.5464 
 106   1.0000      -0.349334        -9.5059 
 107   1.0000      -0.348299        -9.4777 
 108   1.0000      -0.346070        -9.4170 
 109   1.0000      -0.345910        -9.4127 
 110   1.0000      -0.343115        -9.3366 
 111   1.0000      -0.340517        -9.2659 
 112   1.0000      -0.339694        -9.2435 
 113   1.0000      -0.337355        -9.1799 
 114   1.0000      -0.332803        -9.0560 
 115   1.0000      -0.328288        -8.9332 
 116   1.0000      -0.321893        -8.7592 
 117   1.0000      -0.313307        -8.5255 
 118   1.0000      -0.309738        -8.4284 
 119   1.0000      -0.306771        -8.3477 
 120   1.0000      -0.289658        -7.8820 
 121   1.0000      -0.231762        -6.3066 
 122   1.0000      -0.225614        -6.1393 
 123   1.0000      -0.222906        -6.0656 
 124   0.0000      -0.105181        -2.8621 
 125   0.0000      -0.093837        -2.5534 
 126   0.0000      -0.068086        -1.8527 
 127   0.0000      -0.061559        -1.6751 
 128   0.0000      -0.049828        -1.3559 
 129   0.0000      -0.029884        -0.8132 
 130   0.0000      -0.005954        -0.1620 
 131   0.0000      -0.004730        -0.1287 
 132   0.0000      -0.003466        -0.0943 
 133   0.0000       0.003201         0.0871 
 134   0.0000       0.012192         0.3317 
 135   0.0000       0.015679         0.4266 
 136   0.0000       0.019375         0.5272 
 137   0.0000       0.020892         0.5685 
 138   0.0000       0.027237         0.7412 
 139   0.0000       0.027516         0.7487 
 140   0.0000       0.055413         1.5079 
 141   0.0000       0.061686         1.6786 
 142   0.0000       0.063477         1.7273 
 143   0.0000       0.076011         2.0684 
 144   0.0000       0.077649         2.1129 
 145   0.0000       0.080556         2.1921 
 146   0.0000       0.083255         2.2655 
 147   0.0000       0.096374         2.6225 
 148   0.0000       0.097343         2.6488 
 149   0.0000       0.101685         2.7670 
 150   0.0000       0.103004         2.8029 
 151   0.0000       0.105196         2.8625 
 152   0.0000       0.106738         2.9045 
 153   0.0000       0.109363         2.9759 
 154   0.0000       0.109485         2.9792 
 155   0.0000       0.112740         3.0678 
 156   0.0000       0.113057         3.0764 
 157   0.0000       0.117222         3.1898 
 158   0.0000       0.117940         3.2093 
 159   0.0000       0.131009         3.5649 
 160   0.0000       0.141360         3.8466 
 161   0.0000       0.149520         4.0687 
 162   0.0000       0.151724         4.1286 
 163   0.0000       0.152539         4.1508 
 164   0.0000       0.155610         4.2344 
 165   0.0000       0.173177         4.7124 
 166   0.0000       0.173512         4.7215 
 167   0.0000       0.173566         4.7230 
 168   0.0000       0.188603         5.1321 
 169   0.0000       0.191415         5.2087 
 170   0.0000       0.194088         5.2814 
 171   0.0000       0.199573         5.4307 
 172   0.0000       0.200911         5.4671 
 173   0.0000       0.210405         5.7254 
 174   0.0000       0.210632         5.7316 
 175   0.0000       0.216372         5.8878 
 176   0.0000       0.227206         6.1826 
 177   0.0000       0.230822         6.2810 
 178   0.0000       0.234169         6.3721 
 179   0.0000       0.276202         7.5158 
 180   0.0000       0.292098         7.9484 
 181   0.0000       0.296331         8.0636 
 182   0.0000       0.296929         8.0799 
 183   0.0000       0.301235         8.1970 
 184   0.0000       0.313108         8.5201 
 185   0.0000       0.313243         8.5238 
 186   0.0000       0.316734         8.6188 
 187   0.0000       0.332043         9.0353 
 188   0.0000       0.337105         9.1731 
 189   0.0000       0.338258         9.2045 
 190   0.0000       0.346237         9.4216 
 191   0.0000       0.347502         9.4560 
 192   0.0000       0.351368         9.5612 
 193   0.0000       0.357592         9.7306 
 194   0.0000       0.366925         9.9845 
 195   0.0000       0.368058        10.0154 
 196   0.0000       0.373441        10.1618 
 197   0.0000       0.375490        10.2176 
 198   0.0000       0.375638        10.2216 
 199   0.0000       0.378025        10.2866 
 200   0.0000       0.385442        10.4884 
 201   0.0000       0.396191        10.7809 
 202   0.0000       0.401987        10.9386 
 203   0.0000       0.404469        11.0062 
 204   0.0000       0.405766        11.0415 
 205   0.0000       0.417734        11.3671 
 206   0.0000       0.419901        11.4261 
 207   0.0000       0.427920        11.6443 
 208   0.0000       0.430206        11.7065 
 209   0.0000       0.433719        11.8021 
 210   0.0000       0.442293        12.0354 
 211   0.0000       0.444047        12.0831 
 212   0.0000       0.453795        12.3484 
 213   0.0000       0.455630        12.3983 
 214   0.0000       0.458094        12.4654 
 215   0.0000       0.461332        12.5535 
 216   0.0000       0.466646        12.6981 
 217   0.0000       0.467812        12.7298 
 218   0.0000       0.471834        12.8393 
 219   0.0000       0.481363        13.0985 
 220   0.0000       0.484598        13.1866 
 221   0.0000       0.485109        13.2005 
 222   0.0000       0.494420        13.4538 
 223   0.0000       0.507598        13.8124 
 224   0.0000       0.509041        13.8517 
 225   0.0000       0.512139        13.9360 
 226   0.0000       0.517053        14.0697 
 227   0.0000       0.517732        14.0882 
 228   0.0000       0.542269        14.7559 
 229   0.0000       0.545154        14.8344 
 230   0.0000       0.549256        14.9460 
 231   0.0000       0.549594        14.9552 
 232   0.0000       0.558816        15.2061 
 233   0.0000       0.571149        15.5418 
 234   0.0000       0.573062        15.5938 
 235   0.0000       0.579850        15.7785 
 236   0.0000       0.584038        15.8925 
 237   0.0000       0.584973        15.9179 
 238   0.0000       0.591449        16.0941 
 239   0.0000       0.596607        16.2345 
[...]
      dx2y2   :    -0.001795
      dxy     :     0.001646
      f0      :     0.000002  f :     0.000181
      f+1     :     0.000025
      f-1     :     0.000008
      f+2     :     0.000013
      f-2     :     0.000010
      f+3     :     0.000044
      f-3     :     0.000077
  1 Aus       :    -0.140473  s :    -0.140473
      pz      :    -0.019166  p :    -0.074293
      px      :    -0.046119
      py      :    -0.009007
      dz2     :     0.002622  d :    -0.005143
      dxz     :    -0.004318
      dyz     :     0.003410
      dx2y2   :    -0.007486
      dxy     :     0.000628
      f0      :     0.000040  f :     0.000191
      f+1     :     0.000023
      f-1     :     0.000107
      f+2     :     0.000033
      f-2     :     0.000004
      f+3     :    -0.000001
      f-3     :    -0.000016
  2 Aus       :    -0.079850  s :    -0.079850
      pz      :    -0.013453  p :    -0.050629
      px      :    -0.011224
      py      :    -0.025952
      dz2     :    -0.001322  d :     0.000984
      dxz     :     0.003100
      dyz     :    -0.004271
      dx2y2   :    -0.003947
      dxy     :     0.007424
      f0      :     0.000022  f :     0.000333
      f+1     :     0.000075
      f-1     :    -0.000005
      f+2     :     0.000054
      f-2     :     0.000019
      f+3     :     0.000057
      f-3     :     0.000111
  3 Aus       :    -0.070409  s :    -0.070409
      pz      :    -0.016005  p :    -0.029707
      px      :    -0.005635
      py      :    -0.008067
      dz2     :    -0.000069  d :    -0.020325
      dxz     :    -0.012021
      dyz     :    -0.001167
      dx2y2   :    -0.005460
      dxy     :    -0.001608
      f0      :    -0.000038  f :    -0.000004
      f+1     :    -0.000048
      f-1     :     0.000042
      f+2     :     0.000022
      f-2     :     0.000008
      f+3     :     0.000002
      f-3     :     0.000008
  4 Aus       :     0.040481  s :     0.040481
      pz      :    -0.055537  p :    -0.107130
      px      :    -0.049235
      py      :    -0.002358
      dz2     :     0.000908  d :    -0.022084
      dxz     :     0.000945
      dyz     :    -0.011590
      dx2y2   :     0.000192
      dxy     :    -0.012539
      f0      :    -0.000002  f :    -0.000107
      f+1     :    -0.000078
      f-1     :     0.000008
      f+2     :    -0.000040
      f-2     :     0.000001
      f+3     :     0.000001
      f-3     :     0.000001
  5 Aus       :    -0.073013  s :    -0.073013
      pz      :    -0.011251  p :    -0.059795
      px      :    -0.031077
      py      :    -0.017467
      dz2     :     0.006744  d :     0.009772
      dxz     :     0.003664
      dyz     :     0.003981
      dx2y2   :    -0.004419
      dxy     :    -0.000198
      f0      :     0.000226  f :     0.000331
      f+1     :     0.000137
      f-1     :     0.000042
      f+2     :    -0.000008
      f-2     :    -0.000002
      f+3     :    -0.000034
      f-3     :    -0.000031
  6 Aus       :    -0.021189  s :    -0.021189
      pz      :    -0.026859  p :    -0.036575
      px      :    -0.014008
      py      :     0.004292
      dz2     :    -0.000691  d :    -0.004073
      dxz     :    -0.000965
      dyz     :    -0.003072
      dx2y2   :     0.002915
      dxy     :    -0.002261
      f0      :     0.000001  f :    -0.000004
      f+1     :    -0.000002
      f-1     :    -0.000022
      f+2     :    -0.000013
      f-2     :     0.000003
      f+3     :     0.000032
      f-3     :    -0.000002
  7 Aus       :    -0.073274  s :    -0.073274
      pz      :    -0.037838  p :    -0.059657
      px      :    -0.006516
      py      :    -0.015303
      dz2     :    -0.001264  d :     0.009721
      dxz     :     0.002308
      dyz     :     0.001501
      dx2y2   :     0.003632
      dxy     :     0.003544
      f0      :     0.000026  f :     0.000334
      f+1     :     0.000093
      f-1     :    -0.000038
      f+2     :     0.000051
      f-2     :     0.000001
      f+3     :     0.000155
      f-3     :     0.000045
  8 Aus       :    -0.034389  s :    -0.034389
      pz      :    -0.033391  p :    -0.115047
      px      :    -0.035522
      py      :    -0.046134
      dz2     :     0.001073  d :     0.003604
      dxz     :     0.006035
      dyz     :    -0.002787
      dx2y2   :     0.000850
      dxy     :    -0.001568
      f0      :     0.000009  f :     0.000082
      f+1     :     0.000058
      f-1     :    -0.000013
      f+2     :     0.000034
      f-2     :     0.000042
      f+3     :    -0.000008
      f-3     :    -0.000039
  9 Aus       :    -0.079128  s :    -0.079128
      pz      :    -0.018040  p :    -0.049401
      px      :    -0.005324
      py      :    -0.026037
      dz2     :    -0.000798  d :     0.000526
      dxz     :     0.000486
      dyz     :     0.005550
      dx2y2   :    -0.002692
      dxy     :    -0.002020
      f0      :     0.000058  f :     0.000332
      f+1     :     0.000069
      f-1     :     0.000119
      f+2     :     0.000048
      f-2     :     0.000073
      f+3     :    -0.000020
      f-3     :    -0.000016
 10 Aus       :    -0.070236  s :    -0.070236
      pz      :    -0.007702  p :    -0.030508
      px      :    -0.014079
      py      :    -0.008728
      dz2     :    -0.004384  d :    -0.020016
      dxz     :    -0.009203
      dyz     :    -0.006214
      dx2y2   :     0.000251
      dxy     :    -0.000466
      f0      :     0.000001  f :    -0.000011
      f+1     :    -0.000023
      f-1     :     0.000015
      f+2     :    -0.000053
      f-2     :     0.000007
      f+3     :     0.000004
      f-3     :     0.000037
 11 Aus       :    -0.022426  s :    -0.022426
      pz      :    -0.015633  p :    -0.035974
      px      :    -0.024706
      py      :     0.004365
      dz2     :     0.001760  d :    -0.003638
      dxz     :    -0.000409
      dyz     :    -0.002958
      dx2y2   :     0.000841
      dxy     :    -0.002873
      f0      :    -0.000003  f :     0.000000
      f+1     :    -0.000009
      f-1     :    -0.000005
      f+2     :     0.000023
      f-2     :     0.000022
      f+3     :    -0.000002
      f-3     :    -0.000025
 12 Crs       :     0.024864  s :     0.024864
      pz      :     0.019347  p :     0.052340
      px      :     0.019228
      py      :     0.013765
      dz2     :     0.674395  d :     3.466904
      dxz     :     0.859679
      dyz     :     0.586382
      dx2y2   :     0.798422
      dxy     :     0.548026
      f0      :    -0.000000  f :     0.000082
      f+1     :     0.000004
      f-1     :     0.000008
      f+2     :     0.000019
      f-2     :     0.000010
      f+3     :     0.000022
      f-3     :     0.000020


                      *****************************
                      * MAYER POPULATION ANALYSIS *
                      *****************************

  NA   - Mulliken gross atomic population
  ZA   - Total nuclear charge
  QA   - Mulliken gross atomic charge
  VA   - Mayer's total valence
  BVA  - Mayer's bonded valence
  FA   - Mayer's free valence

  ATOM       NA         ZA         QA         VA         BVA        FA
  0 Au    18.7763    19.0000     0.2237     1.5186     1.4160     0.1026
  1 Au    18.7788    19.0000     0.2212     1.5248     1.4240     0.1008
  2 Au    18.7595    19.0000     0.2405     1.5621     1.5426     0.0194
  3 Au    18.8764    19.0000     0.1236     1.6589     1.6234     0.0354
  4 Au    18.6783    19.0000     0.3217     1.2983     1.2885     0.0098
  5 Au    18.5664    19.0000     0.4336     1.4740     1.4460     0.0280
  6 Au    18.6774    19.0000     0.3226     1.3288     1.3250     0.0038
  7 Au    18.5711    19.0000     0.4289     1.4799     1.4518     0.0282
  8 Au    18.7034    19.0000     0.2966     1.4330     1.4167     0.0163
  9 Au    18.7600    19.0000     0.2400     1.5638     1.5446     0.0192
 10 Au    18.8693    19.0000     0.1307     1.6464     1.6113     0.0352
 11 Au    18.6801    19.0000     0.3199     1.3336     1.3296     0.0039
 12 Cr    27.3029    24.0000    -3.3029     9.5461     5.7760     3.7701

  Mayer bond orders larger than 0.100000
B(  0-Au,  1-Au) :   0.2309 B(  0-Au,  2-Au) :   0.2559 B(  0-Au,  3-Au) :   0.1012 
B(  0-Au,  4-Au) :   0.1843 B(  0-Au, 12-Cr) :   0.4429 B(  1-Au,  4-Au) :   0.1847 
B(  1-Au,  9-Au) :   0.2572 B(  1-Au, 12-Cr) :   0.4473 B(  2-Au, 11-Au) :   0.2797 
B(  2-Au, 12-Cr) :   0.6519 B(  3-Au,  4-Au) :   0.2619 B(  3-Au,  5-Au) :   0.1865 
B(  3-Au,  8-Au) :   0.1843 B(  3-Au, 10-Au) :   0.1671 B(  3-Au, 12-Cr) :   0.5644 
B(  4-Au, 10-Au) :   0.2597 B(  4-Au, 12-Cr) :   0.3196 B(  5-Au,  8-Au) :   0.2548 
B(  5-Au, 11-Au) :   0.2431 B(  5-Au, 12-Cr) :   0.4856 B(  6-Au,  7-Au) :   0.2448 
B(  6-Au,  9-Au) :   0.2776 B(  6-Au, 11-Au) :   0.2190 B(  6-Au, 12-Cr) :   0.3788 
B(  7-Au,  8-Au) :   0.2571 B(  7-Au, 10-Au) :   0.1874 B(  7-Au, 12-Cr) :   0.4846 
B(  8-Au, 10-Au) :   0.1834 B(  8-Au, 12-Cr) :   0.4054 B(  9-Au, 12-Cr) :   0.6548 
B( 10-Au, 12-Cr) :   0.5603 B( 11-Au, 12-Cr) :   0.3804 

-------
TIMINGS
-------

Total SCF time: 0 days 2 hours 14 min 44 sec 

Total time                  ....    8084.136 sec
Sum of individual times     ....    7912.196 sec  ( 97.9%)

Fock matrix formation       ....    5787.423 sec  ( 71.6%)
  Split-RI-J                ....     688.781 sec  ( 11.9% of F)
  Chain of spheres X        ....    4033.489 sec  ( 69.7% of F)
  XC integration            ....     636.377 sec  ( 11.0% of F)
    Basis function eval.    ....      77.593 sec  ( 12.2% of XC)
    Density eval.           ....     235.563 sec  ( 37.0% of XC)
    XC-Functional eval.     ....      11.635 sec  (  1.8% of XC)
    XC-Potential eval.      ....     182.617 sec  ( 28.7% of XC)
Diagonalization             ....     660.424 sec  (  8.2%)
Density matrix formation    ....     100.307 sec  (  1.2%)
Population analysis         ....       3.438 sec  (  0.0%)
Initial guess               ....       0.449 sec  (  0.0%)
Orbital Transformation      ....     430.455 sec  (  5.3%)
Orbital Orthonormalization  ....       0.296 sec  (  0.0%)
DIIS solution               ....     915.738 sec  ( 11.3%)
Grid generation             ....      10.853 sec  (  0.1%)

Maximum memory used throughout the entire SCF-calculation: 127.8 MB


           ************************************************************
           *        Program running with 6 parallel MPI-processes     *
           *              working on a common directory               *
           ************************************************************

------------------------------------------------------------------------------
                                ORCA  MP2 
------------------------------------------------------------------------------

Freezing NCore=10 chemical core electrons

   <<< Use J-auxbasis for calculation of Separable RI-J derivative contributions (Dim=1157) >>> 


-------------
RI-MP2 ENERGY
-------------
Dimension of the basis                    ...  525
Memory devoted to MP2                     ...  256 MB   
Data format for buffers                   ... DOUBLE
Compression type for matrix containers    ... UNCOMPRESSED
Overall scaling of the MP2 energy         ...   2.700e-01
Calculating two index integrals           ... done (    0.095 sec)
Cholesky decomposition of V**-1           ... done (   22.630 sec)

-----------------
RI-TRANSFORMATION (AUX index driven)
-----------------

Dimension of the orbital-basis         ... 525
Dimension of the aux-basis             ... 1994
Transformation of internal/external MOs...    5- 126 to  127- 524
Number Format for Storage              ... Double (8 Byte)
Integral mode                          ... Direct

First Phase: integral generation and transformation of MO indices
  Aux angular momentum 0               ... done (    0.272 sec)
  Aux angular momentum 1               ... done (    0.641 sec)
  Aux angular momentum 2               ... done (    0.909 sec)
  Aux angular momentum 3               ... done (    0.869 sec)
  Aux angular momentum 4               ... done (    0.731 sec)
  Aux angular momentum 5               ... done (    0.779 sec)
Closing buffer VIA ( 0.72 GB; CompressionRatio= 1.00)
  Phase 1 completed in     4.912 sec
Second Phase: sorting and transformation of aux index

IA-Transformation
Memory available                       ... 176 MB 
Max. # MO pairs treated in a batch     ... 21    
# of internal orbitals                 ... 122
# batches for internal orbitals        ... 1
Closing buffer IAV ( 0.72 GB; CompressionRatio= 1.00)
(ia|v) transformation done in     3.796 sec

  Phase 2 completed in     4.045 sec
RI-Integral transformation completed in     9.079 sec

-----------------
RI-TRANSFORMATION (AUX index driven)
-----------------

Dimension of the orbital-basis         ... 525
Dimension of the aux-basis             ... 1994
Transformation of internal/external MOs...    5- 124 to  125- 524
Number Format for Storage              ... Double (8 Byte)
Integral mode                          ... Direct

First Phase: integral generation and transformation of MO indices
  Aux angular momentum 0               ... done (    0.273 sec)
  Aux angular momentum 1               ... done (    0.669 sec)
  Aux angular momentum 2               ... done (    0.879 sec)
  Aux angular momentum 3               ... done (    1.003 sec)
  Aux angular momentum 4               ... done (    0.903 sec)
  Aux angular momentum 5               ... done (    0.651 sec)
Closing buffer VIA ( 0.71 GB; CompressionRatio= 1.00)
  Phase 1 completed in     5.128 sec
Second Phase: sorting and transformation of aux index

IA-Transformation
Memory available                       ... 176 MB 
Max. # MO pairs treated in a batch     ... 20    
# of internal orbitals                 ... 120
# batches for internal orbitals        ... 1
Closing buffer IAV ( 0.71 GB; CompressionRatio= 1.00)
(ia|v) transformation done in     3.612 sec

  Phase 2 completed in     3.905 sec
RI-Integral transformation completed in     9.109 sec
Opening buffers                              ... done

Starting loop over batches of integrals:

Operator 0  - window                       ... (  5-126)x(127-524)
Operator 0  - Memory available             ...   256 MB
Operator 0  - Memory needed per MO         ...   6.1 MB
Operator 0  - Number of orbitals per batch ... 21
Operator 0  - Number of batches            ... 1

OPERATOR  0   PASS   0:  MOs     5 ...   25 +   26 ...   46 +   47 ...   67 +   68 ...   88
                            +   89 ...  109 +  110 ...  126
  Reading integrals       ... ok
  Internal MO   7
  Internal MO  10
  Internal MO  13
  Internal MO  16
  Internal MO  19
  Internal MO  22
  Internal MO  25

Operator 1  - window                       ... (  5-124)x(125-524)
Operator 1  - Memory available             ...   256 MB
Operator 1  - Memory needed per MO         ...   6.1 MB
Operator 1  - Number of orbitals per batch ... 20
Operator 1  - Number of batches            ... 1

OPERATOR  1   PASS   0:  MOs     5 ...   24 +   25 ...   44 +   45 ...   64 +   65 ...   84
                            +   85 ...  104 +  105 ...  124
  Reading integrals       ... ok
  Internal MO   7
  Internal MO  10
  Internal MO  13
  Internal MO  16
  Internal MO  19
  Internal MO  22
Time spent in pair loops =   253.103 sec
Deleting buffer (Ka|jb)[aa] ...done
Deleting buffer (Ka|jb)[ba] ...done
Deleting buffer (Ka|jb)[ab] ...done
Deleting buffer (Ka|jb)[bb] ...done

Correlation energy components}
 E2 and T2 for alpha/alpha pairs :     -0.365863276 Eh      0.000000000
 E2 and T2 for beta/beta   pairs :     -0.354156120 Eh      0.000000000
 E2 and T2 for alpha/beta  pairs :     -1.220738985 Eh      0.000000000


-----------------------------------------------
 RI-MP2 CORRELATION ENERGY:     -1.940758381 Eh
-----------------------------------------------


-------
TIMINGS
-------

Total time                :  362.063 sec
Integral trafo            :   18.212 sec (  5.0%)
I/O of integrals          :    0.208 sec (  0.1%)
K(i,j) Operators          :  170.695 sec ( 47.1%)
T(i,j) pair energies      :    4.174 sec (  1.2%)
V-calculation             :    0.095 sec (  0.0%)
V**(-1/2)                 :   22.630 sec (  6.3%)
Gamma(ia|P)               :    0.000 sec (  0.0%)
Gamma-Trafo               :    0.000 sec (  0.0%)
D(virtual)                :    0.000 sec (  0.0%)
D(internal)               :    0.000 sec (  0.0%)
W(virtual)                :    0.000 sec (  0.0%)
W(internal)               :    0.000 sec (  0.0%)
L(virtual)                :    0.000 sec (  0.0%)
L(internal)               :    0.000 sec (  0.0%)
G(D)                      :    0.000 sec (  0.0%)
G(Z)                      :    0.000 sec (  0.0%)
Z-Vector Solution         :    0.000 sec (  0.0%)
3-Index Derivative        :    0.000 sec (  0.0%)
2-Index Derivative        :    0.000 sec (  0.0%)
Separable Gradient (RIJ)  :    0.000 sec (  0.0%)
Separable Gradient (COSX) :    0.000 sec (  0.0%)


---------------------------------------
MP2 TOTAL ENERGY:    -2671.285493499 Eh
---------------------------------------

Maximum memory used throughout the entire MP2-calculation: 257.7 MB

-------------------------   --------------------
FINAL SINGLE POINT ENERGY     -2671.285493498802
-------------------------   --------------------


                            ***************************************
                            *     ORCA property calculations      *
                            ***************************************


  WARNING: The energy has been calculated at the MP2 level but the densities
           used in the property calculations are still SCF densities
           MP2 response densities have not been calculated 
           use %mp2 Density relaxed end
           or  %mp2 Density unrelaxed end

                                    ---------------------
                                    Active property flags
                                    ---------------------
   (+) Dipole Moment


------------------------------------------------------------------------------
                       ORCA ELECTRIC PROPERTIES CALCULATION
------------------------------------------------------------------------------

Dipole Moment Calculation                       ... on
Quadrupole Moment Calculation                   ... off
Polarizability Calculation                      ... off
GBWName                                         ... b2plyp_job2.gbw
Electron density                                ... b2plyp_job2.scfp
The origin for moment calculation is the CENTER OF MASS  = (14.439930, 15.518838 14.978620)

-------------
DIPOLE MOMENT
-------------
                                X             Y             Z
Electronic contribution:      4.70448      15.29038       3.29826
Nuclear contribution   :     -4.63925     -15.32686      -3.21450
                        -----------------------------------------
Total Dipole Moment    :      0.06523      -0.03648       0.08375
                        -----------------------------------------
Magnitude (a.u.)       :      0.11225
Magnitude (Debye)      :      0.28532



--------------------
Rotational spectrum 
--------------------
 
Rotational constants in cm-1:     0.001526     0.001215     0.001078 
Rotational constants in MHz :    45.734362    36.438065    32.326913 

 Dipole components along the rotational axes: 
x,y,z [a.u.] :    -0.059384     0.001198     0.095251 
x,y,z [Debye]:    -0.150943     0.003046     0.242109 

 

Timings for individual modules:

Sum of individual times         ...     8472.677 sec (= 141.211 min)
GTO integral calculation        ...       23.964 sec (=   0.399 min)   0.3 %
SCF iterations                  ...     8085.270 sec (= 134.754 min)  95.4 %
MP2 module                      ...      363.443 sec (=   6.057 min)   4.3 %



                             ****ORCA TERMINATED NORMALLY****
TOTAL RUN TIME: 0 days 2 hours 58 minutes 25 seconds 688 msec
