
                                 *****************
                                 * O   R   C   A *
                                 *****************

                                            #,                                       
                                            ###                                      
                                            ####                                     
                                            #####                                    
                                            ######                                   
                                           ########,                                 
                                     ,,################,,,,,                         
                               ,,#################################,,                 
                          ,,##########################################,,             
                       ,#########################################, ''#####,          
                    ,#############################################,,   '####,        
                  ,##################################################,,,,####,       
                ,###########''''           ''''###############################       
              ,#####''   ,,,,##########,,,,          '''####'''          '####       
            ,##' ,,,,###########################,,,                        '##       
           ' ,,###''''                  '''############,,,                           
         ,,##''                                '''############,,,,        ,,,,,,###''
      ,#''                                            '''#######################'''  
     '                                                          ''''####''''         
             ,#######,   #######,   ,#######,      ##                                
            ,#'     '#,  ##    ##  ,#'     '#,    #''#        ######   ,####,        
            ##       ##  ##   ,#'  ##            #'  '#       #        #'  '#        
            ##       ##  #######   ##           ,######,      #####,   #    #        
            '#,     ,#'  ##    ##  '#,     ,#' ,#      #,         ##   #,  ,#        
             '#######'   ##     ##  '#######'  #'      '#     #####' # '####'        



                  #######################################################
                  #                        -***-                        #
                  #          Department of theory and spectroscopy      #
                  #    Directorship and core code : Frank Neese         #
                  #        Max Planck Institute fuer Kohlenforschung    #
                  #                Kaiser Wilhelm Platz 1               #
                  #                 D-45470 Muelheim/Ruhr               #
                  #                      Germany                        #
                  #                                                     #
                  #                  All rights reserved                #
                  #                        -***-                        #
                  #######################################################


                         Program Version 5.0.3 -  RELEASE  -


 With contributions from (in alphabetic order):
   Daniel Aravena         : Magnetic Suceptibility
   Michael Atanasov       : Ab Initio Ligand Field Theory (pilot matlab implementation)
   Alexander A. Auer      : GIAO ZORA, VPT2 properties, NMR spectrum
   Ute Becker             : Parallelization
   Giovanni Bistoni       : ED, misc. LED, open-shell LED, HFLD
   Martin Brehm           : Molecular dynamics
   Dmytro Bykov           : SCF Hessian
   Vijay G. Chilkuri      : MRCI spin determinant printing, contributions to CSF-ICE
   Dipayan Datta          : RHF DLPNO-CCSD density
   Achintya Kumar Dutta   : EOM-CC, STEOM-CC
   Dmitry Ganyushin       : Spin-Orbit,Spin-Spin,Magnetic field MRCI
   Miquel Garcia          : C-PCM and meta-GGA Hessian, CC/C-PCM, Gaussian charge scheme
   Yang Guo               : DLPNO-NEVPT2, F12-NEVPT2, CIM, IAO-localization
   Andreas Hansen         : Spin unrestricted coupled pair/coupled cluster methods
   Benjamin Helmich-Paris : MC-RPA, TRAH-SCF, COSX integrals
   Lee Huntington         : MR-EOM, pCC
   Robert Izsak           : Overlap fitted RIJCOSX, COSX-SCS-MP3, EOM
   Marcus Kettner         : VPT2
   Christian Kollmar      : KDIIS, OOCD, Brueckner-CCSD(T), CCSD density, CASPT2, CASPT2-K
   Simone Kossmann        : Meta GGA functionals, TD-DFT gradient, OOMP2, MP2 Hessian
   Martin Krupicka        : Initial AUTO-CI
   Lucas Lang             : DCDCAS
   Marvin Lechner         : AUTO-CI (C++ implementation), FIC-MRCC
   Dagmar Lenk            : GEPOL surface, SMD
   Dimitrios Liakos       : Extrapolation schemes; Compound Job, initial MDCI parallelization
   Dimitrios Manganas     : Further ROCIS development; embedding schemes
   Dimitrios Pantazis     : SARC Basis sets
   Anastasios Papadopoulos: AUTO-CI, single reference methods and gradients
   Taras Petrenko         : DFT Hessian,TD-DFT gradient, ASA, ECA, R-Raman, ABS, FL, XAS/XES, NRVS
   Peter Pinski           : DLPNO-MP2, DLPNO-MP2 Gradient
   Christoph Reimann      : Effective Core Potentials
   Marius Retegan         : Local ZFS, SOC
   Christoph Riplinger    : Optimizer, TS searches, QM/MM, DLPNO-CCSD(T), (RO)-DLPNO pert. Triples
   Tobias Risthaus        : Range-separated hybrids, TD-DFT gradient, RPA, STAB
   Michael Roemelt        : Original ROCIS implementation
   Masaaki Saitow         : Open-shell DLPNO-CCSD energy and density
   Barbara Sandhoefer     : DKH picture change effects
   Avijit Sen             : IP-ROCIS
   Kantharuban Sivalingam : CASSCF convergence, NEVPT2, FIC-MRCI
   Bernardo de Souza      : ESD, SOC TD-DFT
   Georgi Stoychev        : AutoAux, RI-MP2 NMR, DLPNO-MP2 response
   Willem Van den Heuvel  : Paramagnetic NMR
   Boris Wezisla          : Elementary symmetry handling
   Frank Wennmohs         : Technical directorship


 We gratefully acknowledge several colleagues who have allowed us to
 interface, adapt or use parts of their codes:
   Stefan Grimme, W. Hujo, H. Kruse, P. Pracht,  : VdW corrections, initial TS optimization,
                  C. Bannwarth, S. Ehlert          DFT functionals, gCP, sTDA/sTD-DF
   Ed Valeev, F. Pavosevic, A. Kumar             : LibInt (2-el integral package), F12 methods
   Garnet Chan, S. Sharma, J. Yang, R. Olivares  : DMRG
   Ulf Ekstrom                                   : XCFun DFT Library
   Mihaly Kallay                                 : mrcc  (arbitrary order and MRCC methods)
   Jiri Pittner, Ondrej Demel                    : Mk-CCSD
   Frank Weinhold                                : gennbo (NPA and NBO analysis)
   Christopher J. Cramer and Donald G. Truhlar   : smd solvation model
   Lars Goerigk                                  : TD-DFT with DH, B97 family of functionals
   V. Asgeirsson, H. Jonsson                     : NEB implementation
   FAccTs GmbH                                   : IRC, NEB, NEB-TS, DLPNO-Multilevel, CI-OPT
                                                   MM, QMMM, 2- and 3-layer-ONIOM, Crystal-QMMM,
                                                   LR-CPCM, SF, NACMEs, symmetry and pop. for TD-DFT,
                                                   nearIR, NL-DFT gradient (VV10), updates on ESD,
                                                   ML-optimized integration grids
   S Lehtola, MJT Oliveira, MAL Marques          : LibXC Library
   Liviu Ungur et al                             : ANISO software


 Your calculation uses the libint2 library for the computation of 2-el integrals
 For citations please refer to: http://libint.valeyev.net

 Your ORCA version has been built with support for libXC version: 5.1.0
 For citations please refer to: https://tddft.org/programs/libxc/

 This ORCA versions uses:
   CBLAS   interface :  Fast vector & matrix operations
   LAPACKE interface :  Fast linear algebra routines
   SCALAPACK package :  Parallel linear algebra routines
   Shared memory     :  Shared parallel matrices
   BLAS/LAPACK       :  OpenBLAS 0.3.15  USE64BITINT DYNAMIC_ARCH NO_AFFINITY Haswell SINGLE_THREADED
        Core in use  :  Haswell
   Copyright (c) 2011-2014, The OpenBLAS Project




***************************************
The coordinates will be read from file: pbe.xyz
***************************************


================================================================================

cite the ECPs for Au [Def2-ECP] as follows:
Ce-Yb(ecp-28): M. Dolg, H. Stoll, H.Preuss, J. Chem. Phys., 1989, 90, 1730-1734.
Y-Cd(ecp-28), Hf-Hg(ecp-46): D. Andrae,U. Haeussermann, M. Dolg, H. Stoll, H. Preuss, Theor. Chim. Acta, 1990, 77, 123-141.
In-Sb(ecp-28), Tl-Bi(ecp-46): B. Metz, H. Stoll, M. Dolg, J. Chem. Phys., 2000, 113, 2563-2569.
Te-Xe(ecp-28), Po-Rn(ecp-46): K. A. Peterson, D. Figgen, E. Goll, H. Stoll, M. Dolg, J. Chem. Phys., 2003, 119, 11113-11123.
Rb(ecp-28), Cs(ecp-46): T. Leininger, A. Nicklass, W. Kuechle, H. Stoll, M. Dolg, A. Bergner, Chem. Phys. Lett., 1996, 255, 274-280.
Sr(ecp-28), Ba(ecp-46): M. Kaupp, P. V. Schleyer, H. Stoll and H. Preuss, J. Chem. Phys., 1991, 94, 1360-1366.
La(ecp-46): M. Dolg, H. Stoll, A. Savin, H. Preuss, Theor. Chim. Acta, 1989, 75, 173-194.
Lu(ecp-28): X. Cao, M. Dolg, J. Chem. Phys., 2001, 115, 7348-7355.

ECP parameters for Au [Def2-ECP] have been obtained from:
TURBOMOLE (7.0.2)

----- Orbital basis set information -----
Your calculation utilizes the basis: def2-TZVP
   F. Weigend and R. Ahlrichs, Phys. Chem. Chem. Phys. 7, 3297 (2005).

----- AuxJ basis set information -----
Your calculation utilizes the auxiliary basis: def2/J
   F. Weigend, Phys. Chem. Chem. Phys. 8, 1057 (2006).

================================================================================
                                        WARNINGS
                       Please study these warnings very carefully!
================================================================================


WARNING: your system is open-shell and RHF/RKS was chosen
  ===> : WILL SWITCH to UHF/UKS


INFO   : the flag for use of the SHARK integral package has been found!



***************************************
The coordinates will be read from file: pbe.xyz
***************************************


================================================================================

cite the ECPs for Au [Def2-ECP] as follows:
Ce-Yb(ecp-28): M. Dolg, H. Stoll, H.Preuss, J. Chem. Phys., 1989, 90, 1730-1734.
Y-Cd(ecp-28), Hf-Hg(ecp-46): D. Andrae,U. Haeussermann, M. Dolg, H. Stoll, H. Preuss, Theor. Chim. Acta, 1990, 77, 123-141.
In-Sb(ecp-28), Tl-Bi(ecp-46): B. Metz, H. Stoll, M. Dolg, J. Chem. Phys., 2000, 113, 2563-2569.
Te-Xe(ecp-28), Po-Rn(ecp-46): K. A. Peterson, D. Figgen, E. Goll, H. Stoll, M. Dolg, J. Chem. Phys., 2003, 119, 11113-11123.
Rb(ecp-28), Cs(ecp-46): T. Leininger, A. Nicklass, W. Kuechle, H. Stoll, M. Dolg, A. Bergner, Chem. Phys. Lett., 1996, 255, 274-280.
Sr(ecp-28), Ba(ecp-46): M. Kaupp, P. V. Schleyer, H. Stoll and H. Preuss, J. Chem. Phys., 1991, 94, 1360-1366.
La(ecp-46): M. Dolg, H. Stoll, A. Savin, H. Preuss, Theor. Chim. Acta, 1989, 75, 173-194.
Lu(ecp-28): X. Cao, M. Dolg, J. Chem. Phys., 2001, 115, 7348-7355.

ECP parameters for Au [Def2-ECP] have been obtained from:
TURBOMOLE (7.0.2)

----- Orbital basis set information -----
Your calculation utilizes the basis: def2-TZVP
   F. Weigend and R. Ahlrichs, Phys. Chem. Chem. Phys. 7, 3297 (2005).

----- AuxJ basis set information -----
Your calculation utilizes the auxiliary basis: def2/J
   F. Weigend, Phys. Chem. Chem. Phys. 8, 1057 (2006).

================================================================================
                                        WARNINGS
                       Please study these warnings very carefully!
================================================================================


INFO   : the flag for use of the SHARK integral package has been found!

================================================================================
                                       INPUT FILE
================================================================================
NAME = pbeSP.inp
|  1> !PBE def2-TZVP VERYSLOWCONV
|  2> 
|  3> %scf
|  4>   AutoTRAHIter 200
|  5>   maxiter 400
|  6> end
|  7> 
|  8> 
|  9> %pal nprocs 6 end 
| 10> 
| 11> *xyzfile 0 5 pbe.xyz
| 12> 
| 13> $new_job
| 14> 
| 15> !PBE def2-TZVP VERYSLOWCONV
| 16> 
| 17> %scf
| 18>   AutoTRAHIter 200
| 19>   maxiter 400
| 20> end
| 21>  
| 22> 
| 23> %pal nprocs 6 end 
| 24> 
| 25> *xyzfile 0 3 pbe.xyz
| 26> 
| 27> 
| 28> 
| 29> 
| 30> 
| 31>                          ****END OF INPUT****
================================================================================


                 $$$$$$$$$$$$$$$$$$$$$$$$$$$$$$$$$$$$$$$$$$$$$$ 
                 $ THERE ARE  2 JOBS TO BE PROCESSED THIS RUN $
                 $$$$$$$$$$$$$$$$$$$$$$$$$$$$$$$$$$$$$$$$$$$$$$ 




                 $$$$$$$$$$$$$$$$  JOB NUMBER  1 $$$$$$$$$$$$$$


                       ****************************
                       * Single Point Calculation *
                       ****************************

---------------------------------
CARTESIAN COORDINATES (ANGSTROEM)
---------------------------------
  Au     9.554058    6.230807    7.267637
  Au     8.294643    9.517793    9.773636
  Au    10.304109    7.576623    9.561552
  Au    10.901022   10.363575    9.252050
  Au     5.802063    8.941441    8.924495
  Au     7.671489    6.759368    9.612670
  Au     7.261274    4.707885    7.659040
  Au     5.075334    6.212630    8.677695
  Au     8.943801   10.513159    7.262578
  Au    10.965911    8.589751    7.020080
  Au     8.809001    8.463027    5.310911
  Au     7.958707    5.746269    5.042336
  Au     6.199929    7.890699    4.421138
  Au     5.189249    5.587755    5.851406
  Au     4.322942    8.189147    6.657677
  Au     6.476537    9.960452    6.331376
  Cr     6.966483    7.356780    7.022113

----------------------------
CARTESIAN COORDINATES (A.U.)
----------------------------
  NO LB      ZA    FRAG     MASS         X           Y           Z
   0 Au   19.0000*   0   196.966   18.054554   11.774519   13.733844
   1 Au   19.0000*   0   196.966   15.674604   17.986022   18.469496
   2 Au   19.0000*   0   196.966   19.471944   14.317742   18.068716
   3 Au   19.0000*   0   196.966   20.599945   19.584318   17.483841
   4 Au   19.0000*   0   196.966   10.964310   16.896875   16.864852
   5 Au   19.0000*   0   196.966   14.497014   12.773354   18.165315
   6 Au   19.0000*   0   196.966   13.721820    8.896613   14.473487
   7 Au   19.0000*   0   196.966    9.590991   11.740169   16.398468
   8 Au   19.0000*   0   196.966   16.901334   19.866992   13.724283
   9 Au   19.0000*   0   196.966   20.722568   16.232278   13.266029
  10 Au   19.0000*   0   196.966   16.646599   15.992804   10.036167
  11 Au   19.0000*   0   196.966   15.039776   10.858875    9.528635
  12 Au   19.0000*   0   196.966   11.716168   14.911260    8.354739
  13 Au   19.0000*   0   196.966    9.806259   10.559326   11.057554
  14 Au   19.0000*   0   196.966    8.169176   15.475245   12.581186
  15 Au   19.0000*   0   196.966   12.238881   18.822527   11.964566
  16 Cr   24.0000    0    52.000   13.164745   13.902300   13.269871
* core charge reduced due to ECP

--------------------------------
INTERNAL COORDINATES (ANGSTROEM)
--------------------------------
 Au     0   0   0     0.000000000000     0.00000000     0.00000000
 Au     1   0   0     4.320929575128     0.00000000     0.00000000
 Au     1   2   0     2.763302608231    39.39142989     0.00000000
 Au     2   1   3     2.789374014198    81.36523780    54.75123659
 Au     2   1   3     2.695584960327    85.65113784   208.13356464
 Au     3   1   2     2.757028136041    67.15983689    51.56559200
 Au     1   2   3     2.780170185545    95.43300367   118.41135752
 Au     6   3   1     2.813027567283   158.86123023   321.20654344
 Au     2   1   3     2.778052564159    71.35063844   116.18065560
 Au     1   2   3     2.760295250427    63.31998595   283.62677010
 Au    10   1   2     2.754919057209    67.41040568   270.40754308
 Au     1   2   3     2.780627303588   115.43405818   180.90005522
 Au    11  10   1     2.815405953173   158.58712351    39.05056862
 Au     7   1   2     2.887040390839   109.68133077    83.27399213
 Au     5   2   1     2.809307928910   142.96749705   319.65269636
 Au     9   2   1     2.694441196803    91.42781378    85.05672612
 Cr     5   2   1     2.736070229139    87.09565391   347.36404504

---------------------------
INTERNAL COORDINATES (A.U.)
---------------------------
 Au     0   0   0     0.000000000000     0.00000000     0.00000000
 Au     1   0   0     8.165373540952     0.00000000     0.00000000
 Au     1   2   0     5.221885154706    39.39142989     0.00000000
 Au     2   1   3     5.271152971910    81.36523780    54.75123659
 Au     2   1   3     5.093917345736    85.65113784   208.13356464
 Au     3   1   2     5.210028120633    67.15983689    51.56559200
 Au     1   2   3     5.253760256374    95.43300367   118.41135752
 Au     6   3   1     5.315851709336   158.86123023   321.20654344
 Au     2   1   3     5.249758531898    71.35063844   116.18065560
 Au     1   2   3     5.216202072071    63.31998595   283.62677010
 Au    10   1   2     5.206042539245    67.41040568   270.40754308
 Au     1   2   3     5.254624084285   115.43405818   180.90005522
 Au    11  10   1     5.320346207309   158.58712351    39.05056862
 Au     7   1   2     5.455715676255   109.68133077    83.27399213
 Au     5   2   1     5.308822611493   142.96749705   319.65269636
 Au     9   2   1     5.091755945913    91.42781378    85.05672612
 Cr     5   2   1     5.170423416248    87.09565391   347.36404504

---------------------
BASIS SET INFORMATION
---------------------
There are 2 groups of distinct atoms

 Group   1 Type Au  : 8s7p6d1f contracted to 6s4p3d1f pattern {311111/4111/411/1}
 Group   2 Type Cr  : 17s11p7d1f contracted to 6s4p4d1f pattern {842111/6311/4111/1}

Atom   0Au   basis set group =>   1
Atom   1Au   basis set group =>   1
Atom   2Au   basis set group =>   1
Atom   3Au   basis set group =>   1
Atom   4Au   basis set group =>   1
Atom   5Au   basis set group =>   1
Atom   6Au   basis set group =>   1
Atom   7Au   basis set group =>   1
Atom   8Au   basis set group =>   1
Atom   9Au   basis set group =>   1
Atom  10Au   basis set group =>   1
Atom  11Au   basis set group =>   1
Atom  12Au   basis set group =>   1
Atom  13Au   basis set group =>   1
Atom  14Au   basis set group =>   1
Atom  15Au   basis set group =>   1
Atom  16Cr   basis set group =>   2
---------------------------------
AUXILIARY/J BASIS SET INFORMATION
---------------------------------
There are 2 groups of distinct atoms

 Group   1 Type Au  : 11s5p5d3f3g contracted to 8s5p5d2f3g pattern {41111111/11111/11111/21/111}
 Group   2 Type Cr  : 19s5p5d3f3g contracted to 8s5p5d2f3g pattern {121111111/11111/11111/21/111}

Atom   0Au   basis set group =>   1
Atom   1Au   basis set group =>   1
Atom   2Au   basis set group =>   1
Atom   3Au   basis set group =>   1
Atom   4Au   basis set group =>   1
Atom   5Au   basis set group =>   1
Atom   6Au   basis set group =>   1
Atom   7Au   basis set group =>   1
Atom   8Au   basis set group =>   1
Atom   9Au   basis set group =>   1
Atom  10Au   basis set group =>   1
Atom  11Au   basis set group =>   1
Atom  12Au   basis set group =>   1
Atom  13Au   basis set group =>   1
Atom  14Au   basis set group =>   1
Atom  15Au   basis set group =>   1
Atom  16Cr   basis set group =>   2
-------------------------
ECP PARAMETER INFORMATION
-------------------------

 Group 1, Type Au ECP Def2-ECP (replacing 60 core electrons, lmax=3)

Atom   0Au   ECP group =>   1
Atom   1Au   ECP group =>   1
Atom   2Au   ECP group =>   1
Atom   3Au   ECP group =>   1
Atom   4Au   ECP group =>   1
Atom   5Au   ECP group =>   1
Atom   6Au   ECP group =>   1
Atom   7Au   ECP group =>   1
Atom   8Au   ECP group =>   1
Atom   9Au   ECP group =>   1
Atom  10Au   ECP group =>   1
Atom  11Au   ECP group =>   1
Atom  12Au   ECP group =>   1
Atom  13Au   ECP group =>   1
Atom  14Au   ECP group =>   1
Atom  15Au   ECP group =>   1



           ************************************************************
           *        Program running with 6 parallel MPI-processes     *
           *              working on a common directory               *
           ************************************************************
------------------------------------------------------------------------------
                           ORCA GTO INTEGRAL CALCULATION
                           -- RI-GTO INTEGRALS CHOSEN --
------------------------------------------------------------------------------
------------------------------------------------------------------------------
                   ___                                                        
                  /   \      - P O W E R E D   B Y -                         
                 /     \                                                     
                 |  |  |   _    _      __       _____    __    __             
                 |  |  |  | |  | |    /  \     |  _  \  |  |  /  |          
                  \  \/   | |  | |   /    \    | | | |  |  | /  /          
                 / \  \   | |__| |  /  /\  \   | |_| |  |  |/  /          
                |  |  |   |  __  | /  /__\  \  |    /   |      \           
                |  |  |   | |  | | |   __   |  |    \   |  |\   \          
                \     /   | |  | | |  |  |  |  | |\  \  |  | \   \       
                 \___/    |_|  |_| |__|  |__|  |_| \__\ |__|  \__/        
                                                                              
                      - O R C A' S   B I G   F R I E N D -                    
                                      &                                       
                       - I N T E G R A L  F E E D E R -                       
                                                                              
 v1 FN, 2020, v2 2021                                                         
------------------------------------------------------------------------------


Reading SHARK input file pbeSP.SHARKINP.tmp ... ok
----------------------
SHARK INTEGRAL PACKAGE
----------------------

Number of atoms                             ...     17
Number of basis functions                   ...    685
Number of shells                            ...    239
Maximum angular momentum                    ...      3
Integral batch strategy                     ... SHARK/LIBINT Hybrid
RI-J (if used) integral strategy            ... SPLIT-RIJ (Revised 2003 algorithm where possible)
Printlevel                                  ...      1
Contraction scheme used                     ... SEGMENTED contraction
Coulomb Range Separation                    ... NOT USED
Exchange Range Separation                   ... NOT USED
Finite Nucleus Model                        ... NOT USED
Auxiliary Coulomb fitting basis             ... AVAILABLE
   # of basis functions in Aux-J            ...   1513
   # of shells in Aux-J                     ...    391
   Maximum angular momentum in Aux-J        ...      4
Auxiliary J/K fitting basis                 ... NOT available
Auxiliary Correlation fitting basis         ... NOT available
Auxiliary 'external' fitting basis          ... NOT available
Integral threshold                          ...     1.000000e-10
Primitive cut-off                           ...     1.000000e-11
Primitive pair pre-selection threshold      ...     1.000000e-11

Calculating pre-screening integrals         ... done (  0.4 sec) Dimension = 239
Organizing shell pair data                  ... done (  1.0 sec)
Shell pair information
Total number of shell pairs                 ...     28680
Shell pairs after pre-screening             ...     22291
Total number of primitive shell pairs       ...     75765
Primitive shell pairs kept                  ...     42357
          la=0 lb=0:   3519 shell pairs
          la=1 lb=0:   5083 shell pairs
          la=1 lb=1:   1897 shell pairs
          la=2 lb=0:   4446 shell pairs
          la=2 lb=1:   3109 shell pairs
          la=2 lb=2:   1288 shell pairs
          la=3 lb=0:   1168 shell pairs
          la=3 lb=1:    884 shell pairs
          la=3 lb=2:    780 shell pairs
          la=3 lb=3:    117 shell pairs

Calculating one electron integrals          ... done (  0.3 sec)
Calculating ECP integrals                   ... done ( 28.1 sec)
Calculating RI/J V-Matrix + Cholesky decomp.... done (  2.3 sec)
Calculating Nuclear repulsion               ... done (  0.0 sec) ENN=   6955.136632090549 Eh

SHARK setup successfully completed in  33.6 seconds

Maximum memory used throughout the entire GTOINT-calculation: 41.1 MB


           ************************************************************
           *        Program running with 6 parallel MPI-processes     *
           *              working on a common directory               *
           ************************************************************
-------------------------------------------------------------------------------
                                 ORCA SCF
-------------------------------------------------------------------------------

------------
SCF SETTINGS
------------
Hamiltonian:
 Density Functional     Method          .... DFT(GTOs)
 Exchange Functional    Exchange        .... PBE
   PBE kappa parameter   XKappa         ....  0.804000
   PBE mue parameter    XMuePBE         ....  0.219520
 Correlation Functional Correlation     .... PBE
   PBE beta parameter  CBetaPBE         ....  0.066725
 LDA part of GGA corr.  LDAOpt          .... PW91-LDA
 Gradients option       PostSCFGGA      .... off
   Density functional embedding theory  .... OFF
   NL short-range parameter             ....  6.400000
 RI-approximation to the Coulomb term is turned on
   Number of AuxJ basis functions       .... 1513


General Settings:
 Integral files         IntName         .... pbeSP
 Hartree-Fock type      HFTyp           .... UHF
 Total Charge           Charge          ....    0
 Multiplicity           Mult            ....    5
 Number of Electrons    NEL             ....  328
 Basis Dimension        Dim             ....  685
 Nuclear Repulsion      ENuc            ....   6955.1366320905 Eh

Convergence Acceleration:
 DIIS                   CNVDIIS         .... on
   Start iteration      DIISMaxIt       ....     0
   Startup error        DIISStart       ....  0.200000
   # of expansion vecs  DIISMaxEq       ....     5
   Bias factor          DIISBfac        ....   1.050
   Max. coefficient     DIISMaxC        ....  10.000
 Trust-Rad. Augm. Hess. CNVTRAH         .... auto
   Auto Start mean grad. ratio tolernc. ....  1.125000
   Auto Start start iteration           ....   200
   Auto Start num. interpolation iter.  ....    10
   Max. Number of Micro iterations      ....    16
   Max. Number of Macro iterations      .... Maxiter - #DIIS iter
   Number of Davidson start vectors     ....     2
   Converg. threshold I  (grad. norm)   ....   5.000e-05
   Converg. threshold II (energy diff.) ....   1.000e-06
   Grad. Scal. Fac. for Micro threshold ....   0.100
   Minimum threshold for Micro iter.    ....   0.010
   NR start threshold (gradient norm)   ....   0.001
   Initial trust radius                 ....   0.400
   Minimum AH scaling param. (alpha)    ....   1.000
   Maximum AH scaling param. (alpha)    .... 1000.000
   Orbital update algorithm             .... Taylor
   White noise on init. David. guess    .... on
   Maximum white noise                  ....   0.010
   Quad. conv. algorithm                .... NR
 SOSCF                  CNVSOSCF        .... off
 Level Shifting         CNVShift        .... on
   Level shift para.    LevelShift      ....    0.2500
   Turn off err/grad.   ShiftErr        ....    0.0000
 Zerner damping         CNVZerner       .... off
 Static damping         CNVDamp         .... on
   Fraction old density DampFac         ....    0.9200
   Max. Damping (<1)    DampMax         ....    0.9800
   Min. Damping (>=0)   DampMin         ....    0.0000
   Turn off err/grad.   DampErr         ....    0.0030
 Fernandez-Rico         CNVRico         .... off

SCF Procedure:
 Maximum # iterations   MaxIter         ....   400
 SCF integral mode      SCFMode         .... Direct
   Integral package                     .... SHARK and LIBINT hybrid scheme
 Reset frequency        DirectResetFreq ....    20
 Integral Threshold     Thresh          ....  1.000e-10 Eh
 Primitive CutOff       TCut            ....  1.000e-11 Eh

Convergence Tolerance:
 Convergence Check Mode ConvCheckMode   .... Total+1el-Energy
 Convergence forced     ConvForced      .... 0
 Energy Change          TolE            ....  1.000e-06 Eh
 1-El. energy change                    ....  1.000e-03 Eh
 DIIS Error             TolErr          ....  1.000e-06


Diagonalization of the overlap matrix:
Smallest eigenvalue                        ... 6.158e-05
Time for diagonalization                   ...    0.140 sec
Threshold for overlap eigenvalues          ... 1.000e-08
Number of eigenvalues below threshold      ... 0
Time for construction of square roots      ...    0.271 sec
Total time needed                          ...    0.619 sec

Time for model grid setup =    1.544 sec

------------------------------
INITIAL GUESS: MODEL POTENTIAL
------------------------------
Loading Hartree-Fock densities                     ... done
  calling /media/Programs/ORCA501/orca pbeSP_atom79.inp > pbeSP_atom79.out in order to generate an atomic fitting density for atom 0 (Au with ECP) on-the-fly... 
    atom 0 (Au), assumed electronic state with S=2: 1s2 2s2 2p6 3s2 3p6 4s2 3d10 4p6 5s2 4d10 5p6 6s1 4f14 5d10           ... done
Calculating cut-offs                               ... done
Initializing the effective Hamiltonian             ... done
Setting up the integral package (SHARK)            ... done
Starting the Coulomb interaction                   ... done (   2.6 sec)
Reading the grid                                   ... done
Mapping shells                                     ... done
Starting the XC term evaluation                    ... done (   1.5 sec)
  promolecular density results
     # of electrons  =   1288.015559064
     EX              =  -5900.443266283
     EC              =    -78.564133630
     EX+EC           =  -5979.007399914
Transforming the Hamiltonian                       ... done (   0.7 sec)
Diagonalizing the Hamiltonian                      ... done (   0.8 sec)
Back transforming the eigenvectors                 ... done (   0.0 sec)
Now organizing SCF variables                       ... done
                      ------------------
                      INITIAL GUESS DONE (   8.9 sec)
                      ------------------
-------------------
DFT GRID GENERATION
-------------------

General Integration Accuracy     IntAcc      ... 4.388
Radial Grid Type                 RadialGrid  ... OptM3 with GC (2021)
Angular Grid (max. ang.)         AngularGrid ... 4 (Lebedev-302)
Angular grid pruning method      GridPruning ... 4 (adaptive)
Weight generation scheme         WeightScheme... Becke
Basis function cutoff            BFCut       ... 1.0000e-10
Integration weight cutoff        WCut        ... 1.0000e-14
Angular grids for H and He will be reduced by one unit
Partially contracted basis set               ... off
Rotationally invariant grid construction     ... off

Total number of grid points                  ...   186948
Total number of batches                      ...     2930
Average number of points per batch           ...       63
Average number of grid points per atom       ...    10997
Time for grid setup =    5.642 sec

--------------
SCF ITERATIONS
--------------
ITER       Energy         Delta-E        Max-DP      RMS-DP      [F,P]     Damp
               ***  Starting incremental Fock matrix formation  ***
  0  -3215.3752854659   0.000000000000 0.15963489  0.00070793  0.3607485 0.9200
  1  -3216.0274554623  -0.652169996441 0.10042930  0.00062511  0.2633540 0.9200
                               ***Turning on DIIS***
  2  -3216.3847043778  -0.357248915519 0.18710038  0.00051630  0.2413611 0.9200
  3  -3216.5415564531  -0.156852075212 0.11618045  0.00037090  0.2211505 0.9200
  4  -3216.6119412842  -0.070384831145 0.03282161  0.00029274  0.2026280 0.9200
  5  -3216.6764877518  -0.064546467620 0.02950918  0.00026934  0.1855358 0.9200
  6  -3216.7356327299  -0.059144978052 0.08087564  0.00024508  0.1701696 0.9200
  7  -3216.7748131157  -0.039180385861 0.10784958  0.00026554  0.1567759 0.9200
  8  -3216.8269254594  -0.052112343680 0.10393308  0.00027653  0.1444408 0.9200
  9  -3216.8838047862  -0.056879326752 0.12098443  0.00025796  0.1327438 0.9200
 10  -3216.9281866964  -0.044381910197 0.08282976  0.00020435  0.1219794 0.9200
 11  -3216.9723587244  -0.044172028041 0.06322289  0.00018555  0.1119422 0.9200
 12  -3217.0055629264  -0.033204201945 0.08298164  0.00018901  0.1028082 0.9200
 13  -3217.0382693474  -0.032706421076 0.07907182  0.00018422  0.0945735 0.9200
 14  -3217.0759334875  -0.037664140081 0.08152441  0.00018071  0.0869374 0.9200
 15  -3217.1084795254  -0.032546037893 0.07393459  0.00015639  0.0799597 0.9200
 16  -3217.1375567871  -0.029077261734 0.04687391  0.00013290  0.0735376 0.9200
 17  -3217.1641430208  -0.026586233636 0.05295867  0.00013155  0.0675240 0.9200
 18  -3217.1872229685  -0.023079947687 0.05698584  0.00012782  0.0620606 0.9200
 19  -3217.2103814723  -0.023158503867 0.04651974  0.00011981  0.0570552 0.9200
               *** Restarting incremental Fock matrix formation ***
                                   *** Resetting DIIS ***
 20  -3217.2325532037  -0.022171731336 0.03597629  0.00010282  0.0524495 0.9200
 21  -3217.2522862077  -0.019733004013 0.02958561  0.00008969  0.0481282 0.9200
 22  -3217.2706945898  -0.018408382157 0.02955323  0.00008634  0.0441722 0.9200
 23  -3217.2876047733  -0.016910183441 0.03689693  0.00008636  0.0405874 0.9200
 24  -3217.3032332437  -0.015628470423 0.03672057  0.00008219  0.0373400 0.9200
 25  -3217.3176934861  -0.014460242367 0.03090409  0.00007375  0.0343606 0.9200
 26  -3217.3309564186  -0.013262932520 0.02350092  0.00006440  0.0315957 0.9200
 27  -3217.3433333064  -0.012376887819 0.02019934  0.00006059  0.0290408 0.9200
 28  -3217.3547030208  -0.011369714381 0.02301764  0.00005893  0.0266943 0.9200
 29  -3217.3652248906  -0.010521869823 0.02280413  0.00005632  0.0245531 0.9200
 30  -3217.3749248769  -0.009699986297 0.01925755  0.00005028  0.0225873 0.9200
 31  -3217.3838726813  -0.008947804423 0.01472547  0.00004512  0.0207755 0.9200
 32  -3217.3921893063  -0.008316624961 0.01347271  0.00004293  0.0190997 0.9200
 33  -3217.3998388991  -0.007649592819 0.01490195  0.00004148  0.0175579 0.9200
 34  -3217.4069156181  -0.007076719017 0.01477973  0.00003963  0.0161467 0.9200
 35  -3217.4134280285  -0.006512410337 0.01230966  0.00003539  0.0148524 0.9200
 36  -3217.4194553264  -0.006027297939 0.00975653  0.00003261  0.0136619 0.9200
 37  -3217.4250396436  -0.005584317181 0.00990523  0.00003149  0.0125607 0.9200
 38  -3217.4301847748  -0.005145131240 0.01072358  0.00003056  0.0115483 0.9200
 39  -3217.4349401932  -0.004755418406 0.00492240  0.00002750  0.0106199 0.9200
               *** Restarting incremental Fock matrix formation ***
                                   *** Resetting DIIS ***
 40  -3217.4393204715  -0.004380278319 0.00499125  0.00002485  0.0097687 0.9200
 41  -3217.4433807527  -0.004060281165 0.00384792  0.00002334  0.0089697 0.9200
 42  -3217.4471358140  -0.003755061262 0.00471717  0.00002270  0.0082394 0.9200
 43  -3217.4506015200  -0.003465706067 0.00592009  0.00002251  0.0075751 0.9200
 44  -3217.4537988050  -0.003197284992 0.00616460  0.00002217  0.0069683 0.9200
 45  -3217.4567517749  -0.002952969833 0.00560051  0.00002166  0.0064108 0.9200
 46  -3217.4594820072  -0.002730232335 0.00507996  0.00002134  0.0058958 0.9200
 47  -3217.4620064526  -0.002524445428 0.00489786  0.00002120  0.0054215 0.9200
 48  -3217.4643397620  -0.002333309356 0.00474186  0.00002111  0.0049862 0.9200
 49  -3217.4664970183  -0.002157256299 0.00436295  0.00002101  0.0045866 0.9200
 50  -3217.4684941691  -0.001997150818 0.00413288  0.00002107  0.0042191 0.9200
 51  -3217.4703444404  -0.001850271341 0.00422026  0.00002129  0.0038805 0.9200
 52  -3217.4720585663  -0.001714125855 0.00437801  0.00002155  0.0035689 0.9200
 53  -3217.4736469730  -0.001588406656 0.00452932  0.00002183  0.0032826 0.9200
 54  -3217.4751202230  -0.001473250064 0.00461220  0.00002214  0.0030194 0.9200
 55  -3217.4764885400  -0.001368316966 0.06009339  0.00028167  0.0027773 0.0000
 56  -3217.4925513528  -0.016062812776 0.01314089  0.00003764  0.0011999 0.0000
 57  -3217.4926453503  -0.000093997508 0.00628331  0.00003222  0.0026062 0.0000
 58  -3217.4928463083  -0.000200958020 0.01031813  0.00003309  0.0009041 0.0000
 59  -3217.4930004703  -0.000154162030 0.01226491  0.00003391  0.0007400 0.0000
               *** Restarting incremental Fock matrix formation ***
                                   *** Resetting DIIS ***
 60  -3217.4931548243  -0.000154353934 0.00919174  0.00003487  0.0007041 0.0000
 61  -3217.4932799086  -0.000125084324 0.00712513  0.00003289  0.0018423 0.0000
 62  -3217.4934658963  -0.000185987742 0.01025795  0.00003368  0.0008547 0.0000
 63  -3217.4936256545  -0.000159758157 0.01069232  0.00003384  0.0007697 0.0000
 64  -3217.4937775663  -0.000151911804 0.01143123  0.00003481  0.0009843 0.0000
 65  -3217.4939120617  -0.000134495384 0.01295532  0.00003594  0.0015672 0.0000
 66  -3217.4940621330  -0.000150071381 0.01319830  0.00003579  0.0018862 0.0000
 67  -3217.4942031704  -0.000141037361 0.01314720  0.00003586  0.0022864 0.0000
 68  -3217.4943282955  -0.000125125094 0.01270699  0.00003604  0.0026862 0.0000
 69  -3217.4944397727  -0.000111477225 0.01125954  0.00003661  0.0029425 0.0000
 70  -3217.4945562372  -0.000116464438 0.02004947  0.00004227  0.0028427 0.0000
 71  -3217.4947887689  -0.000232531782 0.01294741  0.00004123  0.0025163 0.0000
 72  -3217.4950246186  -0.000235849685 0.02548829  0.00005137  0.0014878 0.0000
 73  -3217.4951977840  -0.000173165379 0.00797779  0.00003347  0.0009849 0.0000
 74  -3217.4953532194  -0.000155435408 0.01285870  0.00003331  0.0007869 0.0000
 75  -3217.4954955436  -0.000142324208 0.01540774  0.00003516  0.0007772 0.0000
 76  -3217.4956309896  -0.000135445944 0.01156786  0.00003194  0.0007393 0.0000
 77  -3217.4957672328  -0.000136243186 0.01490829  0.00003469  0.0007469 0.0000
 78  -3217.4958942904  -0.000127057634 0.01102657  0.00003063  0.0007681 0.0000
 79  -3217.4960200578  -0.000125767445 0.02188739  0.00003850  0.0007388 0.0000
               *** Restarting incremental Fock matrix formation ***
                                   *** Resetting DIIS ***
 80  -3217.4961405581  -0.000120500235 0.01389487  0.00003196  0.0007266 0.0000
 81  -3217.4962531287  -0.000112570610 0.01527116  0.00003243  0.0006617 0.0000
 82  -3217.4963676643  -0.000114535607 0.01506883  0.00003161  0.0007031 0.0000
 83  -3217.4964745173  -0.000106853043 0.01306149  0.00003078  0.0006749 0.0000
 84  -3217.4965768035  -0.000102286137 0.01288151  0.00002905  0.0007011 0.0000
 85  -3217.4966766968  -0.000099893381 0.01182694  0.00002839  0.0006395 0.0000
 86  -3217.4967717961  -0.000095099277 0.01392048  0.00003050  0.0006573 0.0000
 87  -3217.4968625588  -0.000090762726 0.01137239  0.00002684  0.0006352 0.0000
 88  -3217.4969509895  -0.000088430648 0.01184949  0.00003082  0.0006208 0.0000
 89  -3217.4970222580  -0.000071268499 0.01213987  0.00002721  0.0006500 0.0000
 90  -3217.4971122018  -0.000089943830 0.01108282  0.00002581  0.0005330 0.0000
 91  -3217.4971866698  -0.000074467936 0.01310994  0.00002726  0.0006261 0.0000
 92  -3217.4972599293  -0.000073259562 0.01073938  0.00002480  0.0005746 0.0000
 93  -3217.4973297505  -0.000069821147 0.01219119  0.00002510  0.0005669 0.0000
 94  -3217.4973950071  -0.000065256671 0.00930072  0.00002277  0.0005250 0.0000
 95  -3217.4974571768  -0.000062169705 0.01075205  0.00002340  0.0004803 0.0000
 96  -3217.4975156409  -0.000058464038 0.01106720  0.00002425  0.0005669 0.0000
 97  -3217.4975722119  -0.000056571015 0.00935148  0.00002142  0.0005115 0.0000
 98  -3217.4976260815  -0.000053869629 0.00989264  0.00002166  0.0004916 0.0000
 99  -3217.4976770908  -0.000051009269 0.01381198  0.00002548  0.0004382 0.0000
               *** Restarting incremental Fock matrix formation ***
                                   *** Resetting DIIS ***
100  -3217.4977265768  -0.000049485968 0.01462672  0.00002485  0.0004763 0.0000
101  -3217.4977706326  -0.000044055808 0.00826979  0.00001954  0.0004443 0.0000
102  -3217.4978157510  -0.000045118456 0.00820490  0.00001883  0.0004583 0.0000
103  -3217.4978570820  -0.000041330975 0.00863395  0.00001972  0.0004150 0.0000
104  -3217.4978959444  -0.000038862442 0.00701159  0.00001741  0.0004540 0.0000
105  -3217.4979337843  -0.000037839814 0.00837185  0.00001816  0.0003882 0.0000
106  -3217.4979696727  -0.000035888439 0.00684316  0.00001797  0.0004167 0.0000
107  -3217.4980028574  -0.000033184737 0.00759541  0.00001680  0.0003938 0.0000
108  -3217.4980364464  -0.000033588933 0.00672195  0.00001699  0.0003659 0.0000
109  -3217.4980663568  -0.000029910441 0.00674172  0.00001575  0.0004423 0.0000
110  -3217.4980964818  -0.000030125039 0.00714548  0.00001628  0.0003552 0.0000
111  -3217.4981245044  -0.000028022519 0.00551810  0.00001444  0.0003473 0.0000
112  -3217.4981509492  -0.000026444804 0.00650580  0.00001573  0.0003295 0.0000
113  -3217.4981757374  -0.000024788199 0.00513975  0.00001377  0.0003600 0.0000
114  -3217.4981997389  -0.000024001567 0.00620303  0.00001397  0.0004021 0.0000
115  -3217.4982225475  -0.000022808596 0.00528776  0.00001337  0.0003176 0.0000
116  -3217.4982446238  -0.000022076258 0.00492176  0.00001308  0.0003021 0.0000
117  -3217.4982653618  -0.000020738039 0.00548893  0.00001299  0.0003130 0.0000
118  -3217.4982851683  -0.000019806469 0.00404862  0.00001233  0.0003189 0.0000
119  -3217.4983041639  -0.000018995595 0.00829441  0.00001487  0.0003124 0.0000
               *** Restarting incremental Fock matrix formation ***
                                   *** Resetting DIIS ***
120  -3217.4983235023  -0.000019338420 0.00789844  0.00001605  0.0003117 0.0000
121  -3217.4983365187  -0.000013016404 0.00615629  0.00001255  0.0006255 0.0000
122  -3217.4983561971  -0.000019678364 0.00482124  0.00001122  0.0003724 0.0000
123  -3217.4983726663  -0.000016469174 0.00450818  0.00001154  0.0003067 0.0000
124  -3217.4983879147  -0.000015248475 0.00320244  0.00001006  0.0002805 0.0000
125  -3217.4984023716  -0.000014456897 0.00413897  0.00001040  0.0002589 0.0000
126  -3217.4984163741  -0.000014002461 0.00225332  0.00000977  0.0002739 0.0000
127  -3217.4984294005  -0.000013026411 0.00393745  0.00000986  0.0002864 0.0000
128  -3217.4984426443  -0.000013243790 0.00289748  0.00000974  0.0002454 0.0000
129  -3217.4984547710  -0.000012126709 0.00416959  0.00000973  0.0002865 0.0000
130  -3217.4984667080  -0.000011936984 0.00337434  0.00000952  0.0002391 0.0000
131  -3217.4984781732  -0.000011465255 0.00245332  0.00000864  0.0002344 0.0000
132  -3217.4984890134  -0.000010840202 0.00330124  0.00000880  0.0002316 0.0000
133  -3217.4984997105  -0.000010697075 0.00281329  0.00000850  0.0002369 0.0000
134  -3217.4985097589  -0.000010048339 0.00325940  0.00000837  0.0002423 0.0000
135  -3217.4985194180  -0.000009659168 0.00292756  0.00000820  0.0002386 0.0000
136  -3217.4985289931  -0.000009575105 0.00203841  0.00000790  0.0002176 0.0000
137  -3217.4985380188  -0.000009025645 0.00244330  0.00000789  0.0002158 0.0000
138  -3217.4985468201  -0.000008801352 0.00257588  0.00000742  0.0002414 0.0000
139  -3217.4985553987  -0.000008578530 0.00669309  0.00001188  0.0002092 0.0000
               *** Restarting incremental Fock matrix formation ***
                                   *** Resetting DIIS ***
140  -3217.4985646966  -0.000009297959 0.00426198  0.00000899  0.0002091 0.0000
141  -3217.4985719772  -0.000007280554 0.00321762  0.00000752  0.0002673 0.0000
142  -3217.4985802271  -0.000008249956 0.00308410  0.00000744  0.0002051 0.0000
143  -3217.4985877393  -0.000007512148 0.00252227  0.00000698  0.0002001 0.0000
144  -3217.4985949134  -0.000007174106 0.00217256  0.00000675  0.0002003 0.0000
145  -3217.4986021924  -0.000007279044 0.00162358  0.00000649  0.0001959 0.0000
146  -3217.4986090652  -0.000006872808 0.00205154  0.00000659  0.0001931 0.0000
147  -3217.4986159657  -0.000006900453 0.00205047  0.00000647  0.0001911 0.0000
148  -3217.4986224196  -0.000006453952 0.00197477  0.00000615  0.0001911 0.0000
149  -3217.4986289576  -0.000006537984 0.00248343  0.00000667  0.0001866 0.0000
150  -3217.4986353035  -0.000006345836 0.00153594  0.00000575  0.0001851 0.0000
151  -3217.4986413119  -0.000006008468 0.00231221  0.00000637  0.0001834 0.0000
152  -3217.4986475122  -0.000006200264 0.00165753  0.00000572  0.0001818 0.0000
153  -3217.4986533189  -0.000005806744 0.00124234  0.00000551  0.0001798 0.0000
154  -3217.4986591951  -0.000005876144 0.00167697  0.00000552  0.0001798 0.0000
155  -3217.4986647821  -0.000005587058 0.00134429  0.00000547  0.0001769 0.0000
156  -3217.4986703319  -0.000005549758 0.00164309  0.00000544  0.0001757 0.0000
157  -3217.4986758685  -0.000005536613 0.00137132  0.00000535  0.0001744 0.0000
158  -3217.4986812341  -0.000005365604 0.00156479  0.00000543  0.0001731 0.0000
159  -3217.4986867084  -0.000005474298 0.00143026  0.00000578  0.0001713 0.0000
               *** Restarting incremental Fock matrix formation ***
                                   *** Resetting DIIS ***
160  -3217.4986921717  -0.000005463303 0.00200448  0.00000696  0.0001705 0.0000
161  -3217.4986971482  -0.000004976444 0.00134886  0.00000497  0.0001907 0.0000
162  -3217.4987022368  -0.000005088684 0.00107174  0.00000486  0.0001686 0.0000
163  -3217.4987072573  -0.000005020476 0.00100069  0.00000485  0.0001681 0.0000
164  -3217.4987122748  -0.000005017520 0.00100450  0.00000470  0.0001663 0.0000
165  -3217.4987171864  -0.000004911607 0.00096924  0.00000465  0.0001655 0.0000
166  -3217.4987220334  -0.000004847010 0.00081577  0.00000505  0.0001644 0.0000
167  -3217.4987269343  -0.000004900897 0.00120930  0.00000459  0.0001631 0.0000
168  -3217.4987317048  -0.000004770448 0.00109499  0.00000464  0.0001623 0.0000
169  -3217.4987363985  -0.000004693663 0.00087166  0.00000485  0.0001617 0.0000
170  -3217.4987412215  -0.000004823029 0.00105332  0.00000441  0.0001604 0.0000
171  -3217.4987457719  -0.000004550414 0.00096191  0.00000437  0.0001600 0.0000
172  -3217.4987504651  -0.000004693237 0.00080931  0.00000441  0.0001596 0.0000
173  -3217.4987550496  -0.000004584442 0.00064370  0.00000443  0.0001591 0.0000
174  -3217.4987597239  -0.000004674356 0.00089250  0.00000425  0.0001583 0.0000
175  -3217.4987641330  -0.000004409074 0.00065738  0.00000443  0.0001578 0.0000
176  -3217.4987687816  -0.000004648620 0.00070011  0.00000431  0.0001571 0.0000
177  -3217.4987732804  -0.000004498728 0.00082946  0.00000426  0.0001563 0.0000
178  -3217.4987778934  -0.000004613000 0.00055156  0.00000413  0.0001555 0.0000
179  -3217.4987823126  -0.000004419232 0.00237010  0.00000689  0.0001552 0.0000
               *** Restarting incremental Fock matrix formation ***
                                   *** Resetting DIIS ***
180  -3217.4987869648  -0.000004652196 0.00138112  0.00000507  0.0001549 0.0000
181  -3217.4987913775  -0.000004412717 0.00095515  0.00000418  0.0001545 0.0000
182  -3217.4987960018  -0.000004624319 0.00065158  0.00000400  0.0001540 0.0000
183  -3217.4988003022  -0.000004300333 0.00071091  0.00000403  0.0001539 0.0000
184  -3217.4988048033  -0.000004501172 0.00068150  0.00000388  0.0001537 0.0000
185  -3217.4988088830  -0.000004079655 0.00071970  0.00000382  0.0001541 0.0000
186  -3217.4988130268  -0.000004143864 0.00066010  0.00000379  0.0001548 0.0000
187  -3217.4988171868  -0.000004159938 0.00062662  0.00000377  0.0001555 0.0000
188  -3217.4988212848  -0.000004098028 0.00051554  0.00000371  0.0001577 0.0000
189  -3217.4988252496  -0.000003964809 0.00050092  0.00000365  0.0001689 0.0000
190  -3217.4988293150  -0.000004065401 0.00049440  0.00000363  0.0001824 0.0000
191  -3217.4988334601  -0.000004145107 0.00050170  0.00000405  0.0001888 0.0000
192  -3217.4988379919  -0.000004531756 0.00127652  0.00000512  0.0001571 0.0000
193  -3217.4988424890  -0.000004497129 0.00065294  0.00000416  0.0001554 0.0000
194  -3217.4988471138  -0.000004624763 0.00044120  0.00000390  0.0001535 0.0000
195  -3217.4988517671  -0.000004653281 0.00041087  0.00000384  0.0001523 0.0000
196  -3217.4988561870  -0.000004419960 0.00048965  0.00000397  0.0001517 0.0000
197  -3217.4988608641  -0.000004677117 0.00060435  0.00000373  0.0001509 0.0000
198  -3217.4988651954  -0.000004331309 0.00044048  0.00000363  0.0001516 0.0000
199  -3217.4988695356  -0.000004340113 0.00082405  0.00000422  0.0001530 0.0000
               *** Restarting incremental Fock matrix formation ***
                                   *** Resetting DIIS ***

 WARNING: the maximum gradient error descreased on average only by a factor   1.0
          during the last 200 iterations

                      *** Initiating the TRAH-SCF procedure ***


TRAH GRID
---------

General Integration Accuracy     IntAcc      ... 3.467
Radial Grid Type                 RadialGrid  ... OptM3 with GC (2021)
Angular Grid (max. ang.)         AngularGrid ... 1 (Lebedev-50)
Angular grid pruning method      GridPruning ... 4 (adaptive)
Weight generation scheme         WeightScheme... Becke
Basis function cutoff            BFCut       ... 1.0000e-10
Integration weight cutoff        WCut        ... 1.0000e-14
Angular grids for H and He will be reduced by one unit
Partially contracted basis set               ... off
Rotationally invariant grid construction     ... off

Total number of grid points                  ...    80586
Total number of batches                      ...     1269
Average number of points per batch           ...       63
Average number of grid points per atom       ...     4740

 --------------------------------------------------------------------------------------------
   Iter.        energy            ||Error||_2        Shift      TRadius  Mac/Mic        Rej.
 --------------------------------------------------------------------------------------------
    0      -3217.498874392335     1.036891e-03                     0.400 (TRAH MAcro)   No
WARNING : small    HOMO - LUMO gap : (op = alpha) 0.003605
WARNING : small    HOMO - LUMO gap : (op =  beta) 0.017883
    0     dE    -6.432004e-07     2.299469e-03    -6.4320e-07      0.001 (TRAH MIcro)
    0     dE    -3.715124e-04     3.325345e-02    -4.5001e-04      0.400 (TRAH MIcro)
    0     dE    -5.595782e-04     2.111985e-02    -1.6067e-03      0.400 (TRAH MIcro)
    0     dE    -6.033404e-04     1.007547e-02    -2.4258e-03      0.366 (TRAH MIcro)
    0     dE    -7.331637e-04     6.377254e-03    -2.6765e-03      0.400 (TRAH MIcro)
    0     dE    -7.641667e-04     4.523651e-03    -2.8744e-03      0.400 (TRAH MIcro)
    0     dE    -7.729061e-04     2.673251e-03    -2.9310e-03      0.400 (TRAH MIcro)
    0     dE    -7.762066e-04     1.238337e-03    -2.9522e-03      0.400 (TRAH MIcro)
    0     dE    -7.767673e-04     5.827177e-04    -2.9561e-03      0.400 (TRAH MIcro)
    0     dE    -7.769220e-04     2.266764e-04    -2.9574e-03      0.400 (TRAH MIcro)
    0     dE    -7.769483e-04     1.457869e-04    -2.9578e-03      0.400 (TRAH MIcro)
    0     dE    -7.769588e-04     9.109529e-05    -2.9583e-03      0.400 (TRAH MIcro)
    1      -3217.499497646192     1.039752e-02                     0.480 (TRAH MAcro)   No
WARNING : small    HOMO - LUMO gap : (op = alpha) 0.005544
WARNING : small    HOMO - LUMO gap : (op =  beta) 0.018004
    1     dE    -3.352307e-05     1.032855e-02    -3.3523e-05      0.003 (TRAH MIcro)
    1     dE    -1.702866e-04     1.072888e-02    -1.6837e-04      0.107 (TRAH MIcro)
    1     dE    -2.852555e-04     1.363996e-02    -2.7272e-04      0.214 (TRAH MIcro)
    1     dE    -4.020970e-04     1.200213e-02    -3.6487e-04      0.319 (TRAH MIcro)
    1     dE    -5.092786e-04     9.153328e-03    -4.3578e-04      0.411 (TRAH MIcro)
    1     dE    -6.030041e-04     6.254538e-03    -4.9529e-04      0.480 (TRAH MIcro)
    1     dE    -6.245064e-04     3.480341e-03    -5.8937e-04      0.480 (TRAH MIcro)
    1     dE    -6.299293e-04     1.712642e-03    -6.0989e-04      0.480 (TRAH MIcro)
    1     dE    -6.312925e-04     8.756395e-04    -6.1674e-04      0.480 (TRAH MIcro)
    2      -3217.500067350549     1.472746e-02                     0.576 (TRAH MAcro)   No
WARNING : small    HOMO - LUMO gap : (op = alpha) 0.006808
WARNING : small    HOMO - LUMO gap : (op =  beta) 0.018314
    2     dE    -6.622651e-05     1.537915e-02    -6.6225e-05      0.004 (TRAH MIcro)
    2     dE    -1.210820e-04     6.083381e-03    -1.2105e-04      0.016 (TRAH MIcro)
    2     dE    -1.386413e-04     4.121009e-03    -1.3854e-04      0.026 (TRAH MIcro)
    2     dE    -1.492756e-04     3.640741e-03    -1.4906e-04      0.038 (TRAH MIcro)
    2     dE    -1.607335e-04     3.416160e-03    -1.6020e-04      0.058 (TRAH MIcro)
    2     dE    -1.711691e-04     2.728372e-03    -1.6995e-04      0.085 (TRAH MIcro)
    2     dE    -1.773139e-04     2.342109e-03    -1.7541e-04      0.104 (TRAH MIcro)
    2     dE    -1.817875e-04     1.780745e-03    -1.7919e-04      0.120 (TRAH MIcro)
    2     dE    -1.840033e-04     8.223726e-04    -1.8102e-04      0.128 (TRAH MIcro)
    3      -3217.500263914582     1.409488e-03                     0.691 (TRAH MAcro)   No
WARNING : small    HOMO - LUMO gap : (op = alpha) 0.006066
WARNING : small    HOMO - LUMO gap : (op =  beta) 0.018080
    3     dE    -2.772689e-07     3.871758e-03    -2.7727e-07      0.000 (TRAH MIcro)
    3     dE    -2.520642e-06     1.625029e-03    -2.5204e-06      0.009 (TRAH MIcro)
    3     dE    -3.992052e-06     2.052217e-03    -3.9907e-06      0.018 (TRAH MIcro)
    3     dE    -6.013876e-06     2.226449e-03    -6.0074e-06      0.033 (TRAH MIcro)
    3     dE    -7.679083e-06     1.674349e-03    -7.6627e-06      0.046 (TRAH MIcro)
    3     dE    -9.432039e-06     1.153142e-03    -9.3966e-06      0.061 (TRAH MIcro)
    3     dE    -1.018981e-05     8.401087e-04    -1.0143e-05      0.068 (TRAH MIcro)
    3     dE    -1.055403e-05     4.228101e-04    -1.0500e-05      0.071 (TRAH MIcro)
    3     dE    -1.063437e-05     2.015000e-04    -1.0579e-05      0.072 (TRAH MIcro)
    3     dE    -1.065299e-05     7.436621e-05    -1.0598e-05      0.072 (TRAH MIcro)
    4      -3217.500274334078     3.816656e-04                           (NR   MAcro)
WARNING : small    HOMO - LUMO gap : (op = alpha) 0.006023
WARNING : small    HOMO - LUMO gap : (op =  beta) 0.018052
    4     dE    -5.557789e-08     2.455944e-04                           (NR   MIcro)
    4     dE    -7.427955e-08     1.603195e-04                           (NR   MIcro)
    4     dE    -8.443242e-08     1.091663e-04                           (NR   MIcro)
    4     dE    -9.108777e-08     5.994314e-05                           (NR   MIcro)
    4     dE    -9.256760e-08     3.281863e-05                           (NR   MIcro)
    4     dE    -9.317045e-08     1.809974e-05                           (NR   MIcro)
    4     dE    -9.342496e-08     1.352386e-05                           (NR   MIcro)
    4     dE    -9.362598e-08     1.217615e-05                           (NR   MIcro)
    4     dE    -9.380263e-08     1.138725e-05                           (NR   MIcro)
    4     dE    -9.389344e-08     7.503804e-06                           (NR   MIcro)
    4     dE    -9.393560e-08     4.703690e-06                           (NR   MIcro)
    5      -3217.500274428655     4.661029e-06                           (NR   MAcro)
WARNING : small    HOMO - LUMO gap : (op = alpha) 0.005990
WARNING : small    HOMO - LUMO gap : (op =  beta) 0.018038

               *****************************************************
               *                     SUCCESS                       *
               *           SCF CONVERGED AFTER 257 CYCLES          *
               *****************************************************


----------------
TOTAL SCF ENERGY
----------------

Total Energy       :        -3217.50027443 Eh          -87552.63356 eV

Components:
Nuclear Repulsion  :         6955.13663209 Eh          189258.88950 eV
Electronic Energy  :       -10172.63690652 Eh         -276811.52305 eV
One Electron Energy:       -19152.20473372 Eh         -521157.98596 eV
Two Electron Energy:         8979.56782720 Eh          244346.46291 eV

Virial components:
Potential Energy   :        -4992.84692481 Eh         -135862.27193 eV
Kinetic Energy     :         1775.34665038 Eh           48309.63837 eV
Virial Ratio       :            2.81232227


DFT components:
N(Alpha)           :      166.000040750862 electrons
N(Beta)            :      162.000048240192 electrons
N(Total)           :      328.000088991054 electrons
E(X)               :     -240.303080886297 Eh       
E(C)               :      -14.322150483025 Eh       
E(XC)              :     -254.625231369322 Eh       
DFET-embed. en.    :        0.000000000000 Eh       

---------------
SCF CONVERGENCE
---------------

  Last Energy change         ...   -9.4577e-08  Tolerance :   1.0000e-06
  Last Orbital Gradient      ...    4.6610e-06  Tolerance :   5.0000e-05
  Last Orbital Rotation      ...    1.0279e-03

             **** THE GBW FILE WAS UPDATED (pbeSP.gbw) ****
             **** DENSITY pbeSP.scfp WAS UPDATED ****
             **** ENERGY FILE WAS UPDATED (pbeSP.en.tmp) ****
----------------------
UHF SPIN CONTAMINATION
----------------------

Warning: in a DFT calculation there is little theoretical justification to 
         calculate <S**2> as in Hartree-Fock theory. We will do it anyways
         but you should keep in mind that the values have only limited relevance

Expectation value of <S**2>     :     6.250580
Ideal value S*(S+1) for S=2.0   :     6.000000
Deviation                       :     0.250580

             **** THE GBW FILE WAS UPDATED (pbeSP.gbw) ****
             **** DENSITY pbeSP.scfp WAS UPDATED ****
----------------
ORBITAL ENERGIES
----------------
                 SPIN UP ORBITALS
  NO   OCC          E(Eh)            E(eV) 
   0   1.0000    -214.489688     -5836.5611 
   1   1.0000     -24.289141      -660.9411 
   2   1.0000     -20.653522      -562.0109 
   3   1.0000     -20.652285      -561.9772 
   4   1.0000     -20.651292      -561.9502 
   5   1.0000      -4.035505      -109.8117 
   6   1.0000      -4.033247      -109.7502 
   7   1.0000      -4.033144      -109.7474 
   8   1.0000      -4.031973      -109.7156 
   9   1.0000      -4.031892      -109.7134 
  10   1.0000      -4.031259      -109.6961 
  11   1.0000      -4.030950      -109.6877 
  12   1.0000      -4.029249      -109.6414 
  13   1.0000      -4.029078      -109.6368 
  14   1.0000      -4.028588      -109.6234 
  15   1.0000      -4.028500      -109.6211 
  16   1.0000      -4.023961      -109.4975 
  17   1.0000      -4.021224      -109.4231 
  18   1.0000      -4.020963      -109.4160 
  19   1.0000      -4.019832      -109.3852 
  20   1.0000      -4.019669      -109.3807 
  21   1.0000      -2.796542       -76.0978 
  22   1.0000      -2.251214       -61.2586 
  23   1.0000      -2.250171       -61.2303 
  24   1.0000      -2.250106       -61.2285 
  25   1.0000      -2.248683       -61.1898 
  26   1.0000      -2.248419       -61.1826 
  27   1.0000      -2.248339       -61.1804 
  28   1.0000      -2.246938       -61.1423 
  29   1.0000      -2.246382       -61.1272 
  30   1.0000      -2.246102       -61.1196 
  31   1.0000      -2.245470       -61.1023 
  32   1.0000      -2.245360       -61.0994 
  33   1.0000      -2.245321       -61.0983 
  34   1.0000      -2.244953       -61.0883 
  35   1.0000      -2.244708       -61.0816 
  36   1.0000      -2.244539       -61.0770 
  37   1.0000      -2.244126       -61.0658 
  38   1.0000      -2.243849       -61.0582 
  39   1.0000      -2.243666       -61.0533 
  40   1.0000      -2.243384       -61.0456 
  41   1.0000      -2.242902       -61.0325 
  42   1.0000      -2.242759       -61.0286 
  43   1.0000      -2.242426       -61.0195 
  44   1.0000      -2.242154       -61.0121 
  45   1.0000      -2.241772       -61.0017 
  46   1.0000      -2.241689       -60.9995 
  47   1.0000      -2.241561       -60.9960 
  48   1.0000      -2.241436       -60.9926 
  49   1.0000      -2.241002       -60.9808 
  50   1.0000      -2.240894       -60.9778 
  51   1.0000      -2.240506       -60.9673 
  52   1.0000      -2.240294       -60.9615 
  53   1.0000      -2.239210       -60.9320 
  54   1.0000      -2.238708       -60.9184 
  55   1.0000      -2.238004       -60.8992 
  56   1.0000      -2.237771       -60.8928 
  57   1.0000      -2.236911       -60.8695 
  58   1.0000      -2.236310       -60.8531 
  59   1.0000      -2.236162       -60.8490 
  60   1.0000      -2.235744       -60.8377 
  61   1.0000      -2.235290       -60.8253 
  62   1.0000      -2.234948       -60.8160 
  63   1.0000      -2.234098       -60.7929 
  64   1.0000      -2.233043       -60.7642 
  65   1.0000      -2.231498       -60.7221 
  66   1.0000      -2.231063       -60.7103 
  67   1.0000      -2.229810       -60.6762 
  68   1.0000      -2.228292       -60.6349 
  69   1.0000      -2.226556       -60.5877 
  70   1.0000      -1.787537       -48.6414 
  71   1.0000      -1.786379       -48.6098 
  72   1.0000      -1.785929       -48.5976 
  73   1.0000      -0.434595       -11.8259 
  74   1.0000      -0.394659       -10.7392 
  75   1.0000      -0.389506       -10.5990 
  76   1.0000      -0.388703       -10.5771 
  77   1.0000      -0.378427       -10.2975 
  78   1.0000      -0.374373       -10.1872 
  79   1.0000      -0.372941       -10.1482 
  80   1.0000      -0.368138       -10.0176 
  81   1.0000      -0.367908       -10.0113 
  82   1.0000      -0.362471        -9.8633 
  83   1.0000      -0.362277        -9.8581 
  84   1.0000      -0.358352        -9.7512 
  85   1.0000      -0.357521        -9.7286 
  86   1.0000      -0.356228        -9.6935 
  87   1.0000      -0.355805        -9.6819 
  88   1.0000      -0.352351        -9.5880 
  89   1.0000      -0.348161        -9.4740 
  90   1.0000      -0.346092        -9.4176 
  91   1.0000      -0.346015        -9.4156 
  92   1.0000      -0.345934        -9.4133 
  93   1.0000      -0.343971        -9.3599 
  94   1.0000      -0.340945        -9.2776 
  95   1.0000      -0.339694        -9.2435 
  96   1.0000      -0.339012        -9.2250 
  97   1.0000      -0.335500        -9.1294 
  98   1.0000      -0.335470        -9.1286 
  99   1.0000      -0.333922        -9.0865 
 100   1.0000      -0.332311        -9.0427 
 101   1.0000      -0.330638        -8.9971 
 102   1.0000      -0.326930        -8.8962 
 103   1.0000      -0.326681        -8.8894 
 104   1.0000      -0.320656        -8.7255 
 105   1.0000      -0.319028        -8.6812 
 106   1.0000      -0.317648        -8.6436 
 107   1.0000      -0.312974        -8.5165 
 108   1.0000      -0.312011        -8.4903 
 109   1.0000      -0.310965        -8.4618 
 110   1.0000      -0.305671        -8.3177 
 111   1.0000      -0.303845        -8.2680 
 112   1.0000      -0.302969        -8.2442 
 113   1.0000      -0.301313        -8.1991 
 114   1.0000      -0.298021        -8.1096 
 115   1.0000      -0.296607        -8.0711 
 116   1.0000      -0.291817        -7.9407 
 117   1.0000      -0.290988        -7.9182 
 118   1.0000      -0.290128        -7.8948 
 119   1.0000      -0.289141        -7.8679 
 120   1.0000      -0.286756        -7.8030 
 121   1.0000      -0.286572        -7.7980 
 122   1.0000      -0.285409        -7.7664 
 123   1.0000      -0.282160        -7.6780 
 124   1.0000      -0.279263        -7.5991 
 125   1.0000      -0.277673        -7.5559 
 126   1.0000      -0.277098        -7.5402 
 127   1.0000      -0.275994        -7.5102 
 128   1.0000      -0.275747        -7.5035 
 129   1.0000      -0.273140        -7.4325 
 130   1.0000      -0.271916        -7.3992 
 131   1.0000      -0.271854        -7.3975 
 132   1.0000      -0.270651        -7.3648 
 133   1.0000      -0.268739        -7.3128 
 134   1.0000      -0.265619        -7.2279 
 135   1.0000      -0.265124        -7.2144 
 136   1.0000      -0.264034        -7.1847 
 137   1.0000      -0.263630        -7.1737 
 138   1.0000      -0.263447        -7.1688 
 139   1.0000      -0.262085        -7.1317 
 140   1.0000      -0.259212        -7.0535 
 141   1.0000      -0.258891        -7.0448 
 142   1.0000      -0.256519        -6.9802 
 143   1.0000      -0.253983        -6.9112 
 144   1.0000      -0.253018        -6.8850 
 145   1.0000      -0.251995        -6.8571 
 146   1.0000      -0.251951        -6.8559 
 147   1.0000      -0.251008        -6.8303 
 148   1.0000      -0.250149        -6.8069 
 149   1.0000      -0.249349        -6.7851 
 150   1.0000      -0.247528        -6.7356 
 151   1.0000      -0.245980        -6.6935 
 152   1.0000      -0.243330        -6.6214 
 153   1.0000      -0.242519        -6.5993 
 154   1.0000      -0.239116        -6.5067 
 155   1.0000      -0.236335        -6.4310 
 156   1.0000      -0.235629        -6.4118 
 157   1.0000      -0.229512        -6.2453 
 158   1.0000      -0.221446        -6.0258 
 159   1.0000      -0.220462        -5.9991 
 160   1.0000      -0.215606        -5.8669 
 161   1.0000      -0.213182        -5.8010 
 162   1.0000      -0.207416        -5.6441 
 163   1.0000      -0.195314        -5.3148 
 164   1.0000      -0.193618        -5.2686 
 165   1.0000      -0.179769        -4.8918 
 166   0.0000      -0.173779        -4.7288 
 167   0.0000      -0.171773        -4.6742 
 168   0.0000      -0.141968        -3.8631 
 169   0.0000      -0.141889        -3.8610 
 170   0.0000      -0.129404        -3.5213 
 171   0.0000      -0.125479        -3.4145 
 172   0.0000      -0.124586        -3.3901 
 173   0.0000      -0.105517        -2.8713 
 174   0.0000      -0.103814        -2.8249 
 175   0.0000      -0.073724        -2.0061 
 176   0.0000      -0.070718        -1.9243 
 177   0.0000      -0.061163        -1.6643 
 178   0.0000      -0.060968        -1.6590 
 179   0.0000      -0.051828        -1.4103 
 180   0.0000      -0.046349        -1.2612 
 181   0.0000      -0.033631        -0.9152 
 182   0.0000      -0.032790        -0.8923 
 183   0.0000      -0.029461        -0.8017 
 184   0.0000      -0.020626        -0.5613 
 185   0.0000      -0.016227        -0.4416 
 186   0.0000      -0.006285        -0.1710 
 187   0.0000      -0.002852        -0.0776 
 188   0.0000       0.009119         0.2481 
 189   0.0000       0.019858         0.5404 
 190   0.0000       0.028557         0.7771 
 191   0.0000       0.040906         1.1131 
 192   0.0000       0.041388         1.1262 
 193   0.0000       0.041978         1.1423 
 194   0.0000       0.043558         1.1853 
 195   0.0000       0.048331         1.3151 
 196   0.0000       0.055599         1.5129 
 197   0.0000       0.060093         1.6352 
 198   0.0000       0.060284         1.6404 
 199   0.0000       0.064186         1.7466 
 200   0.0000       0.064285         1.7493 
 201   0.0000       0.065843         1.7917 
 202   0.0000       0.074426         2.0252 
 203   0.0000       0.074484         2.0268 
 204   0.0000       0.077367         2.1052 
 205   0.0000       0.081596         2.2203 
 206   0.0000       0.081945         2.2298 
 207   0.0000       0.084980         2.3124 
 208   0.0000       0.088239         2.4011 
 209   0.0000       0.095369         2.5951 
 210   0.0000       0.099342         2.7032 
 211   0.0000       0.106664         2.9025 
 212   0.0000       0.112782         3.0689 
 213   0.0000       0.113105         3.0777 
 214   0.0000       0.123037         3.3480 
 215   0.0000       0.124306         3.3825 
 216   0.0000       0.129373         3.5204 
 217   0.0000       0.133601         3.6355 
 218   0.0000       0.134450         3.6586 
 219   0.0000       0.135714         3.6930 
 220   0.0000       0.139282         3.7901 
 221   0.0000       0.142391         3.8746 
 222   0.0000       0.153011         4.1636 
 223   0.0000       0.156299         4.2531 
 224   0.0000       0.157097         4.2748 
 225   0.0000       0.164444         4.4748 
 226   0.0000       0.166283         4.5248 
 227   0.0000       0.169560         4.6140 
 228   0.0000       0.175201         4.7675 
 229   0.0000       0.175706         4.7812 
 230   0.0000       0.182765         4.9733 
 231   0.0000       0.189262         5.1501 
 232   0.0000       0.191483         5.2105 
 233   0.0000       0.199238         5.4215 
 234   0.0000       0.200397         5.4531 
 235   0.0000       0.205227         5.5845 
 236   0.0000       0.207142         5.6366 
 237   0.0000       0.210076         5.7165 
 238   0.0000       0.214442         5.8353 
 239   0.0000       0.215585         5.8664 
 240   0.0000       0.218284         5.9398 
 241   0.0000       0.226036         6.1508 
 242   0.0000       0.226790         6.1713 
 243   0.0000       0.227657         6.1949 
 244   0.0000       0.235583         6.4105 
 245   0.0000       0.238661         6.4943 
 246   0.0000       0.240948         6.5565 
 247   0.0000       0.243954         6.6383 
 248   0.0000       0.248733         6.7684 
 249   0.0000       0.255088         6.9413 
 250   0.0000       0.265032         7.2119 
 251   0.0000       0.268585         7.3086 
 252   0.0000       0.276249         7.5171 
 253   0.0000       0.277788         7.5590 
 254   0.0000       0.278759         7.5854 
 255   0.0000       0.279563         7.6073 
 256   0.0000       0.289805         7.8860 
 257   0.0000       0.290580         7.9071 
 258   0.0000       0.291563         7.9338 
 259   0.0000       0.299361         8.1460 
 260   0.0000       0.308053         8.3825 
 261   0.0000       0.313663         8.5352 
 262   0.0000       0.318152         8.6574 
 263   0.0000       0.322744         8.7823 
 264   0.0000       0.323079         8.7914 
 265   0.0000       0.327635         8.9154 
 266   0.0000       0.329823         8.9749 
 267   0.0000       0.337428         9.1819 
 268   0.0000       0.341118         9.2823 
 269   0.0000       0.341981         9.3058 
 270   0.0000       0.346671         9.4334 
 271   0.0000       0.353653         9.6234 
 272   0.0000       0.357528         9.7288 
 273   0.0000       0.361966         9.8496 
 274   0.0000       0.364603         9.9213 
 275   0.0000       0.370855        10.0915 
 276   0.0000       0.372662        10.1407 
 277   0.0000       0.375015        10.2047 
 278   0.0000       0.377419        10.2701 
 279   0.0000       0.381460        10.3801 
 280   0.0000       0.384296        10.4572 
 281   0.0000       0.392890        10.6911 
 282   0.0000       0.399822        10.8797 
 283   0.0000       0.402663        10.9570 
 284   0.0000       0.406973        11.0743 
 285   0.0000       0.418250        11.3812 
 286   0.0000       0.421555        11.4711 
 287   0.0000       0.426308        11.6004 
 288   0.0000       0.426450        11.6043 
 289   0.0000       0.434431        11.8215 
 290   0.0000       0.437446        11.9035 
 291   0.0000       0.440212        11.9788 
 292   0.0000       0.442470        12.0402 
 293   0.0000       0.446972        12.1627 
 294   0.0000       0.450504        12.2588 
 295   0.0000       0.454104        12.3568 
 296   0.0000       0.456038        12.4094 
 297   0.0000       0.457780        12.4568 
 298   0.0000       0.464087        12.6285 
 299   0.0000       0.465069        12.6552 
 300   0.0000       0.473010        12.8712 
 301   0.0000       0.474443        12.9102 
 302   0.0000       0.480342        13.0708 
 303   0.0000       0.480842        13.0844 
 304   0.0000       0.487293        13.2599 
 305   0.0000       0.492922        13.4131 
 306   0.0000       0.494694        13.4613 
 307   0.0000       0.499257        13.5855 
 308   0.0000       0.500381        13.6161 
 309   0.0000       0.504654        13.7323 
 310   0.0000       0.512392        13.9429 
 311   0.0000       0.513738        13.9795 
 312   0.0000       0.516126        14.0445 
 313   0.0000       0.524673        14.2771 
 314   0.0000       0.526544        14.3280 
 315   0.0000       0.529150        14.3989 
 316   0.0000       0.533819        14.5259 
 317   0.0000       0.534206        14.5365 
 318   0.0000       0.537064        14.6143 
 319   0.0000       0.543309        14.7842 
 320   0.0000       0.546217        14.8633 
 321   0.0000       0.547804        14.9065 
 322   0.0000       0.552649        15.0383 
 323   0.0000       0.553235        15.0543 
 324   0.0000       0.558431        15.1957 
 325   0.0000       0.563601        15.3364 
 326   0.0000       0.565301        15.3826 
 327   0.0000       0.566435        15.4135 
 328   0.0000       0.569845        15.5063 
 329   0.0000       0.575049        15.6479 
 330   0.0000       0.588069        16.0022 
 331   0.0000       0.602813        16.4034 
 332   0.0000       0.617678        16.8079 
 333   0.0000       0.659915        17.9572 
 334   0.0000       0.673559        18.3285 
 335   0.0000       0.677189        18.4272 
 336   0.0000       0.683742        18.6056 
 337   0.0000       0.689177        18.7535 
 338   0.0000       0.690214        18.7817 
 339   0.0000       0.720768        19.6131 
 340   0.0000       0.725592        19.7443 
 341   0.0000       0.735141        20.0042 
 342   0.0000       0.737105        20.0577 
 343   0.0000       0.744759        20.2659 
 344   0.0000       0.750290        20.4164 
 345   0.0000       0.761463        20.7205 
 346   0.0000       0.770518        20.9669 
 347   0.0000       0.778946        21.1962 
 348   0.0000       0.794387        21.6164 
 349   0.0000       0.796919        21.6853 
 350   0.0000       0.803969        21.8771 
 351   0.0000       0.815504        22.1910 
 352   0.0000       0.818789        22.2804 
 353   0.0000       0.826019        22.4771 
 354   0.0000       0.849477        23.1155 
 355   0.0000       0.853505        23.2250 
 356   0.0000       0.858795        23.3690 
 357   0.0000       0.873855        23.7788 
 358   0.0000       0.878411        23.9028 
 359   0.0000       0.887415        24.1478 
 360   0.0000       0.889581        24.2067 
 361   0.0000       0.890330        24.2271 
 362   0.0000       0.893999        24.3270 
 363   0.0000       0.894890        24.3512 
 364   0.0000       0.900702        24.5093 
 365   0.0000       0.902656        24.5625 
 366   0.0000       0.919053        25.0087 
 367   0.0000       0.937397        25.5079 
 368   0.0000       0.946170        25.7466 
 369   0.0000       0.959396        26.1065 
 370   0.0000       0.977842        26.6084 
 371   0.0000       0.989442        26.9241 
 372   0.0000       0.995046        27.0766 
 373   0.0000       1.002614        27.2825 
 374   0.0000       1.021059        27.7844 
 375   0.0000       1.059300        28.8250 
 376   0.0000       1.098141        29.8819 
 377   0.0000       1.153508        31.3885 
 378   0.0000       1.161684        31.6110 
 379   0.0000       1.179285        32.0900 
 380   0.0000       1.199227        32.6326 
 381   0.0000       1.215640        33.0793 
 382   0.0000       1.220032        33.1988 
 383   0.0000       1.234142        33.5827 
 384   0.0000       1.239480        33.7280 
 385   0.0000       1.249226        33.9932 
 386   0.0000       1.255143        34.1542 
 387   0.0000       1.260704        34.3055 
 388   0.0000       1.279408        34.8145 
 389   0.0000       1.284853        34.9626 
 390   0.0000       1.290588        35.1187 
 391   0.0000       1.297430        35.3049 
 392   0.0000       1.299857        35.3709 
 393   0.0000       1.302088        35.4316 
 394   0.0000       1.306512        35.5520 
 395   0.0000       1.314869        35.7794 
 396   0.0000       1.323273        36.0081 
 397   0.0000       1.330609        36.2077 
 398   0.0000       1.331142        36.2222 
 399   0.0000       1.342218        36.5236 
 400   0.0000       1.352094        36.7923 
 401   0.0000       1.356819        36.9209 
 402   0.0000       1.360643        37.0250 
 403   0.0000       1.369282        37.2601 
 404   0.0000       1.371450        37.3191 
 405   0.0000       1.377674        37.4884 
 406   0.0000       1.382609        37.6227 
 407   0.0000       1.388948        37.7952 
 408   0.0000       1.392853        37.9014 
 409   0.0000       1.398310        38.0500 
 410   0.0000       1.398897        38.0659 
 411   0.0000       1.402421        38.1618 
 412   0.0000       1.405672        38.2503 
 413   0.0000       1.406999        38.2864 
 414   0.0000       1.409894        38.3652 
 415   0.0000       1.414078        38.4790 
 416   0.0000       1.417652        38.5763 
 417   0.0000       1.419767        38.6338 
 418   0.0000       1.420427        38.6518 
 419   0.0000       1.426430        38.8151 
 420   0.0000       1.430840        38.9351 
 421   0.0000       1.435883        39.0724 
 422   0.0000       1.439190        39.1623 
 423   0.0000       1.441270        39.2190 
 424   0.0000       1.443200        39.2715 
 425   0.0000       1.445555        39.3356 
 426   0.0000       1.447011        39.3752 
 427   0.0000       1.450564        39.4718 
 428   0.0000       1.451937        39.5092 
 429   0.0000       1.456699        39.6388 
 430   0.0000       1.456949        39.6456 
 431   0.0000       1.460074        39.7306 
 432   0.0000       1.464359        39.8472 
 433   0.0000       1.465329        39.8736 
 434   0.0000       1.467200        39.9245 
 435   0.0000       1.470052        40.0021 
 436   0.0000       1.471755        40.0485 
 437   0.0000       1.473001        40.0824 
 438   0.0000       1.475464        40.1494 
 439   0.0000       1.478327        40.2273 
 440   0.0000       1.479533        40.2601 
 441   0.0000       1.480758        40.2935 
 442   0.0000       1.482094        40.3298 
 443   0.0000       1.482835        40.3500 
 444   0.0000       1.483252        40.3613 
 445   0.0000       1.485729        40.4288 
 446   0.0000       1.486410        40.4473 
 447   0.0000       1.489454        40.5301 
 448   0.0000       1.490529        40.5594 
 449   0.0000       1.490744        40.5652 
 450   0.0000       1.492989        40.6263 
 451   0.0000       1.493104        40.6294 
 452   0.0000       1.496104        40.7111 
 453   0.0000       1.496477        40.7212 
 454   0.0000       1.496633        40.7255 
 455   0.0000       1.499474        40.8027 
 456   0.0000       1.499727        40.8097 
 457   0.0000       1.501026        40.8450 
 458   0.0000       1.501930        40.8696 
 459   0.0000       1.504052        40.9273 
 460   0.0000       1.504429        40.9376 
 461   0.0000       1.507020        41.0081 
 462   0.0000       1.507469        41.0203 
 463   0.0000       1.508000        41.0348 
 464   0.0000       1.508801        41.0566 
 465   0.0000       1.512330        41.1526 
 466   0.0000       1.513811        41.1929 
 467   0.0000       1.515356        41.2349 
[...]
      f+2     :     0.000758
      f-2     :     0.000760
      f+3     :     0.000926
      f-3     :     0.000828
 10 Aus       :     2.483945  s :     2.483945
      pz      :     2.130323  p :     6.552378
      px      :     2.220331
      py      :     2.201723
      dz2     :     1.985978  d :     9.879029
      dxz     :     1.952392
      dyz     :     1.981820
      dx2y2   :     1.974681
      dxy     :     1.984158
      f0      :     0.000689  f :     0.006685
      f+1     :     0.000860
      f-1     :     0.000813
      f+2     :     0.001418
      f-2     :     0.000872
      f+3     :     0.001032
      f-3     :     0.001000
 11 Aus       :     2.517129  s :     2.517129
      pz      :     2.137125  p :     6.462836
      px      :     2.174697
      py      :     2.151015
      dz2     :     1.993022  d :     9.863958
      dxz     :     1.960904
      dyz     :     1.956402
      dx2y2   :     1.981850
      dxy     :     1.971780
      f0      :     0.000812  f :     0.005663
      f+1     :     0.000961
      f-1     :     0.000864
      f+2     :     0.000729
      f-2     :     0.000683
      f+3     :     0.000933
      f-3     :     0.000681
 12 Aus       :     2.518183  s :     2.518183
      pz      :     2.099501  p :     6.456999
      px      :     2.173211
      py      :     2.184288
      dz2     :     1.953872  d :     9.876751
      dxz     :     1.987197
      dyz     :     1.991530
      dx2y2   :     1.966313
      dxy     :     1.977838
      f0      :     0.000763  f :     0.005445
      f+1     :     0.000768
      f-1     :     0.000794
      f+2     :     0.000969
      f-2     :     0.000781
      f+3     :     0.000773
      f-3     :     0.000596
 13 Aus       :     2.545898  s :     2.545898
      pz      :     2.167391  p :     6.459929
      px      :     2.147763
      py      :     2.144775
      dz2     :     1.982991  d :     9.879205
      dxz     :     1.971654
      dyz     :     1.970105
      dx2y2   :     1.996270
      dxy     :     1.958185
      f0      :     0.000855  f :     0.005007
      f+1     :     0.000578
      f-1     :     0.000597
      f+2     :     0.000769
      f-2     :     0.000693
      f+3     :     0.000843
      f-3     :     0.000671
 14 Aus       :     2.527494  s :     2.527494
      pz      :     2.176910  p :     6.454008
      px      :     2.095974
      py      :     2.181124
      dz2     :     1.963364  d :     9.880667
      dxz     :     1.997187
      dyz     :     1.973786
      dx2y2   :     1.968602
      dxy     :     1.977729
      f0      :     0.000538  f :     0.005300
      f+1     :     0.000986
      f-1     :     0.000630
      f+2     :     0.000768
      f-2     :     0.000757
      f+3     :     0.000764
      f-3     :     0.000857
 15 Aus       :     2.504359  s :     2.504359
      pz      :     2.171059  p :     6.512189
      px      :     2.220137
      py      :     2.120993
      dz2     :     1.973969  d :     9.862942
      dxz     :     1.979693
      dyz     :     1.984930
      dx2y2   :     1.950556
      dxy     :     1.973794
      f0      :     0.000811  f :     0.006522
      f+1     :     0.000776
      f-1     :     0.000920
      f+2     :     0.000992
      f-2     :     0.000770
      f+3     :     0.001027
      f-3     :     0.001226
 16 Crs       :     6.235945  s :     6.235945
      pz      :     4.198594  p :    12.567090
      px      :     4.178225
      py      :     4.190272
      dz2     :     1.323296  d :     6.570112
      dxz     :     1.322001
      dyz     :     1.268385
      dx2y2   :     1.360670
      dxy     :     1.295759
      f0      :     0.000286  f :     0.001932
      f+1     :     0.000286
      f-1     :     0.000285
      f+2     :     0.000228
      f-2     :     0.000323
      f+3     :     0.000217
      f-3     :     0.000307

SPIN
  0 Aus       :    -0.025114  s :    -0.025114
      pz      :    -0.021759  p :    -0.034508
      px      :     0.006045
      py      :    -0.018794
      dz2     :     0.004348  d :     0.028339
      dxz     :     0.005941
      dyz     :    -0.001316
      dx2y2   :     0.003727
      dxy     :     0.015639
      f0      :    -0.000069  f :     0.000173
      f+1     :     0.000044
      f-1     :     0.000015
      f+2     :     0.000013
      f-2     :    -0.000006
      f+3     :     0.000044
      f-3     :     0.000132
  1 Aus       :    -0.002094  s :    -0.002094
      pz      :    -0.001014  p :    -0.028937
      px      :    -0.019604
      py      :    -0.008319
      dz2     :    -0.004710  d :    -0.019060
      dxz     :     0.000617
      dyz     :     0.000239
      dx2y2   :    -0.007855
      dxy     :    -0.007351
      f0      :    -0.000009  f :    -0.000052
      f+1     :    -0.000009
      f-1     :    -0.000008
      f+2     :     0.000001
      f-2     :    -0.000003
      f+3     :    -0.000022
      f-3     :    -0.000003
  2 Aus       :     0.013096  s :     0.013096
      pz      :     0.002900  p :    -0.009159
      px      :     0.001945
      py      :    -0.014004
      dz2     :    -0.003834  d :    -0.019216
      dxz     :    -0.000778
      dyz     :    -0.000461
      dx2y2   :    -0.007369
      dxy     :    -0.006773
      f0      :    -0.000015  f :    -0.000024
      f+1     :    -0.000001
      f-1     :     0.000002
      f+2     :     0.000001
      f-2     :     0.000004
      f+3     :     0.000003
      f-3     :    -0.000016
  3 Aus       :    -0.130248  s :    -0.130248
      pz      :     0.006332  p :     0.000199
      px      :    -0.003756
      py      :    -0.002378
      dz2     :     0.000852  d :     0.005860
      dxz     :     0.000931
      dyz     :     0.001895
      dx2y2   :     0.003144
      dxy     :    -0.000962
      f0      :    -0.000005  f :     0.000014
      f+1     :     0.000006
      f-1     :     0.000009
      f+2     :     0.000003
      f-2     :    -0.000001
      f+3     :    -0.000007
      f-3     :     0.000008
  4 Aus       :    -0.047247  s :    -0.047247
      pz      :    -0.014735  p :    -0.048348
      px      :    -0.013220
      py      :    -0.020393
      dz2     :     0.001593  d :     0.008345
      dxz     :     0.004870
      dyz     :     0.003214
      dx2y2   :    -0.002498
      dxy     :     0.001166
      f0      :     0.000046  f :     0.000367
      f+1     :     0.000045
      f-1     :     0.000080
      f+2     :     0.000001
      f-2     :     0.000133
      f+3     :     0.000020
      f-3     :     0.000042
  5 Aus       :    -0.032163  s :    -0.032163
      pz      :     0.000629  p :    -0.036662
      px      :    -0.013487
      py      :    -0.023804
      dz2     :     0.011405  d :     0.025010
      dxz     :     0.005775
      dyz     :     0.008394
      dx2y2   :     0.001826
      dxy     :    -0.002391
      f0      :     0.000162  f :     0.000341
      f+1     :     0.000092
      f-1     :     0.000154
      f+2     :     0.000001
      f-2     :     0.000012
      f+3     :    -0.000060
      f-3     :    -0.000020
  6 Aus       :    -0.048160  s :    -0.048160
      pz      :    -0.027745  p :    -0.053185
      px      :    -0.022462
      py      :    -0.002978
      dz2     :     0.003010  d :    -0.002455
      dxz     :    -0.010712
      dyz     :     0.002123
      dx2y2   :    -0.000547
      dxy     :     0.003672
      f0      :     0.000039  f :     0.000389
      f+1     :    -0.000011
      f-1     :     0.000066
      f+2     :     0.000075
      f-2     :    -0.000002
      f+3     :     0.000071
      f-3     :     0.000151
  7 Aus       :    -0.037760  s :    -0.037760
      pz      :    -0.022651  p :    -0.044566
      px      :    -0.005475
      py      :    -0.016440
      dz2     :    -0.002679  d :     0.003391
      dxz     :     0.005073
      dyz     :    -0.000682
      dx2y2   :     0.001083
      dxy     :     0.000596
      f0      :     0.000027  f :     0.000409
      f+1     :     0.000087
      f-1     :     0.000021
      f+2     :     0.000067
      f-2     :     0.000145
      f+3     :     0.000017
      f-3     :     0.000045
  8 Aus       :    -0.002770  s :    -0.002770
      pz      :    -0.013683  p :    -0.029351
      px      :    -0.012090
      py      :    -0.003578
      dz2     :     0.001730  d :    -0.019091
      dxz     :    -0.017420
      dyz     :    -0.001848
      dx2y2   :    -0.002264
      dxy     :     0.000711
      f0      :    -0.000000  f :    -0.000050
      f+1     :    -0.000025
      f-1     :    -0.000001
      f+2     :    -0.000015
      f-2     :    -0.000007
      f+3     :    -0.000009
      f-3     :     0.000007
  9 Aus       :     0.012933  s :     0.012933
      pz      :    -0.006624  p :    -0.009748
      px      :     0.002105
      py      :    -0.005229
      dz2     :    -0.000109  d :    -0.019628
      dxz     :    -0.001469
      dyz     :    -0.014004
      dx2y2   :    -0.001392
      dxy     :    -0.002654
      f0      :     0.000011  f :    -0.000025
      f+1     :    -0.000000
      f-1     :    -0.000023
      f+2     :     0.000003
      f-2     :    -0.000012
      f+3     :     0.000005
      f-3     :    -0.000009
 10 Aus       :    -0.032439  s :    -0.032439
      pz      :    -0.013603  p :    -0.036784
      px      :    -0.003999
      py      :    -0.019182
      dz2     :     0.005866  d :     0.024801
      dxz     :     0.008251
      dyz     :     0.004147
      dx2y2   :     0.004716
      dxy     :     0.001821
      f0      :     0.000008  f :     0.000345
      f+1     :     0.000127
      f-1     :     0.000044
      f+2     :     0.000053
      f-2     :     0.000117
      f+3     :    -0.000008
      f-3     :     0.000002
 11 Aus       :    -0.048113  s :    -0.048113
      pz      :    -0.012338  p :    -0.052824
      px      :    -0.022357
      py      :    -0.018129
      dz2     :    -0.001790  d :    -0.002188
      dxz     :     0.002846
      dyz     :     0.003307
      dx2y2   :    -0.005538
      dxy     :    -0.001013
      f0      :     0.000018  f :     0.000393
      f+1     :     0.000059
      f-1     :     0.000106
      f+2     :     0.000062
      f-2     :     0.000131
      f+3     :    -0.000002
      f-3     :     0.000017
 12 Aus       :    -0.037396  s :    -0.037396
      pz      :    -0.004683  p :    -0.044380
      px      :    -0.014534
      py      :    -0.025163
      dz2     :     0.007605  d :     0.003302
      dxz     :     0.004310
      dyz     :     0.002809
      dx2y2   :    -0.001837
      dxy     :    -0.009585
      f0      :     0.000183  f :     0.000406
      f+1     :     0.000117
      f-1     :     0.000100
      f+2     :     0.000017
      f-2     :    -0.000006
      f+3     :     0.000001
      f-3     :    -0.000005
 13 Aus       :    -0.124307  s :    -0.124307
      pz      :    -0.007778  p :    -0.029927
      px      :    -0.013048
      py      :    -0.009101
      dz2     :    -0.001312  d :     0.009862
      dxz     :     0.000806
      dyz     :     0.002725
      dx2y2   :     0.003792
      dxy     :     0.003852
      f0      :     0.000050  f :     0.000410
      f+1     :     0.000019
      f-1     :     0.000021
      f+2     :     0.000023
      f-2     :     0.000151
      f+3     :     0.000077
      f-3     :     0.000068
 14 Aus       :    -0.022429  s :    -0.022429
      pz      :    -0.015222  p :    -0.043059
      px      :     0.001922
      py      :    -0.029759
      dz2     :    -0.000204  d :     0.004763
      dxz     :     0.002559
      dyz     :    -0.005032
      dx2y2   :     0.001681
      dxy     :     0.005759
      f0      :     0.000027  f :     0.000391
      f+1     :     0.000101
      f-1     :     0.000008
      f+2     :     0.000011
      f-2     :     0.000002
      f+3     :     0.000081
      f-3     :     0.000162
 15 Aus       :    -0.047492  s :    -0.047492
      pz      :    -0.024327  p :    -0.048951
      px      :    -0.017559
      py      :    -0.007065
      dz2     :     0.000876  d :     0.007789
      dxz     :    -0.004016
      dyz     :     0.003368
      dx2y2   :     0.001102
      dxy     :     0.006459
      f0      :     0.000026  f :     0.000365
      f+1     :    -0.000027
      f-1     :     0.000062
      f+2     :     0.000082
      f-2     :     0.000043
      f+3     :     0.000096
      f-3     :     0.000082
 16 Crs       :     0.016091  s :     0.016091
      pz      :     0.012576  p :     0.038333
      px      :     0.012931
      py      :     0.012826
      dz2     :     0.591892  d :     3.063734
      dxz     :     0.656216
      dyz     :     0.503938
      dx2y2   :     0.733452
      dxy     :     0.578237
      f0      :     0.000011  f :     0.000059
      f+1     :     0.000010
      f-1     :     0.000013
      f+2     :     0.000009
      f-2     :     0.000005
      f+3     :     0.000001
      f-3     :     0.000010


                      *****************************
                      * MAYER POPULATION ANALYSIS *
                      *****************************

  NA   - Mulliken gross atomic population
  ZA   - Total nuclear charge
  QA   - Mulliken gross atomic charge
  VA   - Mayer's total valence
  BVA  - Mayer's bonded valence
  FA   - Mayer's free valence

  ATOM       NA         ZA         QA         VA         BVA        FA
  0 Au    18.9212    19.0000     0.0788     2.0769     2.0750     0.0019
  1 Au    18.9987    19.0000     0.0013     1.9306     1.9288     0.0018
  2 Au    18.7418    19.0000     0.2582     1.6181     1.6155     0.0026
  3 Au    18.6507    19.0000     0.3493     1.5462     1.5015     0.0447
  4 Au    18.5496    19.0000     0.4504     1.9377     1.9328     0.0048
  5 Au    18.8130    19.0000     0.1870     2.0938     2.0909     0.0029
  6 Au    18.3790    19.0000     0.6210     1.7472     1.7437     0.0035
  7 Au    18.3659    19.0000     0.6341     1.6675     1.6654     0.0020
  8 Au    18.9983    19.0000     0.0017     1.9313     1.9295     0.0018
  9 Au    18.7506    19.0000     0.2494     1.6274     1.6248     0.0026
 10 Au    18.8077    19.0000     0.1923     2.0917     2.0888     0.0029
 11 Au    18.3780    19.0000     0.6220     1.7491     1.7456     0.0035
 12 Au    18.3670    19.0000     0.6330     1.6650     1.6629     0.0020
 13 Au    18.6006    19.0000     0.3994     1.7119     1.6758     0.0361
 14 Au    18.4008    19.0000     0.5992     1.6352     1.6335     0.0017
 15 Au    18.5465    19.0000     0.4535     1.9319     1.9271     0.0049
 16 Cr    29.7307    24.0000    -5.7307    10.2672     7.4370     2.8302

  Mayer bond orders larger than 0.100000
B(  0-Au,  2-Au) :   0.2660 B(  0-Au,  5-Au) :   0.1419 B(  0-Au,  6-Au) :   0.1976 
B(  0-Au,  9-Au) :   0.2643 B(  0-Au, 10-Au) :   0.1381 B(  0-Au, 11-Au) :   0.1978 
B(  0-Au, 16-Cr) :   0.5109 B(  1-Au,  2-Au) :   0.2350 B(  1-Au,  3-Au) :   0.3340 
B(  1-Au,  4-Au) :   0.2882 B(  1-Au,  5-Au) :   0.2315 B(  1-Au,  8-Au) :   0.2803 
B(  1-Au, 16-Cr) :   0.3754 B(  2-Au,  3-Au) :   0.2123 B(  2-Au,  5-Au) :   0.2974 
B(  2-Au,  9-Au) :   0.2136 B(  2-Au, 16-Cr) :   0.2965 B(  3-Au,  8-Au) :   0.3319 
B(  3-Au,  9-Au) :   0.2209 B(  3-Au, 16-Cr) :   0.1192 B(  4-Au,  5-Au) :   0.1390 
B(  4-Au,  7-Au) :   0.1683 B(  4-Au, 11-Au) :   0.1003 B(  4-Au, 14-Au) :   0.2039 
B(  4-Au, 15-Au) :   0.2205 B(  4-Au, 16-Cr) :   0.5808 B(  5-Au,  6-Au) :   0.1544 
B(  5-Au,  7-Au) :   0.2197 B(  5-Au, 16-Cr) :   0.5620 B(  6-Au,  7-Au) :   0.1859 
B(  6-Au, 11-Au) :   0.1676 B(  6-Au, 13-Au) :   0.1880 B(  6-Au, 15-Au) :   0.1004 
B(  6-Au, 16-Cr) :   0.5909 B(  7-Au, 13-Au) :   0.1652 B(  7-Au, 14-Au) :   0.1533 
B(  7-Au, 16-Cr) :   0.5188 B(  8-Au,  9-Au) :   0.2351 B(  8-Au, 10-Au) :   0.2323 
B(  8-Au, 15-Au) :   0.2874 B(  8-Au, 16-Cr) :   0.3765 B(  9-Au, 10-Au) :   0.2950 
B(  9-Au, 16-Cr) :   0.3000 B( 10-Au, 11-Au) :   0.1560 B( 10-Au, 12-Au) :   0.2184 
B( 10-Au, 15-Au) :   0.1390 B( 10-Au, 16-Cr) :   0.5630 B( 11-Au, 12-Au) :   0.1864 
B( 11-Au, 13-Au) :   0.1865 B( 11-Au, 16-Cr) :   0.5926 B( 12-Au, 13-Au) :   0.1670 
B( 12-Au, 14-Au) :   0.1493 B( 12-Au, 15-Au) :   0.1714 B( 12-Au, 16-Cr) :   0.5166 
B( 13-Au, 14-Au) :   0.1823 B( 13-Au, 16-Cr) :   0.5047 B( 14-Au, 15-Au) :   0.2042 
B( 14-Au, 16-Cr) :   0.4524 B( 15-Au, 16-Cr) :   0.5766 

-------
TIMINGS
-------

Total SCF time: 0 days 1 hours 5 min 6 sec 

Total time                  ....    3906.784 sec
Sum of individual times     ....    3813.044 sec  ( 97.6%)

Fock matrix formation       ....    2047.700 sec  ( 52.4%)
  Split-RI-J                ....     776.857 sec  ( 37.9% of F)
  XC integration            ....    1012.753 sec  ( 49.5% of F)
    Basis function eval.    ....     109.085 sec  ( 10.8% of XC)
    Density eval.           ....     431.888 sec  ( 42.6% of XC)
    XC-Functional eval.     ....      15.898 sec  (  1.6% of XC)
    XC-Potential eval.      ....     333.103 sec  ( 32.9% of XC)
Diagonalization             ....     692.318 sec  ( 17.7%)
Density matrix formation    ....      45.978 sec  (  1.2%)
Population analysis         ....       3.500 sec  (  0.1%)
Initial guess               ....       1.008 sec  (  0.0%)
Orbital Transformation      ....     108.870 sec  (  2.8%)
Orbital Orthonormalization  ....       0.708 sec  (  0.0%)
DIIS solution               ....     905.584 sec  ( 23.2%)
Grid generation             ....       5.128 sec  (  0.1%)

Maximum memory used throughout the entire SCF-calculation: 133.3 MB

-------------------------   --------------------
FINAL SINGLE POINT ENERGY     -3217.501277795865
-------------------------   --------------------


                            ***************************************
                            *     ORCA property calculations      *
                            ***************************************

                                    ---------------------
                                    Active property flags
                                    ---------------------
   (+) Dipole Moment


------------------------------------------------------------------------------
                       ORCA ELECTRIC PROPERTIES CALCULATION
------------------------------------------------------------------------------

Dipole Moment Calculation                       ... on
Quadrupole Moment Calculation                   ... off
Polarizability Calculation                      ... off
GBWName                                         ... pbeSP_job2.gbw
Electron density                                ... pbeSP_job2.scfp
The origin for moment calculation is the CENTER OF MASS  = (14.589980, 14.778598 13.998673)

-------------
DIPOLE MOMENT
-------------
                                X             Y             Z
Electronic contribution:     26.63800      16.28447      13.58677
Nuclear contribution   :    -27.05654     -16.63558     -13.83552
                        -----------------------------------------
Total Dipole Moment    :     -0.41853      -0.35112      -0.24875
                        -----------------------------------------
Magnitude (a.u.)       :      0.60027
Magnitude (Debye)      :      1.52577



--------------------
Rotational spectrum 
--------------------
 
Rotational constants in cm-1:     0.001107     0.000699     0.000697 
Rotational constants in MHz :    33.183824    20.942111    20.909492 

 Dipole components along the rotational axes: 
x,y,z [a.u.] :     0.594168     0.081500    -0.025485 
x,y,z [Debye]:     1.510256     0.207158    -0.064777 

 

Timings for individual modules:

Sum of individual times         ...     3941.145 sec (=  65.686 min)
GTO integral calculation        ...       33.383 sec (=   0.556 min)   0.8 %
SCF iterations                  ...     3907.762 sec (=  65.129 min)  99.2 %



                             ****ORCA TERMINATED NORMALLY****
TOTAL RUN TIME: 0 days 2 hours 25 minutes 17 seconds 58 msec
