
                                 *****************
                                 * O   R   C   A *
                                 *****************

                                            #,                                       
                                            ###                                      
                                            ####                                     
                                            #####                                    
                                            ######                                   
                                           ########,                                 
                                     ,,################,,,,,                         
                               ,,#################################,,                 
                          ,,##########################################,,             
                       ,#########################################, ''#####,          
                    ,#############################################,,   '####,        
                  ,##################################################,,,,####,       
                ,###########''''           ''''###############################       
              ,#####''   ,,,,##########,,,,          '''####'''          '####       
            ,##' ,,,,###########################,,,                        '##       
           ' ,,###''''                  '''############,,,                           
         ,,##''                                '''############,,,,        ,,,,,,###''
      ,#''                                            '''#######################'''  
     '                                                          ''''####''''         
             ,#######,   #######,   ,#######,      ##                                
            ,#'     '#,  ##    ##  ,#'     '#,    #''#        ######   ,####,        
            ##       ##  ##   ,#'  ##            #'  '#       #        #'  '#        
            ##       ##  #######   ##           ,######,      #####,   #    #        
            '#,     ,#'  ##    ##  '#,     ,#' ,#      #,         ##   #,  ,#        
             '#######'   ##     ##  '#######'  #'      '#     #####' # '####'        



                  #######################################################
                  #                        -***-                        #
                  #          Department of theory and spectroscopy      #
                  #    Directorship and core code : Frank Neese         #
                  #        Max Planck Institute fuer Kohlenforschung    #
                  #                Kaiser Wilhelm Platz 1               #
                  #                 D-45470 Muelheim/Ruhr               #
                  #                      Germany                        #
                  #                                                     #
                  #                  All rights reserved                #
                  #                        -***-                        #
                  #######################################################


                         Program Version 5.0.3 -  RELEASE  -


 With contributions from (in alphabetic order):
   Daniel Aravena         : Magnetic Suceptibility
   Michael Atanasov       : Ab Initio Ligand Field Theory (pilot matlab implementation)
   Alexander A. Auer      : GIAO ZORA, VPT2 properties, NMR spectrum
   Ute Becker             : Parallelization
   Giovanni Bistoni       : ED, misc. LED, open-shell LED, HFLD
   Martin Brehm           : Molecular dynamics
   Dmytro Bykov           : SCF Hessian
   Vijay G. Chilkuri      : MRCI spin determinant printing, contributions to CSF-ICE
   Dipayan Datta          : RHF DLPNO-CCSD density
   Achintya Kumar Dutta   : EOM-CC, STEOM-CC
   Dmitry Ganyushin       : Spin-Orbit,Spin-Spin,Magnetic field MRCI
   Miquel Garcia          : C-PCM and meta-GGA Hessian, CC/C-PCM, Gaussian charge scheme
   Yang Guo               : DLPNO-NEVPT2, F12-NEVPT2, CIM, IAO-localization
   Andreas Hansen         : Spin unrestricted coupled pair/coupled cluster methods
   Benjamin Helmich-Paris : MC-RPA, TRAH-SCF, COSX integrals
   Lee Huntington         : MR-EOM, pCC
   Robert Izsak           : Overlap fitted RIJCOSX, COSX-SCS-MP3, EOM
   Marcus Kettner         : VPT2
   Christian Kollmar      : KDIIS, OOCD, Brueckner-CCSD(T), CCSD density, CASPT2, CASPT2-K
   Simone Kossmann        : Meta GGA functionals, TD-DFT gradient, OOMP2, MP2 Hessian
   Martin Krupicka        : Initial AUTO-CI
   Lucas Lang             : DCDCAS
   Marvin Lechner         : AUTO-CI (C++ implementation), FIC-MRCC
   Dagmar Lenk            : GEPOL surface, SMD
   Dimitrios Liakos       : Extrapolation schemes; Compound Job, initial MDCI parallelization
   Dimitrios Manganas     : Further ROCIS development; embedding schemes
   Dimitrios Pantazis     : SARC Basis sets
   Anastasios Papadopoulos: AUTO-CI, single reference methods and gradients
   Taras Petrenko         : DFT Hessian,TD-DFT gradient, ASA, ECA, R-Raman, ABS, FL, XAS/XES, NRVS
   Peter Pinski           : DLPNO-MP2, DLPNO-MP2 Gradient
   Christoph Reimann      : Effective Core Potentials
   Marius Retegan         : Local ZFS, SOC
   Christoph Riplinger    : Optimizer, TS searches, QM/MM, DLPNO-CCSD(T), (RO)-DLPNO pert. Triples
   Tobias Risthaus        : Range-separated hybrids, TD-DFT gradient, RPA, STAB
   Michael Roemelt        : Original ROCIS implementation
   Masaaki Saitow         : Open-shell DLPNO-CCSD energy and density
   Barbara Sandhoefer     : DKH picture change effects
   Avijit Sen             : IP-ROCIS
   Kantharuban Sivalingam : CASSCF convergence, NEVPT2, FIC-MRCI
   Bernardo de Souza      : ESD, SOC TD-DFT
   Georgi Stoychev        : AutoAux, RI-MP2 NMR, DLPNO-MP2 response
   Willem Van den Heuvel  : Paramagnetic NMR
   Boris Wezisla          : Elementary symmetry handling
   Frank Wennmohs         : Technical directorship


 We gratefully acknowledge several colleagues who have allowed us to
 interface, adapt or use parts of their codes:
   Stefan Grimme, W. Hujo, H. Kruse, P. Pracht,  : VdW corrections, initial TS optimization,
                  C. Bannwarth, S. Ehlert          DFT functionals, gCP, sTDA/sTD-DF
   Ed Valeev, F. Pavosevic, A. Kumar             : LibInt (2-el integral package), F12 methods
   Garnet Chan, S. Sharma, J. Yang, R. Olivares  : DMRG
   Ulf Ekstrom                                   : XCFun DFT Library
   Mihaly Kallay                                 : mrcc  (arbitrary order and MRCC methods)
   Jiri Pittner, Ondrej Demel                    : Mk-CCSD
   Frank Weinhold                                : gennbo (NPA and NBO analysis)
   Christopher J. Cramer and Donald G. Truhlar   : smd solvation model
   Lars Goerigk                                  : TD-DFT with DH, B97 family of functionals
   V. Asgeirsson, H. Jonsson                     : NEB implementation
   FAccTs GmbH                                   : IRC, NEB, NEB-TS, DLPNO-Multilevel, CI-OPT
                                                   MM, QMMM, 2- and 3-layer-ONIOM, Crystal-QMMM,
                                                   LR-CPCM, SF, NACMEs, symmetry and pop. for TD-DFT,
                                                   nearIR, NL-DFT gradient (VV10), updates on ESD,
                                                   ML-optimized integration grids
   S Lehtola, MJT Oliveira, MAL Marques          : LibXC Library
   Liviu Ungur et al                             : ANISO software


 Your calculation uses the libint2 library for the computation of 2-el integrals
 For citations please refer to: http://libint.valeyev.net

 Your ORCA version has been built with support for libXC version: 5.1.0
 For citations please refer to: https://tddft.org/programs/libxc/

 This ORCA versions uses:
   CBLAS   interface :  Fast vector & matrix operations
   LAPACKE interface :  Fast linear algebra routines
   SCALAPACK package :  Parallel linear algebra routines
   Shared memory     :  Shared parallel matrices
   BLAS/LAPACK       :  OpenBLAS 0.3.15  USE64BITINT DYNAMIC_ARCH NO_AFFINITY Haswell SINGLE_THREADED
        Core in use  :  Haswell
   Copyright (c) 2011-2014, The OpenBLAS Project




***************************************
The coordinates will be read from file: pbe.xyz
***************************************


================================================================================

cite the ECPs for Au [Def2-ECP] as follows:
Ce-Yb(ecp-28): M. Dolg, H. Stoll, H.Preuss, J. Chem. Phys., 1989, 90, 1730-1734.
Y-Cd(ecp-28), Hf-Hg(ecp-46): D. Andrae,U. Haeussermann, M. Dolg, H. Stoll, H. Preuss, Theor. Chim. Acta, 1990, 77, 123-141.
In-Sb(ecp-28), Tl-Bi(ecp-46): B. Metz, H. Stoll, M. Dolg, J. Chem. Phys., 2000, 113, 2563-2569.
Te-Xe(ecp-28), Po-Rn(ecp-46): K. A. Peterson, D. Figgen, E. Goll, H. Stoll, M. Dolg, J. Chem. Phys., 2003, 119, 11113-11123.
Rb(ecp-28), Cs(ecp-46): T. Leininger, A. Nicklass, W. Kuechle, H. Stoll, M. Dolg, A. Bergner, Chem. Phys. Lett., 1996, 255, 274-280.
Sr(ecp-28), Ba(ecp-46): M. Kaupp, P. V. Schleyer, H. Stoll and H. Preuss, J. Chem. Phys., 1991, 94, 1360-1366.
La(ecp-46): M. Dolg, H. Stoll, A. Savin, H. Preuss, Theor. Chim. Acta, 1989, 75, 173-194.
Lu(ecp-28): X. Cao, M. Dolg, J. Chem. Phys., 2001, 115, 7348-7355.

ECP parameters for Au [Def2-ECP] have been obtained from:
TURBOMOLE (7.0.2)

----- Orbital basis set information -----
Your calculation utilizes the basis: def2-TZVP
   F. Weigend and R. Ahlrichs, Phys. Chem. Chem. Phys. 7, 3297 (2005).

----- AuxJ basis set information -----
Your calculation utilizes the auxiliary basis: def2/J
   F. Weigend, Phys. Chem. Chem. Phys. 8, 1057 (2006).

================================================================================
                                        WARNINGS
                       Please study these warnings very carefully!
================================================================================

Using LibXC functional ID 497 : Re-regularized SCAN exchange by Furness et al
[ 1]  J. W. Furness, A. D. Kaplan, J. Ning, J. P. Perdew, and J. Sun, J. Phys. Chem. Lett. 11, 8208 (2020)
[ 2]  J. W. Furness, A. D. Kaplan, J. Ning, J. P. Perdew, and J. Sun, J. Phys. Chem. Lett. 11, 9248 (2020)
Using LibXC functional ID 498 : Re-regularized SCAN correlation by Furness et al
[ 1]  J. W. Furness, A. D. Kaplan, J. Ning, J. P. Perdew, and J. Sun, J. Phys. Chem. Lett. 11, 8208 (2020)
[ 2]  J. W. Furness, A. D. Kaplan, J. Ning, J. P. Perdew, and J. Sun, J. Phys. Chem. Lett. 11, 9248 (2020)
Using LibXC functional ID 497 : Re-regularized SCAN exchange by Furness et al
[ 1]  J. W. Furness, A. D. Kaplan, J. Ning, J. P. Perdew, and J. Sun, J. Phys. Chem. Lett. 11, 8208 (2020)
[ 2]  J. W. Furness, A. D. Kaplan, J. Ning, J. P. Perdew, and J. Sun, J. Phys. Chem. Lett. 11, 9248 (2020)
Using LibXC functional ID 498 : Re-regularized SCAN correlation by Furness et al
[ 1]  J. W. Furness, A. D. Kaplan, J. Ning, J. P. Perdew, and J. Sun, J. Phys. Chem. Lett. 11, 8208 (2020)
[ 2]  J. W. Furness, A. D. Kaplan, J. Ning, J. P. Perdew, and J. Sun, J. Phys. Chem. Lett. 11, 9248 (2020)

WARNING: your system is open-shell and RHF/RKS was chosen
  ===> : WILL SWITCH to UHF/UKS


INFO   : the flag for use of the SHARK integral package has been found!



***************************************
The coordinates will be read from file: pbe.xyz
***************************************


================================================================================

cite the ECPs for Au [Def2-ECP] as follows:
Ce-Yb(ecp-28): M. Dolg, H. Stoll, H.Preuss, J. Chem. Phys., 1989, 90, 1730-1734.
Y-Cd(ecp-28), Hf-Hg(ecp-46): D. Andrae,U. Haeussermann, M. Dolg, H. Stoll, H. Preuss, Theor. Chim. Acta, 1990, 77, 123-141.
In-Sb(ecp-28), Tl-Bi(ecp-46): B. Metz, H. Stoll, M. Dolg, J. Chem. Phys., 2000, 113, 2563-2569.
Te-Xe(ecp-28), Po-Rn(ecp-46): K. A. Peterson, D. Figgen, E. Goll, H. Stoll, M. Dolg, J. Chem. Phys., 2003, 119, 11113-11123.
Rb(ecp-28), Cs(ecp-46): T. Leininger, A. Nicklass, W. Kuechle, H. Stoll, M. Dolg, A. Bergner, Chem. Phys. Lett., 1996, 255, 274-280.
Sr(ecp-28), Ba(ecp-46): M. Kaupp, P. V. Schleyer, H. Stoll and H. Preuss, J. Chem. Phys., 1991, 94, 1360-1366.
La(ecp-46): M. Dolg, H. Stoll, A. Savin, H. Preuss, Theor. Chim. Acta, 1989, 75, 173-194.
Lu(ecp-28): X. Cao, M. Dolg, J. Chem. Phys., 2001, 115, 7348-7355.

ECP parameters for Au [Def2-ECP] have been obtained from:
TURBOMOLE (7.0.2)

----- Orbital basis set information -----
Your calculation utilizes the basis: def2-TZVP
   F. Weigend and R. Ahlrichs, Phys. Chem. Chem. Phys. 7, 3297 (2005).

----- AuxJ basis set information -----
Your calculation utilizes the auxiliary basis: def2/J
   F. Weigend, Phys. Chem. Chem. Phys. 8, 1057 (2006).

================================================================================
                                        WARNINGS
                       Please study these warnings very carefully!
================================================================================

Using LibXC functional ID 497 : Re-regularized SCAN exchange by Furness et al
[ 1]  J. W. Furness, A. D. Kaplan, J. Ning, J. P. Perdew, and J. Sun, J. Phys. Chem. Lett. 11, 8208 (2020)
[ 2]  J. W. Furness, A. D. Kaplan, J. Ning, J. P. Perdew, and J. Sun, J. Phys. Chem. Lett. 11, 9248 (2020)
Using LibXC functional ID 498 : Re-regularized SCAN correlation by Furness et al
[ 1]  J. W. Furness, A. D. Kaplan, J. Ning, J. P. Perdew, and J. Sun, J. Phys. Chem. Lett. 11, 8208 (2020)
[ 2]  J. W. Furness, A. D. Kaplan, J. Ning, J. P. Perdew, and J. Sun, J. Phys. Chem. Lett. 11, 9248 (2020)
Using LibXC functional ID 497 : Re-regularized SCAN exchange by Furness et al
[ 1]  J. W. Furness, A. D. Kaplan, J. Ning, J. P. Perdew, and J. Sun, J. Phys. Chem. Lett. 11, 8208 (2020)
[ 2]  J. W. Furness, A. D. Kaplan, J. Ning, J. P. Perdew, and J. Sun, J. Phys. Chem. Lett. 11, 9248 (2020)
Using LibXC functional ID 498 : Re-regularized SCAN correlation by Furness et al
[ 1]  J. W. Furness, A. D. Kaplan, J. Ning, J. P. Perdew, and J. Sun, J. Phys. Chem. Lett. 11, 8208 (2020)
[ 2]  J. W. Furness, A. D. Kaplan, J. Ning, J. P. Perdew, and J. Sun, J. Phys. Chem. Lett. 11, 9248 (2020)

INFO   : the flag for use of the SHARK integral package has been found!

================================================================================
                                       INPUT FILE
================================================================================
NAME = scan.inp
|  1> !R2SCAN def2-TZVP VERYSLOWCONV
|  2> !KDIIS
|  3> %scf
|  4>   AutoTRAHIter 200
|  5>   maxiter 400
|  6> end
|  7> 
|  8> %pal nprocs 6 end 
|  9> 
| 10> *xyzfile 0 5 pbe.xyz
| 11> 
| 12> $new_job
| 13> 
| 14> !R2SCAN def2-TZVP VERYSLOWCONV
| 15> !KDIIS
| 16> %scf
| 17>   AutoTRAHIter 200
| 18>   maxiter 400
| 19> end
| 20> 
| 21> 
| 22> %pal nprocs 6 end 
| 23> 
| 24> *xyzfile 0 3 pbe.xyz
| 25> 
| 26> 
| 27> 
| 28> 
| 29> 
| 30>                          ****END OF INPUT****
================================================================================


                 $$$$$$$$$$$$$$$$$$$$$$$$$$$$$$$$$$$$$$$$$$$$$$ 
                 $ THERE ARE  2 JOBS TO BE PROCESSED THIS RUN $
                 $$$$$$$$$$$$$$$$$$$$$$$$$$$$$$$$$$$$$$$$$$$$$$ 




                 $$$$$$$$$$$$$$$$  JOB NUMBER  1 $$$$$$$$$$$$$$


                       ****************************
                       * Single Point Calculation *
                       ****************************

---------------------------------
CARTESIAN COORDINATES (ANGSTROEM)
---------------------------------
  Au     9.554058    6.230807    7.267637
  Au     8.294643    9.517793    9.773636
  Au    10.304109    7.576623    9.561552
  Au    10.901022   10.363575    9.252050
  Au     5.802063    8.941441    8.924495
  Au     7.671489    6.759368    9.612670
  Au     7.261274    4.707885    7.659040
  Au     5.075334    6.212630    8.677695
  Au     8.943801   10.513159    7.262578
  Au    10.965911    8.589751    7.020080
  Au     8.809001    8.463027    5.310911
  Au     7.958707    5.746269    5.042336
  Au     6.199929    7.890699    4.421138
  Au     5.189249    5.587755    5.851406
  Au     4.322942    8.189147    6.657677
  Au     6.476537    9.960452    6.331376
  Cr     6.966483    7.356780    7.022113

----------------------------
CARTESIAN COORDINATES (A.U.)
----------------------------
  NO LB      ZA    FRAG     MASS         X           Y           Z
   0 Au   19.0000*   0   196.966   18.054554   11.774519   13.733844
   1 Au   19.0000*   0   196.966   15.674604   17.986022   18.469496
   2 Au   19.0000*   0   196.966   19.471944   14.317742   18.068716
   3 Au   19.0000*   0   196.966   20.599945   19.584318   17.483841
   4 Au   19.0000*   0   196.966   10.964310   16.896875   16.864852
   5 Au   19.0000*   0   196.966   14.497014   12.773354   18.165315
   6 Au   19.0000*   0   196.966   13.721820    8.896613   14.473487
   7 Au   19.0000*   0   196.966    9.590991   11.740169   16.398468
   8 Au   19.0000*   0   196.966   16.901334   19.866992   13.724283
   9 Au   19.0000*   0   196.966   20.722568   16.232278   13.266029
  10 Au   19.0000*   0   196.966   16.646599   15.992804   10.036167
  11 Au   19.0000*   0   196.966   15.039776   10.858875    9.528635
  12 Au   19.0000*   0   196.966   11.716168   14.911260    8.354739
  13 Au   19.0000*   0   196.966    9.806259   10.559326   11.057554
  14 Au   19.0000*   0   196.966    8.169176   15.475245   12.581186
  15 Au   19.0000*   0   196.966   12.238881   18.822527   11.964566
  16 Cr   24.0000    0    52.000   13.164745   13.902300   13.269871
* core charge reduced due to ECP

--------------------------------
INTERNAL COORDINATES (ANGSTROEM)
--------------------------------
 Au     0   0   0     0.000000000000     0.00000000     0.00000000
 Au     1   0   0     4.320929575128     0.00000000     0.00000000
 Au     1   2   0     2.763302608231    39.39142989     0.00000000
 Au     2   1   3     2.789374014198    81.36523780    54.75123659
 Au     2   1   3     2.695584960327    85.65113784   208.13356464
 Au     3   1   2     2.757028136041    67.15983689    51.56559200
 Au     1   2   3     2.780170185545    95.43300367   118.41135752
 Au     6   3   1     2.813027567283   158.86123023   321.20654344
 Au     2   1   3     2.778052564159    71.35063844   116.18065560
 Au     1   2   3     2.760295250427    63.31998595   283.62677010
 Au    10   1   2     2.754919057209    67.41040568   270.40754308
 Au     1   2   3     2.780627303588   115.43405818   180.90005522
 Au    11  10   1     2.815405953173   158.58712351    39.05056862
 Au     7   1   2     2.887040390839   109.68133077    83.27399213
 Au     5   2   1     2.809307928910   142.96749705   319.65269636
 Au     9   2   1     2.694441196803    91.42781378    85.05672612
 Cr     5   2   1     2.736070229139    87.09565391   347.36404504

---------------------------
INTERNAL COORDINATES (A.U.)
---------------------------
 Au     0   0   0     0.000000000000     0.00000000     0.00000000
 Au     1   0   0     8.165373540952     0.00000000     0.00000000
 Au     1   2   0     5.221885154706    39.39142989     0.00000000
 Au     2   1   3     5.271152971910    81.36523780    54.75123659
 Au     2   1   3     5.093917345736    85.65113784   208.13356464
 Au     3   1   2     5.210028120633    67.15983689    51.56559200
 Au     1   2   3     5.253760256374    95.43300367   118.41135752
 Au     6   3   1     5.315851709336   158.86123023   321.20654344
 Au     2   1   3     5.249758531898    71.35063844   116.18065560
 Au     1   2   3     5.216202072071    63.31998595   283.62677010
 Au    10   1   2     5.206042539245    67.41040568   270.40754308
 Au     1   2   3     5.254624084285   115.43405818   180.90005522
 Au    11  10   1     5.320346207309   158.58712351    39.05056862
 Au     7   1   2     5.455715676255   109.68133077    83.27399213
 Au     5   2   1     5.308822611493   142.96749705   319.65269636
 Au     9   2   1     5.091755945913    91.42781378    85.05672612
 Cr     5   2   1     5.170423416248    87.09565391   347.36404504

---------------------
BASIS SET INFORMATION
---------------------
There are 2 groups of distinct atoms

 Group   1 Type Au  : 8s7p6d1f contracted to 6s4p3d1f pattern {311111/4111/411/1}
 Group   2 Type Cr  : 17s11p7d1f contracted to 6s4p4d1f pattern {842111/6311/4111/1}

Atom   0Au   basis set group =>   1
Atom   1Au   basis set group =>   1
Atom   2Au   basis set group =>   1
Atom   3Au   basis set group =>   1
Atom   4Au   basis set group =>   1
Atom   5Au   basis set group =>   1
Atom   6Au   basis set group =>   1
Atom   7Au   basis set group =>   1
Atom   8Au   basis set group =>   1
Atom   9Au   basis set group =>   1
Atom  10Au   basis set group =>   1
Atom  11Au   basis set group =>   1
Atom  12Au   basis set group =>   1
Atom  13Au   basis set group =>   1
Atom  14Au   basis set group =>   1
Atom  15Au   basis set group =>   1
Atom  16Cr   basis set group =>   2
---------------------------------
AUXILIARY/J BASIS SET INFORMATION
---------------------------------
There are 2 groups of distinct atoms

 Group   1 Type Au  : 11s5p5d3f3g contracted to 8s5p5d2f3g pattern {41111111/11111/11111/21/111}
 Group   2 Type Cr  : 19s5p5d3f3g contracted to 8s5p5d2f3g pattern {121111111/11111/11111/21/111}

Atom   0Au   basis set group =>   1
Atom   1Au   basis set group =>   1
Atom   2Au   basis set group =>   1
Atom   3Au   basis set group =>   1
Atom   4Au   basis set group =>   1
Atom   5Au   basis set group =>   1
Atom   6Au   basis set group =>   1
Atom   7Au   basis set group =>   1
Atom   8Au   basis set group =>   1
Atom   9Au   basis set group =>   1
Atom  10Au   basis set group =>   1
Atom  11Au   basis set group =>   1
Atom  12Au   basis set group =>   1
Atom  13Au   basis set group =>   1
Atom  14Au   basis set group =>   1
Atom  15Au   basis set group =>   1
Atom  16Cr   basis set group =>   2
-------------------------
ECP PARAMETER INFORMATION
-------------------------

 Group 1, Type Au ECP Def2-ECP (replacing 60 core electrons, lmax=3)

Atom   0Au   ECP group =>   1
Atom   1Au   ECP group =>   1
Atom   2Au   ECP group =>   1
Atom   3Au   ECP group =>   1
Atom   4Au   ECP group =>   1
Atom   5Au   ECP group =>   1
Atom   6Au   ECP group =>   1
Atom   7Au   ECP group =>   1
Atom   8Au   ECP group =>   1
Atom   9Au   ECP group =>   1
Atom  10Au   ECP group =>   1
Atom  11Au   ECP group =>   1
Atom  12Au   ECP group =>   1
Atom  13Au   ECP group =>   1
Atom  14Au   ECP group =>   1
Atom  15Au   ECP group =>   1



           ************************************************************
           *        Program running with 6 parallel MPI-processes     *
           *              working on a common directory               *
           ************************************************************
------------------------------------------------------------------------------
                           ORCA GTO INTEGRAL CALCULATION
                           -- RI-GTO INTEGRALS CHOSEN --
------------------------------------------------------------------------------
------------------------------------------------------------------------------
                   ___                                                        
                  /   \      - P O W E R E D   B Y -                         
                 /     \                                                     
                 |  |  |   _    _      __       _____    __    __             
                 |  |  |  | |  | |    /  \     |  _  \  |  |  /  |          
                  \  \/   | |  | |   /    \    | | | |  |  | /  /          
                 / \  \   | |__| |  /  /\  \   | |_| |  |  |/  /          
                |  |  |   |  __  | /  /__\  \  |    /   |      \           
                |  |  |   | |  | | |   __   |  |    \   |  |\   \          
                \     /   | |  | | |  |  |  |  | |\  \  |  | \   \       
                 \___/    |_|  |_| |__|  |__|  |_| \__\ |__|  \__/        
                                                                              
                      - O R C A' S   B I G   F R I E N D -                    
                                      &                                       
                       - I N T E G R A L  F E E D E R -                       
                                                                              
 v1 FN, 2020, v2 2021                                                         
------------------------------------------------------------------------------


Reading SHARK input file scan.SHARKINP.tmp ... ok
----------------------
SHARK INTEGRAL PACKAGE
----------------------

Number of atoms                             ...     17
Number of basis functions                   ...    685
Number of shells                            ...    239
Maximum angular momentum                    ...      3
Integral batch strategy                     ... SHARK/LIBINT Hybrid
RI-J (if used) integral strategy            ... SPLIT-RIJ (Revised 2003 algorithm where possible)
Printlevel                                  ...      1
Contraction scheme used                     ... SEGMENTED contraction
Coulomb Range Separation                    ... NOT USED
Exchange Range Separation                   ... NOT USED
Finite Nucleus Model                        ... NOT USED
Auxiliary Coulomb fitting basis             ... AVAILABLE
   # of basis functions in Aux-J            ...   1513
   # of shells in Aux-J                     ...    391
   Maximum angular momentum in Aux-J        ...      4
Auxiliary J/K fitting basis                 ... NOT available
Auxiliary Correlation fitting basis         ... NOT available
Auxiliary 'external' fitting basis          ... NOT available
Integral threshold                          ...     1.000000e-10
Primitive cut-off                           ...     1.000000e-11
Primitive pair pre-selection threshold      ...     1.000000e-11

Calculating pre-screening integrals         ... done (  0.3 sec) Dimension = 239
Organizing shell pair data                  ... done (  0.9 sec)
Shell pair information
Total number of shell pairs                 ...     28680
Shell pairs after pre-screening             ...     22291
Total number of primitive shell pairs       ...     75765
Primitive shell pairs kept                  ...     42357
          la=0 lb=0:   3519 shell pairs
          la=1 lb=0:   5083 shell pairs
          la=1 lb=1:   1897 shell pairs
          la=2 lb=0:   4446 shell pairs
          la=2 lb=1:   3109 shell pairs
          la=2 lb=2:   1288 shell pairs
          la=3 lb=0:   1168 shell pairs
          la=3 lb=1:    884 shell pairs
          la=3 lb=2:    780 shell pairs
          la=3 lb=3:    117 shell pairs

Calculating one electron integrals          ... done (  0.3 sec)
Calculating ECP integrals                   ... done ( 28.7 sec)
Calculating RI/J V-Matrix + Cholesky decomp.... done (  3.9 sec)
Calculating Nuclear repulsion               ... done (  0.0 sec) ENN=   6955.136632090549 Eh

SHARK setup successfully completed in  35.6 seconds

Maximum memory used throughout the entire GTOINT-calculation: 41.1 MB


           ************************************************************
           *        Program running with 6 parallel MPI-processes     *
           *              working on a common directory               *
           ************************************************************
-------------------------------------------------------------------------------
                                 ORCA SCF
-------------------------------------------------------------------------------

------------
SCF SETTINGS
------------
Hamiltonian:
 Density Functional     Method          .... DFT(GTOs)
  Functional kind                       .... Exchange
  Functional name                       .... Re-regularized SCAN exchange by Furness et al
  Functional family                     .... MGGA
  Functional refs                              
    [ 0] J. W. Furness, A. D. Kaplan, J. Ning, J. P. Perdew, and J. Sun, J. Phys. Chem. Lett. 11, 8208 (2020)
    [ 1] J. W. Furness, A. D. Kaplan, J. Ning, J. P. Perdew, and J. Sun, J. Phys. Chem. Lett. 11, 9248 (2020)
  Functional external parameters         .... 8
 Parameter  0 :         c1 parameter
 Parameter  1 :         c2 parameter
 Parameter  2 :          d parameter
 Parameter  3 :         k1 parameter
 Parameter  4 :       taur parameter
 Parameter  5 :     alphar parameter
 Parameter  6 :        eta parameter
 Parameter  7 :        dp2 parameter
  Functional kind                       .... Correlation
  Functional name                       .... Re-regularized SCAN correlation by Furness et al
  Functional family                     .... MGGA
  Functional refs                              
    [ 0] J. W. Furness, A. D. Kaplan, J. Ning, J. P. Perdew, and J. Sun, J. Phys. Chem. Lett. 11, 8208 (2020)
    [ 1] J. W. Furness, A. D. Kaplan, J. Ning, J. P. Perdew, and J. Sun, J. Phys. Chem. Lett. 11, 9248 (2020)
  Functional external parameters         .... 0
 Gradients option       PostSCFGGA      .... off
   Density functional embedding theory  .... OFF
   NL short-range parameter             .... 12.300000
 RI-approximation to the Coulomb term is turned on
   Number of AuxJ basis functions       .... 1513


General Settings:
 Integral files         IntName         .... scan
 Hartree-Fock type      HFTyp           .... UHF
 Total Charge           Charge          ....    0
 Multiplicity           Mult            ....    5
 Number of Electrons    NEL             ....  328
 Basis Dimension        Dim             ....  685
 Nuclear Repulsion      ENuc            ....   6955.1366320905 Eh

Convergence Acceleration:
 DIIS                   CNVDIIS         .... off
 Trust-Rad. Augm. Hess. CNVTRAH         .... auto
   Auto Start mean grad. ratio tolernc. ....  1.125000
   Auto Start start iteration           ....   200
   Auto Start num. interpolation iter.  ....    10
   Max. Number of Micro iterations      ....    16
   Max. Number of Macro iterations      .... Maxiter - #DIIS iter
   Number of Davidson start vectors     ....     2
   Converg. threshold I  (grad. norm)   ....   5.000e-05
   Converg. threshold II (energy diff.) ....   1.000e-06
   Grad. Scal. Fac. for Micro threshold ....   0.100
   Minimum threshold for Micro iter.    ....   0.010
   NR start threshold (gradient norm)   ....   0.001
   Initial trust radius                 ....   0.400
   Minimum AH scaling param. (alpha)    ....   1.000
   Maximum AH scaling param. (alpha)    .... 1000.000
   Orbital update algorithm             .... Taylor
   White noise on init. David. guess    .... on
   Maximum white noise                  ....   0.010
   Quad. conv. algorithm                .... NR
 SOSCF                  CNVSOSCF        .... off
 Level Shifting         CNVShift        .... off
 Zerner damping         CNVZerner       .... off
 Static damping         CNVDamp         .... off
 Fernandez-Rico         CNVRico         .... off

SCF Procedure:
 Maximum # iterations   MaxIter         ....   400
 SCF integral mode      SCFMode         .... Direct
   Integral package                     .... SHARK and LIBINT hybrid scheme
 Reset frequency        DirectResetFreq ....    20
 Integral Threshold     Thresh          ....  1.000e-10 Eh
 Primitive CutOff       TCut            ....  1.000e-11 Eh

Convergence Tolerance:
 Convergence Check Mode ConvCheckMode   .... All-Criteria
 Convergence forced     ConvForced      .... 0
 Energy Change          TolE            ....  1.000e-06 Eh
 Max Density Change     TolMaxP         ....  1.000e-05
 RMS Density Change     TolRMSP         ....  1.000e-06


Diagonalization of the overlap matrix:
Smallest eigenvalue                        ... 6.158e-05
Time for diagonalization                   ...    0.216 sec
Threshold for overlap eigenvalues          ... 1.000e-08
Number of eigenvalues below threshold      ... 0
Time for construction of square roots      ...    0.333 sec
Total time needed                          ...    0.773 sec

Time for model grid setup =    2.056 sec

------------------------------
INITIAL GUESS: MODEL POTENTIAL
------------------------------
Loading Hartree-Fock densities                     ... done
  calling /media/Programs/ORCA501/orca scan_atom79.inp > scan_atom79.out in order to generate an atomic fitting density for atom 0 (Au with ECP) on-the-fly... 
    atom 0 (Au), assumed electronic state with S=2: 1s2 2s2 2p6 3s2 3p6 4s2 3d10 4p6 5s2 4d10 5p6 6s1 4f14 5d10           ... done
Calculating cut-offs                               ... done
Initializing the effective Hamiltonian             ... done
Setting up the integral package (SHARK)            ... done
Starting the Coulomb interaction                   ... done (   2.0 sec)
Reading the grid                                   ... done
Mapping shells                                     ... done
Starting the XC term evaluation                    ... done (   1.6 sec)
  promolecular density results
     # of electrons  =   1288.015559064
     EX              =  -5900.443266283
     EC              =    -78.564133630
     EX+EC           =  -5979.007399914
Transforming the Hamiltonian                       ... done (   0.8 sec)
Diagonalizing the Hamiltonian                      ... done (   0.8 sec)
Back transforming the eigenvectors                 ... done (   0.1 sec)
Now organizing SCF variables                       ... done
                      ------------------
                      INITIAL GUESS DONE (   9.4 sec)
                      ------------------
-------------------
DFT GRID GENERATION
-------------------

General Integration Accuracy     IntAcc      ... 4.388
Radial Grid Type                 RadialGrid  ... OptM3 with GC (2021)
Angular Grid (max. ang.)         AngularGrid ... 4 (Lebedev-302)
Angular grid pruning method      GridPruning ... 4 (adaptive)
Weight generation scheme         WeightScheme... Becke
Basis function cutoff            BFCut       ... 1.0000e-10
Integration weight cutoff        WCut        ... 1.0000e-14
Angular grids for H and He will be reduced by one unit
Partially contracted basis set               ... off
Rotationally invariant grid construction     ... off

Total number of grid points                  ...   186948
Total number of batches                      ...     2930
Average number of points per batch           ...       63
Average number of grid points per atom       ...    10997
Time for grid setup =    6.228 sec

--------------
SCF ITERATIONS
--------------
ITER       Energy         Delta-E        Max-DP      RMS-DP      [F,P]   Gradient Norm
               ***  Starting incremental Fock matrix formation  ***
                             ****Resetting KDIIS****
                             ****Turning on KDIIS(Cayley)****
  0  -3215.8146638956   0.000000000000 0.36574655  0.00179464  0.3729975   0.219458143
  1  -3216.9586990702  -1.144035174656 1.14322201  0.00285470  0.3282160   0.172062076
  2  -3217.5197099186  -0.561010848381 0.52056423  0.00167531  0.2593349   0.129772362
  3  -3217.8313295106  -0.311619591987 0.57014589  0.00191482  0.1515728   0.075761151
  4  -3217.9318390911  -0.100509580483 0.10376832  0.00061202  0.0495953   0.021641314
  5  -3217.9826591305  -0.050820039456 0.49136402  0.00098208  0.0282840   0.006483896
  6  -3218.0021822612  -0.019523130634 0.12892732  0.00061688  0.0309892   0.007010215
  7  -3218.0145795433  -0.012397282132 0.12852572  0.00039666  0.0185640   0.007771414
  8  -3218.0140112063   0.000568336972 0.07610144  0.00034720  0.0186967   0.009331699
  9  -3218.0264924444  -0.012481238094 0.02674959  0.00016749  0.0072001   0.002933290
 10  -3218.0262568111   0.000235633298 0.01255936  0.00012661  0.0045564   0.004035283
 11  -3218.0286629567  -0.002406145598 0.09829459  0.00017373  0.0041690   0.001771167
 12  -3218.0287821730  -0.000119216285 0.05112303  0.00010829  0.0058786   0.002610947
 13  -3218.0294024594  -0.000620286351 0.02743477  0.00006610  0.0023769   0.000983349
 14  -3218.0296313838  -0.000228924455 0.02327215  0.00005615  0.0030248   0.001265289
 15  -3218.0297550225  -0.000123638632 0.02795254  0.00006859  0.0030809   0.000730341
 16  -3218.0300753972  -0.000320374740 0.00408967  0.00003193  0.0015367   0.000725580
 17  -3218.0300944036  -0.000019006420 0.02027745  0.00005614  0.0017845   0.000555810
 18  -3218.0302211364  -0.000126732778 0.01935892  0.00004221  0.0014474   0.000815086
 19  -3218.0302522251  -0.000031088722 0.00808994  0.00002607  0.0014471   0.000503443
               *** Restarting incremental Fock matrix formation ***
                             ****Resetting KDIIS****
 20  -3218.0303344208  -0.000082195691 0.00123459  0.00000461  0.0019234   0.000407638
 21  -3218.0303461180  -0.000011697165 0.00094790  0.00000287  0.0012731   0.000201232
 22  -3218.0303546372  -0.000008519218 0.00121676  0.00000588  0.0011964   0.000174759
 23  -3218.0303712674  -0.000016630168 0.01552723  0.00005110  0.0009707   0.000141436
 24  -3218.0304705838  -0.000099316455 0.00288230  0.00001171  0.0003123   0.000209514
 25  -3218.0304837232  -0.000013139421 0.00186412  0.00000591  0.0002664   0.000048485
 26  -3218.0304825206   0.000001202626 0.00082391  0.00000387  0.0002167   0.000077665
 27  -3218.0304855710  -0.000003050438 0.00091631  0.00000532  0.0002212   0.000028660
 28  -3218.0304866586  -0.000001087554 0.00168344  0.00000945  0.0001720   0.000051321
                          ***Energy convergence achieved***
 29  -3218.0304872248  -0.000000566170 0.00047228  0.00000301  0.0001898   0.000050513
 30  -3218.0304880593  -0.000000834530 0.00106375  0.00000292  0.0001248   0.000056014
 31  -3218.0304886292  -0.000000569855 0.00146879  0.00000820  0.0001284   0.000054126
 32  -3218.0304884430   0.000000186134 0.00066113  0.00000175  0.0000629   0.000019062
 33  -3218.0304883399   0.000000103166 0.00097448  0.00000297  0.0000653   0.000023576
 34  -3218.0304884080  -0.000000068158 0.00013804  0.00000107  0.0000557   0.000020166
 35  -3218.0304886491  -0.000000241057 0.00041262  0.00000132  0.0000562   0.000014527
 36  -3218.0304878810   0.000000768110 0.00099098  0.00000201  0.0000584   0.000016735
 37  -3218.0304878305   0.000000050490 0.00051983  0.00000114  0.0000407   0.000018932
 38  -3218.0304884819  -0.000000651438 0.00195806  0.00000301  0.0000447   0.000009721
 39  -3218.0304880093   0.000000472605 0.00070877  0.00000156  0.0000397   0.000012487
               *** Restarting incremental Fock matrix formation ***
                             ****Resetting KDIIS****
                           ***RMSP convergence achieved***
 40  -3218.0304874782   0.000000531063 0.00014264  0.00000024  0.0000336   0.000011268

            ***Energy convergence in two consecutive cycles with***
                    ***'reasonable' density convergence***
                       *** signaling convergence ***

                    *** KDIIS BlockDiag ( 5.560 sec) ***

               *****************************************************
               *                     SUCCESS                       *
               *           SCF CONVERGED AFTER  41 CYCLES          *
               *****************************************************


----------------
TOTAL SCF ENERGY
----------------

Total Energy       :        -3218.03048758 Eh          -87567.06139 eV

Components:
Nuclear Repulsion  :         6955.13663209 Eh          189258.88950 eV
Electronic Energy  :       -10173.16711968 Eh         -276825.95089 eV
One Electron Energy:       -19156.38712096 Eh         -521271.79451 eV
Two Electron Energy:         8983.22000129 Eh          244445.84362 eV

Virial components:
Potential Energy   :        -4994.99645974 Eh         -135920.76375 eV
Kinetic Energy     :         1776.96597216 Eh           48353.70236 eV
Virial Ratio       :            2.81096911


DFT components:
N(Alpha)           :      166.000038488545 electrons
N(Beta)            :      162.000046040081 electrons
N(Total)           :      328.000084528626 electrons
E(X)               :     -242.013331282240 Eh       
E(C)               :      -13.591751822438 Eh       
E(XC)              :     -255.605083104678 Eh       
DFET-embed. en.    :        0.000000000000 Eh       

---------------
SCF CONVERGENCE
---------------

  Last Energy change         ...   -1.0648e-07  Tolerance :   1.0000e-06
  Last MAX-Density change    ...    9.4835e-05  Tolerance :   1.0000e-05
  Last RMS-Density change    ...    3.3238e-07  Tolerance :   1.0000e-06

             **** THE GBW FILE WAS UPDATED (scan.gbw) ****
             **** DENSITY scan.scfp WAS UPDATED ****
             **** ENERGY FILE WAS UPDATED (scan.en.tmp) ****
----------------------
UHF SPIN CONTAMINATION
----------------------

Warning: in a DFT calculation there is little theoretical justification to 
         calculate <S**2> as in Hartree-Fock theory. We will do it anyways
         but you should keep in mind that the values have only limited relevance

Expectation value of <S**2>     :     6.284492
Ideal value S*(S+1) for S=2.0   :     6.000000
Deviation                       :     0.284492

             **** THE GBW FILE WAS UPDATED (scan.gbw) ****
             **** DENSITY scan.scfp WAS UPDATED ****
----------------
ORBITAL ENERGIES
----------------
                 SPIN UP ORBITALS
  NO   OCC          E(Eh)            E(eV) 
   0   1.0000    -215.284864     -5858.1990 
   1   1.0000     -24.584294      -668.9727 
   2   1.0000     -20.851542      -567.3993 
   3   1.0000     -20.850338      -567.3665 
   4   1.0000     -20.848863      -567.3264 
   5   1.0000      -4.126687      -112.2929 
   6   1.0000      -4.123366      -112.2025 
   7   1.0000      -4.123253      -112.1994 
   8   1.0000      -4.122426      -112.1769 
   9   1.0000      -4.122347      -112.1748 
  10   1.0000      -4.121835      -112.1608 
  11   1.0000      -4.121317      -112.1467 
  12   1.0000      -4.119577      -112.0994 
  13   1.0000      -4.119415      -112.0950 
  14   1.0000      -4.118603      -112.0729 
  15   1.0000      -4.118502      -112.0701 
  16   1.0000      -4.115524      -111.9891 
  17   1.0000      -4.111817      -111.8882 
  18   1.0000      -4.111546      -111.8808 
  19   1.0000      -4.110287      -111.8466 
  20   1.0000      -4.110107      -111.8417 
  21   1.0000      -2.908997       -79.1578 
  22   1.0000      -2.315292       -63.0023 
  23   1.0000      -2.313160       -62.9443 
  24   1.0000      -2.313092       -62.9424 
  25   1.0000      -2.312590       -62.9288 
  26   1.0000      -2.312568       -62.9282 
  27   1.0000      -2.311802       -62.9073 
  28   1.0000      -2.310216       -62.8642 
  29   1.0000      -2.309627       -62.8481 
  30   1.0000      -2.309361       -62.8409 
  31   1.0000      -2.308561       -62.8191 
  32   1.0000      -2.308478       -62.8169 
  33   1.0000      -2.308466       -62.8166 
  34   1.0000      -2.308183       -62.8088 
  35   1.0000      -2.307977       -62.8032 
  36   1.0000      -2.307909       -62.8014 
  37   1.0000      -2.307313       -62.7852 
  38   1.0000      -2.307014       -62.7770 
  39   1.0000      -2.306887       -62.7736 
  40   1.0000      -2.306505       -62.7632 
  41   1.0000      -2.306009       -62.7497 
  42   1.0000      -2.305934       -62.7476 
  43   1.0000      -2.305539       -62.7369 
  44   1.0000      -2.305292       -62.7302 
  45   1.0000      -2.304975       -62.7216 
  46   1.0000      -2.304895       -62.7194 
  47   1.0000      -2.304598       -62.7113 
  48   1.0000      -2.304570       -62.7105 
  49   1.0000      -2.304175       -62.6998 
  50   1.0000      -2.303998       -62.6950 
  51   1.0000      -2.303811       -62.6899 
  52   1.0000      -2.303565       -62.6832 
  53   1.0000      -2.302217       -62.6465 
  54   1.0000      -2.301772       -62.6344 
  55   1.0000      -2.301566       -62.6288 
  56   1.0000      -2.301521       -62.6276 
  57   1.0000      -2.299643       -62.5765 
  58   1.0000      -2.299441       -62.5710 
  59   1.0000      -2.299350       -62.5685 
  60   1.0000      -2.299274       -62.5664 
  61   1.0000      -2.298815       -62.5539 
  62   1.0000      -2.298295       -62.5398 
  63   1.0000      -2.297299       -62.5127 
  64   1.0000      -2.296317       -62.4860 
  65   1.0000      -2.294657       -62.4408 
  66   1.0000      -2.294538       -62.4375 
  67   1.0000      -2.293184       -62.4007 
  68   1.0000      -2.291820       -62.3636 
  69   1.0000      -2.290004       -62.3142 
  70   1.0000      -1.857154       -50.5357 
  71   1.0000      -1.856102       -50.5071 
  72   1.0000      -1.855865       -50.5006 
  73   1.0000      -0.439227       -11.9520 
  74   1.0000      -0.399216       -10.8632 
  75   1.0000      -0.394889       -10.7455 
  76   1.0000      -0.394534       -10.7358 
  77   1.0000      -0.386260       -10.5107 
  78   1.0000      -0.381712       -10.3869 
  79   1.0000      -0.381539       -10.3822 
  80   1.0000      -0.376096       -10.2341 
  81   1.0000      -0.375902       -10.2288 
  82   1.0000      -0.371386       -10.1059 
  83   1.0000      -0.370366       -10.0782 
  84   1.0000      -0.366570        -9.9749 
  85   1.0000      -0.365896        -9.9565 
  86   1.0000      -0.364762        -9.9257 
  87   1.0000      -0.364531        -9.9194 
  88   1.0000      -0.361227        -9.8295 
  89   1.0000      -0.357341        -9.7238 
  90   1.0000      -0.355241        -9.6666 
  91   1.0000      -0.355172        -9.6647 
  92   1.0000      -0.354855        -9.6561 
  93   1.0000      -0.352885        -9.6025 
  94   1.0000      -0.349851        -9.5199 
  95   1.0000      -0.348252        -9.4764 
  96   1.0000      -0.348131        -9.4731 
  97   1.0000      -0.344419        -9.3721 
  98   1.0000      -0.344268        -9.3680 
  99   1.0000      -0.342808        -9.3283 
 100   1.0000      -0.340980        -9.2785 
 101   1.0000      -0.339538        -9.2393 
 102   1.0000      -0.335437        -9.1277 
 103   1.0000      -0.335137        -9.1195 
 104   1.0000      -0.329618        -8.9694 
 105   1.0000      -0.327572        -8.9137 
 106   1.0000      -0.326189        -8.8761 
 107   1.0000      -0.321860        -8.7583 
 108   1.0000      -0.320546        -8.7225 
 109   1.0000      -0.319566        -8.6958 
 110   1.0000      -0.314798        -8.5661 
 111   1.0000      -0.312626        -8.5070 
 112   1.0000      -0.310942        -8.4612 
 113   1.0000      -0.310076        -8.4376 
 114   1.0000      -0.306355        -8.3364 
 115   1.0000      -0.305093        -8.3020 
 116   1.0000      -0.300106        -8.1663 
 117   1.0000      -0.299651        -8.1539 
 118   1.0000      -0.298461        -8.1215 
 119   1.0000      -0.297430        -8.0935 
 120   1.0000      -0.295035        -8.0283 
 121   1.0000      -0.294681        -8.0187 
 122   1.0000      -0.293391        -7.9836 
 123   1.0000      -0.290804        -7.9132 
 124   1.0000      -0.287084        -7.8120 
 125   1.0000      -0.286487        -7.7957 
 126   1.0000      -0.285189        -7.7604 
 127   1.0000      -0.283539        -7.7155 
 128   1.0000      -0.283437        -7.7127 
 129   1.0000      -0.281131        -7.6500 
 130   1.0000      -0.279882        -7.6160 
 131   1.0000      -0.279429        -7.6037 
 132   1.0000      -0.278539        -7.5794 
 133   1.0000      -0.276588        -7.5263 
 134   1.0000      -0.273569        -7.4442 
 135   1.0000      -0.272947        -7.4273 
 136   1.0000      -0.271706        -7.3935 
 137   1.0000      -0.271271        -7.3817 
 138   1.0000      -0.270930        -7.3724 
 139   1.0000      -0.269573        -7.3355 
 140   1.0000      -0.266672        -7.2565 
 141   1.0000      -0.266593        -7.2544 
 142   1.0000      -0.264229        -7.1900 
 143   1.0000      -0.261551        -7.1172 
 144   1.0000      -0.260448        -7.0872 
 145   1.0000      -0.259552        -7.0628 
 146   1.0000      -0.258707        -7.0398 
 147   1.0000      -0.258434        -7.0323 
 148   1.0000      -0.256904        -6.9907 
 149   1.0000      -0.256038        -6.9672 
 150   1.0000      -0.253841        -6.9074 
 151   1.0000      -0.253157        -6.8887 
 152   1.0000      -0.249961        -6.8018 
 153   1.0000      -0.249490        -6.7890 
 154   1.0000      -0.246240        -6.7005 
 155   1.0000      -0.243010        -6.6126 
 156   1.0000      -0.239228        -6.5097 
 157   1.0000      -0.235670        -6.4129 
 158   1.0000      -0.226824        -6.1722 
 159   1.0000      -0.225610        -6.1392 
 160   1.0000      -0.224767        -6.1162 
 161   1.0000      -0.214143        -5.8271 
 162   1.0000      -0.211700        -5.7607 
 163   1.0000      -0.201722        -5.4891 
 164   1.0000      -0.199234        -5.4214 
 165   1.0000      -0.184284        -5.0146 
 166   0.0000      -0.171727        -4.6729 
 167   0.0000      -0.169058        -4.6003 
 168   0.0000      -0.138943        -3.7808 
 169   0.0000      -0.138888        -3.7793 
 170   0.0000      -0.123370        -3.3571 
 171   0.0000      -0.122138        -3.3236 
 172   0.0000      -0.119994        -3.2652 
 173   0.0000      -0.099129        -2.6974 
 174   0.0000      -0.098639        -2.6841 
 175   0.0000      -0.065006        -1.7689 
 176   0.0000      -0.063175        -1.7191 
 177   0.0000      -0.051481        -1.4009 
 178   0.0000      -0.050971        -1.3870 
 179   0.0000      -0.043515        -1.1841 
 180   0.0000      -0.038277        -1.0416 
 181   0.0000      -0.024293        -0.6610 
 182   0.0000      -0.024100        -0.6558 
 183   0.0000      -0.019472        -0.5299 
 184   0.0000      -0.011180        -0.3042 
 185   0.0000      -0.005178        -0.1409 
 186   0.0000       0.004684         0.1275 
 187   0.0000       0.008390         0.2283 
 188   0.0000       0.019145         0.5210 
 189   0.0000       0.032226         0.8769 
 190   0.0000       0.040878         1.1124 
 191   0.0000       0.054494         1.4828 
 192   0.0000       0.054641         1.4869 
 193   0.0000       0.055423         1.5081 
 194   0.0000       0.056631         1.5410 
 195   0.0000       0.061294         1.6679 
 196   0.0000       0.069463         1.8902 
 197   0.0000       0.073024         1.9871 
 198   0.0000       0.073528         2.0008 
 199   0.0000       0.078013         2.1228 
 200   0.0000       0.078562         2.1378 
 201   0.0000       0.079539         2.1644 
 202   0.0000       0.087926         2.3926 
 203   0.0000       0.088171         2.3993 
 204   0.0000       0.092136         2.5072 
 205   0.0000       0.095922         2.6102 
 206   0.0000       0.096411         2.6235 
 207   0.0000       0.098853         2.6899 
 208   0.0000       0.101934         2.7738 
 209   0.0000       0.108578         2.9546 
 210   0.0000       0.113354         3.0845 
 211   0.0000       0.120731         3.2853 
 212   0.0000       0.127201         3.4613 
 213   0.0000       0.127666         3.4740 
 214   0.0000       0.137504         3.7417 
 215   0.0000       0.138739         3.7753 
 216   0.0000       0.144435         3.9303 
 217   0.0000       0.148627         4.0444 
 218   0.0000       0.149089         4.0569 
 219   0.0000       0.150092         4.0842 
 220   0.0000       0.154313         4.1991 
 221   0.0000       0.156952         4.2709 
 222   0.0000       0.168027         4.5723 
 223   0.0000       0.171513         4.6671 
 224   0.0000       0.171656         4.6710 
 225   0.0000       0.179805         4.8927 
 226   0.0000       0.182051         4.9539 
 227   0.0000       0.184721         5.0265 
 228   0.0000       0.191074         5.1994 
 229   0.0000       0.191751         5.2178 
 230   0.0000       0.199055         5.4166 
 231   0.0000       0.206294         5.6135 
 232   0.0000       0.207793         5.6543 
 233   0.0000       0.215312         5.8589 
 234   0.0000       0.216438         5.8896 
 235   0.0000       0.221586         6.0297 
 236   0.0000       0.223487         6.0814 
 237   0.0000       0.226548         6.1647 
 238   0.0000       0.231670         6.3041 
 239   0.0000       0.231977         6.3124 
 240   0.0000       0.234830         6.3900 
 241   0.0000       0.243695         6.6313 
 242   0.0000       0.244221         6.6456 
 243   0.0000       0.245268         6.6741 
 244   0.0000       0.253410         6.8956 
 245   0.0000       0.255822         6.9613 
 246   0.0000       0.258602         7.0369 
 247   0.0000       0.261644         7.1197 
 248   0.0000       0.267390         7.2760 
 249   0.0000       0.273458         7.4412 
 250   0.0000       0.283105         7.7037 
 251   0.0000       0.286612         7.7991 
 252   0.0000       0.294544         8.0150 
 253   0.0000       0.296447         8.0667 
 254   0.0000       0.297777         8.1029 
 255   0.0000       0.300067         8.1652 
 256   0.0000       0.309607         8.4248 
 257   0.0000       0.309728         8.4281 
 258   0.0000       0.311831         8.4854 
 259   0.0000       0.319651         8.6981 
 260   0.0000       0.328465         8.9380 
 261   0.0000       0.334027         9.0893 
 262   0.0000       0.338963         9.2237 
 263   0.0000       0.343146         9.3375 
 264   0.0000       0.344208         9.3664 
 265   0.0000       0.349024         9.4974 
 266   0.0000       0.351193         9.5564 
 267   0.0000       0.358806         9.7636 
 268   0.0000       0.362222         9.8566 
 269   0.0000       0.362411         9.8617 
 270   0.0000       0.368430        10.0255 
 271   0.0000       0.375057        10.2058 
 272   0.0000       0.378990        10.3129 
 273   0.0000       0.383472        10.4348 
 274   0.0000       0.387282        10.5385 
 275   0.0000       0.394442        10.7333 
 276   0.0000       0.395465        10.7612 
 277   0.0000       0.398935        10.8556 
 278   0.0000       0.400390        10.8952 
 279   0.0000       0.405121        11.0239 
 280   0.0000       0.407118        11.0782 
 281   0.0000       0.416677        11.3383 
 282   0.0000       0.423425        11.5220 
 283   0.0000       0.425822        11.5872 
 284   0.0000       0.431377        11.7384 
 285   0.0000       0.442866        12.0510 
 286   0.0000       0.446403        12.1472 
 287   0.0000       0.451161        12.2767 
 288   0.0000       0.451299        12.2805 
 289   0.0000       0.459856        12.5133 
 290   0.0000       0.462955        12.5976 
 291   0.0000       0.465571        12.6688 
 292   0.0000       0.467850        12.7308 
 293   0.0000       0.472288        12.8516 
 294   0.0000       0.476620        12.9695 
 295   0.0000       0.480281        13.0691 
 296   0.0000       0.481818        13.1109 
 297   0.0000       0.483998        13.1703 
 298   0.0000       0.490570        13.3491 
 299   0.0000       0.491642        13.3783 
 300   0.0000       0.499337        13.5876 
 301   0.0000       0.500830        13.6283 
 302   0.0000       0.507138        13.7999 
 303   0.0000       0.508469        13.8361 
 304   0.0000       0.514696        14.0056 
 305   0.0000       0.520229        14.1562 
 306   0.0000       0.522247        14.2111 
 307   0.0000       0.526829        14.3357 
 308   0.0000       0.528520        14.3817 
 309   0.0000       0.532403        14.4874 
 310   0.0000       0.540526        14.7085 
 311   0.0000       0.541216        14.7272 
 312   0.0000       0.544247        14.8097 
 313   0.0000       0.553681        15.0664 
 314   0.0000       0.555460        15.1148 
 315   0.0000       0.558211        15.1897 
 316   0.0000       0.562707        15.3120 
 317   0.0000       0.562923        15.3179 
 318   0.0000       0.565805        15.3963 
 319   0.0000       0.572698        15.5839 
 320   0.0000       0.575843        15.6695 
 321   0.0000       0.577320        15.7097 
 322   0.0000       0.582038        15.8380 
 323   0.0000       0.583626        15.8813 
 324   0.0000       0.588044        16.0015 
 325   0.0000       0.594015        16.1640 
 326   0.0000       0.594977        16.1902 
 327   0.0000       0.595592        16.2069 
 328   0.0000       0.600142        16.3307 
 329   0.0000       0.605660        16.4808 
 330   0.0000       0.619135        16.8475 
 331   0.0000       0.633557        17.2400 
 332   0.0000       0.649801        17.6820 
 333   0.0000       0.694389        18.8953 
 334   0.0000       0.708589        19.2817 
 335   0.0000       0.712049        19.3758 
 336   0.0000       0.718619        19.5546 
 337   0.0000       0.724875        19.7249 
 338   0.0000       0.725640        19.7457 
 339   0.0000       0.756935        20.5972 
 340   0.0000       0.762315        20.7437 
 341   0.0000       0.772324        21.0160 
 342   0.0000       0.774229        21.0678 
 343   0.0000       0.782374        21.2895 
 344   0.0000       0.788067        21.4444 
 345   0.0000       0.799747        21.7622 
 346   0.0000       0.808576        22.0025 
 347   0.0000       0.818195        22.2642 
 348   0.0000       0.833935        22.6925 
 349   0.0000       0.836593        22.7649 
 350   0.0000       0.844063        22.9681 
 351   0.0000       0.855947        23.2915 
 352   0.0000       0.859586        23.3905 
 353   0.0000       0.867416        23.6036 
 354   0.0000       0.891489        24.2587 
 355   0.0000       0.895602        24.3706 
 356   0.0000       0.901246        24.5241 
 357   0.0000       0.916910        24.9504 
 358   0.0000       0.921694        25.0806 
 359   0.0000       0.931173        25.3385 
 360   0.0000       0.933413        25.3995 
 361   0.0000       0.934427        25.4270 
 362   0.0000       0.938068        25.5261 
 363   0.0000       0.938996        25.5514 
 364   0.0000       0.944841        25.7104 
 365   0.0000       0.946977        25.7686 
 366   0.0000       0.964049        26.2331 
 367   0.0000       0.983142        26.7527 
 368   0.0000       0.992126        26.9971 
 369   0.0000       1.005940        27.3730 
 370   0.0000       1.025032        27.8925 
 371   0.0000       1.037116        28.2214 
 372   0.0000       1.042533        28.3688 
 373   0.0000       1.050484        28.5851 
 374   0.0000       1.070193        29.1214 
 375   0.0000       1.109674        30.1958 
 376   0.0000       1.150280        31.3007 
 377   0.0000       1.206866        32.8405 
 378   0.0000       1.212051        32.9816 
 379   0.0000       1.233771        33.5726 
 380   0.0000       1.253798        34.1176 
 381   0.0000       1.268346        34.5134 
 382   0.0000       1.273179        34.6450 
 383   0.0000       1.286719        35.0134 
 384   0.0000       1.292823        35.1795 
 385   0.0000       1.302548        35.4441 
 386   0.0000       1.308145        35.5964 
 387   0.0000       1.314179        35.7606 
 388   0.0000       1.333537        36.2874 
 389   0.0000       1.339398        36.4469 
 390   0.0000       1.345621        36.6162 
 391   0.0000       1.352976        36.8164 
 392   0.0000       1.354940        36.8698 
 393   0.0000       1.357401        36.9368 
 394   0.0000       1.362143        37.0658 
 395   0.0000       1.371308        37.3152 
 396   0.0000       1.379689        37.5433 
 397   0.0000       1.387215        37.7480 
 398   0.0000       1.387701        37.7613 
 399   0.0000       1.399187        38.0738 
 400   0.0000       1.409670        38.3591 
 401   0.0000       1.414675        38.4953 
 402   0.0000       1.418341        38.5950 
 403   0.0000       1.427352        38.8402 
 404   0.0000       1.429496        38.8986 
 405   0.0000       1.435567        39.0638 
 406   0.0000       1.441072        39.2136 
 407   0.0000       1.447356        39.3846 
 408   0.0000       1.451915        39.5086 
 409   0.0000       1.457245        39.6537 
 410   0.0000       1.457931        39.6723 
 411   0.0000       1.461634        39.7731 
 412   0.0000       1.464711        39.8568 
 413   0.0000       1.466076        39.8940 
 414   0.0000       1.469036        39.9745 
 415   0.0000       1.472695        40.0741 
 416   0.0000       1.477793        40.2128 
 417   0.0000       1.478887        40.2426 
 418   0.0000       1.479961        40.2718 
 419   0.0000       1.486967        40.4624 
 420   0.0000       1.491264        40.5794 
 421   0.0000       1.496753        40.7287 
 422   0.0000       1.499564        40.8052 
 423   0.0000       1.502432        40.8833 
 424   0.0000       1.504132        40.9295 
 425   0.0000       1.506151        40.9845 
 426   0.0000       1.508144        41.0387 
 427   0.0000       1.511883        41.1404 
 428   0.0000       1.512183        41.1486 
 429   0.0000       1.517508        41.2935 
 430   0.0000       1.518163        41.3113 
 431   0.0000       1.521213        41.3943 
 432   0.0000       1.525600        41.5137 
 433   0.0000       1.527420        41.5632 
 434   0.0000       1.528983        41.6058 
 435   0.0000       1.532017        41.6883 
 436   0.0000       1.533537        41.7297 
 437   0.0000       1.534986        41.7691 
 438   0.0000       1.537544        41.8387 
 439   0.0000       1.540249        41.9123 
 440   0.0000       1.541662        41.9508 
 441   0.0000       1.543299        41.9953 
 442   0.0000       1.544897        42.0388 
 443   0.0000       1.545349        42.0511 
 444   0.0000       1.545867        42.0652 
 445   0.0000       1.548606        42.1397 
 446   0.0000       1.549234        42.1568 
 447   0.0000       1.551947        42.2306 
 448   0.0000       1.553379        42.2696 
 449   0.0000       1.553670        42.2775 
 450   0.0000       1.555847        42.3368 
 451   0.0000       1.556109        42.3439 
 452   0.0000       1.558957        42.4214 
 453   0.0000       1.559489        42.4358 
 454   0.0000       1.559871        42.4462 
 455   0.0000       1.562534        42.5187 
 456   0.0000       1.562888        42.5283 
 457   0.0000       1.564320        42.5673 
 458   0.0000       1.565288        42.5937 
 459   0.0000       1.567169        42.6448 
 460   0.0000       1.567862        42.6637 
 461   0.0000       1.570775        42.7429 
 462   0.0000       1.570923        42.7470 
 463   0.0000       1.571610        42.7657 
 464   0.0000       1.572498        42.7898 
 465   0.0000       1.575937        42.8834 
 466   0.0000       1.577782        42.9336 
 467   0.0000       1.579040        42.9679 
 468   0.0000       1.581355        43.0308 
 469   0.0000       1.582435        43.0602 
 470   0.0000       1.583186        43.0807 
 471   0.0000       1.585452        43.1423 
 472   0.0000       1.587061        43.1861 
 473   0.0000       1.588204        43.2172 
 474   0.0000       1.589766        43.2597 
 475   0.0000       1.592292        43.3285 
 476   0.0000       1.596244        43.4360 
 477   0.0000       1.599308        43.5194 
 478   0.0000       1.600874        43.5620 
 479   0.0000       1.604635        43.6643 
 480   0.0000       1.608897        43.7803 
 481   0.0000       1.611062        43.8392 
 482   0.0000       1.615671        43.9646 
 483   0.0000       1.616111        43.9766 
 484   0.0000       1.616711        43.9929 
 485   0.0000       1.620481        44.0955 
 486   0.0000       1.620824        44.1049 
 487   0.0000       1.625539        44.2332 
 488   0.0000       1.626107        44.2486 
 489   0.0000       1.631803        44.4036 
 490   0.0000       1.632992        44.4360 
 491   0.0000       1.633226        44.4423 
 492   0.0000       1.635208        44.4963 
 493   0.0000       1.638129        44.5758 
 494   0.0000       1.642614        44.6978 
 495   0.0000       1.644274        44.7430 
 496   0.0000       1.644567        44.7509 
 497   0.0000       1.647545        44.8320 
 498   0.0000       1.648989        44.8713 
 499   0.0000       1.650418        44.9102 
 500   0.0000       1.652633        44.9704 
 501   0.0000       1.654912        45.0324 
 502   0.0000       1.656630        45.0792 
 503   0.0000       1.657434        45.1011 
 504   0.0000       1.659014        45.1441 
 505   0.0000       1.662011        45.2256 
 506   0.0000       1.662685        45.2440 
 507   0.0000       1.664666        45.2979 
 508   0.0000       1.667935        45.3868 
 509   0.0000       1.673205        45.5302 
 510   0.0000       1.674475        45.5648 
 511   0.0000       1.679178        45.6928 
 512   0.0000       1.681188        45.7474 
 513   0.0000       1.681299        45.7505 
 514   0.0000       1.684961        45.8501 
 515   0.0000       1.685902        45.8757 
 516   0.0000       1.687872        45.9293 
 517   0.0000       1.696223        46.1566 
 518   0.0000       1.697900        46.2022 
 519   0.0000       1.699867        46.2557 
 520   0.0000       1.701920        46.3116 
 521   0.0000       1.705960        46.4215 
 522   0.0000       1.711414        46.5699 
 523   0.0000       1.712236        46.5923 
 524   0.0000       1.717777        46.7431 
 525   0.0000       1.720212        46.8093 
 526   0.0000       1.733089        47.1597 
 527   0.0000       1.742189        47.4074 
 528   0.0000       1.745162        47.4883 
 529   0.0000       1.748738        47.5856 
 530   0.0000       1.753183        47.7065 
 531   0.0000       1.755308        47.7644 
 532   0.0000       1.771292        48.1993 
 533   0.0000       1.773105        48.2486 
 534   0.0000       1.775119        48.3034 
 535   0.0000       1.776502        48.3411 
 536   0.0000       1.780204        48.4418 
 537   0.0000       1.787973        48.6532 
 538   0.0000       1.798850        48.9492 
 539   0.0000       1.802670        49.0531 
 540   0.0000       1.805203        49.1221 
 541   0.0000       1.812781        49.3283 
 542   0.0000       1.816719        49.4354 
 543   0.0000       1.818327        49.4792 
 544   0.0000       1.821853        49.5751 
 545   0.0000       1.823609        49.6229 
 546   0.0000       1.829700        49.7887 
 547   0.0000       1.835347        49.9423 
 548   0.0000       1.839752        50.0622 
 549   0.0000       1.843518        50.1647 
 550   0.0000       1.847625        50.2764 
 551   0.0000       1.852690        50.4143 
 552   0.0000       1.853524        50.4370 
 553   0.0000       1.856612        50.5210 
 554   0.0000       1.859901        50.6105 
 555   0.0000       1.861470        50.6532 
 556   0.0000       1.866311        50.7849 
 557   0.0000       1.875467        51.0341 
 558   0.0000       1.886894        51.3450 
 559   0.0000       1.892716        51.5034 
 560   0.0000       1.910313        51.9823 
 561   0.0000       1.916511        52.1509 
 562   0.0000       1.921305        52.2814 
 563   0.0000       1.938463        52.7482 
 564   0.0000       1.947962        53.0068 
 565   0.0000       1.953000        53.1438 
 566   0.0000       1.956018        53.2259 
 567   0.0000       1.965484        53.4835 
 568   0.0000       1.983515        53.9742 
 569   0.0000       1.998399        54.3792 
 570   0.0000       2.009033        54.6686 
 571   0.0000       2.033175        55.3255 
 572   0.0000       2.060346        56.0649 
 573   0.0000       2.216592        60.3165 
 574   0.0000       2.331853        63.4529 
 575   0.0000       2.382838        64.8403 
 576   0.0000       2.403633        65.4062 
 577   0.0000       2.410421        65.5909 
 578   0.0000       2.460602        66.9564 
 579   0.0000       2.473317        67.3024 
 580   0.0000       2.492030        67.8116 
 581   0.0000       2.511912        68.3526 
 582   0.0000       2.520988        68.5996 
 583   0.0000       2.526139        68.7397 
 584   0.0000       2.526425        68.7475 
 585   0.0000       2.542856        69.1946 
 586   0.0000       2.570641        69.9507 
 587   0.0000       2.600559        70.7648 
 588   0.0000       2.621724        71.3407 
 589   0.0000       2.629050        71.5401 
 590   0.0000       2.647446        72.0407 
 591   0.0000       2.662756        72.4573 
 592   0.0000       2.669277        72.6347 
 593   0.0000       2.672982        72.7355 
 594   0.0000       2.688850        73.1673 
 595   0.0000       2.718884        73.9846 
 596   0.0000       2.744651        74.6857 
 597   0.0000       2.930820        79.7517 
 598   0.0000       2.947726        80.2117 
 599   0.0000       2.952081        80.3302 
 600   0.0000       2.955460        80.4221 
 601   0.0000       2.958193        80.4965 
 602   0.0000       2.972711        80.8916 
 603   0.0000       2.977690        81.0271 
 604   0.0000       3.123863        85.0046 
 605   0.0000      24.236799       659.5168 
 606   0.0000      24.392716       663.7596 
 607   0.0000      24.674486       671.4269 
 608   0.0000      24.738123       673.1585 
 609   0.0000      24.788625       674.5328 
 610   0.0000      25.142328       684.1575 
 611   0.0000      25.194438       685.5755 
 612   0.0000      25.321410       689.0306 
 613   0.0000      25.363129       690.1658 
 614   0.0000      25.477134       693.2681 
 615   0.0000      25.541379       695.0163 
 616   0.0000      25.635467       697.5765 
 617   0.0000      25.664673       698.3712 
 618   0.0000      25.739171       700.3984 
 619   0.0000      25.995755       707.3805 
 620   0.0000      26.001768       707.5441 
 621   0.0000      26.172329       712.1853 
 622   0.0000      26.303491       715.7544 
 623   0.0000      26.328603       716.4377 
 624   0.0000      26.362398       717.3573 
 625   0.0000      26.602416       723.8885 
 626   0.0000      26.661640       725.5001 
 627   0.0000      26.670912       725.7524 
 628   0.0000      26.720217       727.0941 
 629   0.0000      26.760754       728.1971 
 630   0.0000      26.974694       734.0187 
 631   0.0000      27.075230       736.7545 
 632   0.0000      27.105991       737.5915 
 633   0.0000      27.110202       737.7061 
 634   0.0000      27.209703       740.4137 
 635   0.0000      27.352003       744.2859 
 636   0.0000      27.449401       746.9362 
 637   0.0000      27.481797       747.8177 
 638   0.0000      27.494574       748.1654 
 639   0.0000      27.627433       751.7807 
 640   0.0000      27.651069       752.4238 
 641   0.0000      27.715002       754.1635 
 642   0.0000      27.824337       757.1387 
 643   0.0000      28.097236       764.5646 
 644   0.0000      28.299979       770.0816 
 645   0.0000      28.498364       775.4799 
 646   0.0000      28.727996       781.7285 
 647   0.0000      28.778162       783.0936 
 648   0.0000      28.873768       785.6952 
 649   0.0000      29.183297       794.1179 
 650   0.0000      29.741390       809.3044 
 651   0.0000      29.846636       812.1682 
 652   0.0000      32.485773       883.9828 
 653   0.0000      44.408593      1208.4192 
 654   0.0000      44.514423      1211.2990 
 655   0.0000      44.575020      1212.9480 
 656   0.0000      44.580007      1213.0837 
 657   0.0000      44.589652      1213.3461 
 658   0.0000      44.607213      1213.8240 
 659   0.0000      44.615431      1214.0476 
 660   0.0000      44.632960      1214.5246 
 661   0.0000      44.638320      1214.6704 
 662   0.0000      44.654034      1215.0980 
 663   0.0000      44.682139      1215.8628 
 664   0.0000      44.684122      1215.9168 
 665   0.0000      44.707531      1216.5538 
 666   0.0000      44.720512      1216.9070 
 667   0.0000      44.747680      1217.6463 
 668   0.0000      44.786028      1218.6898 
 669   0.0000     205.257821      5585.3493 
 670   0.0000     205.297955      5586.4414 
 671   0.0000     205.326632      5587.2217 
 672   0.0000     205.329160      5587.2905 
 673   0.0000     205.331127      5587.3440 
 674   0.0000     205.342137      5587.6436 
 675   0.0000     205.346819      5587.7710 
 676   0.0000     205.353263      5587.9464 
 677   0.0000     205.354583      5587.9823 
 678   0.0000     205.361866      5588.1805 
 679   0.0000     205.374990      5588.5376 
 680   0.0000     205.375491      5588.5512 
 681   0.0000     205.385516      5588.8240 
 682   0.0000     205.390068      5588.9479 
 683   0.0000     205.397045      5589.1377 
 684   0.0000     205.420229      5589.7686 

                 SPIN DOWN ORBITALS
  NO   OCC          E(Eh)            E(eV) 
   0   1.0000    -215.284313     -5858.1840 
   1   1.0000     -24.520691      -667.2419 
   2   1.0000     -20.804815      -566.1278 
   3   1.0000     -20.802208      -566.0569 
   4   1.0000     -20.796922      -565.9130 
   5   1.0000      -4.126234      -112.2805 
   6   1.0000      -4.122723      -112.1850 
   7   1.0000      -4.122612      -112.1820 
   8   1.0000      -4.121913      -112.1630 
   9   1.0000      -4.121830      -112.1607 
  10   1.0000      -4.121221      -112.1441 
  11   1.0000      -4.120686      -112.1296 
  12   1.0000      -4.118631      -112.0737 
  13   1.0000      -4.118458      -112.0689 
  14   1.0000      -4.117560      -112.0445 
  15   1.0000      -4.117465      -112.0419 
  16   1.0000      -4.115031      -111.9757 
  17   1.0000      -4.111460      -111.8785 
  18   1.0000      -4.111189      -111.8711 
  19   1.0000      -4.109870      -111.8352 
  20   1.0000      -4.109692      -111.8304 
  21   1.0000      -2.742908       -74.6383 
  22   1.0000      -2.314491       -62.9805 
  23   1.0000      -2.312247       -62.9194 
  24   1.0000      -2.312197       -62.9181 
  25   1.0000      -2.312133       -62.9163 
  26   1.0000      -2.312054       -62.9142 
  27   1.0000      -2.310907       -62.8830 
  28   1.0000      -2.309363       -62.8410 
  29   1.0000      -2.308848       -62.8269 
  30   1.0000      -2.308574       -62.8195 
  31   1.0000      -2.307670       -62.7949 
  32   1.0000      -2.307641       -62.7941 
  33   1.0000      -2.307556       -62.7918 
  34   1.0000      -2.307366       -62.7866 
  35   1.0000      -2.307183       -62.7817 
  36   1.0000      -2.307048       -62.7780 
  37   1.0000      -2.306627       -62.7665 
  38   1.0000      -2.306311       -62.7579 
  39   1.0000      -2.306077       -62.7515 
  40   1.0000      -2.305653       -62.7400 
  41   1.0000      -2.305208       -62.7279 
  42   1.0000      -2.304827       -62.7175 
  43   1.0000      -2.304720       -62.7146 
  44   1.0000      -2.304512       -62.7089 
  45   1.0000      -2.303910       -62.6926 
  46   1.0000      -2.303851       -62.6910 
  47   1.0000      -2.303733       -62.6878 
  48   1.0000      -2.303539       -62.6825 
  49   1.0000      -2.303154       -62.6720 
  50   1.0000      -2.302928       -62.6659 
  51   1.0000      -2.302699       -62.6596 
  52   1.0000      -2.302387       -62.6511 
  53   1.0000      -2.301384       -62.6238 
  54   1.0000      -2.301262       -62.6205 
  55   1.0000      -2.301092       -62.6159 
  56   1.0000      -2.300799       -62.6079 
  57   1.0000      -2.299022       -62.5596 
  58   1.0000      -2.298929       -62.5570 
  59   1.0000      -2.298786       -62.5532 
  60   1.0000      -2.298699       -62.5508 
  61   1.0000      -2.298278       -62.5393 
  62   1.0000      -2.297924       -62.5297 
  63   1.0000      -2.296985       -62.5041 
  64   1.0000      -2.295967       -62.4764 
  65   1.0000      -2.294310       -62.4313 
  66   1.0000      -2.294201       -62.4284 
  67   1.0000      -2.292828       -62.3910 
  68   1.0000      -2.291512       -62.3552 
  69   1.0000      -2.289689       -62.3056 
  70   1.0000      -1.698500       -46.2185 
  71   1.0000      -1.693049       -46.0702 
  72   1.0000      -1.679987       -45.7148 
  73   1.0000      -0.431764       -11.7489 
  74   1.0000      -0.396827       -10.7982 
  75   1.0000      -0.393284       -10.7018 
  76   1.0000      -0.393067       -10.6959 
  77   1.0000      -0.382720       -10.4143 
  78   1.0000      -0.376609       -10.2481 
  79   1.0000      -0.376417       -10.2428 
  80   1.0000      -0.372535       -10.1372 
  81   1.0000      -0.372079       -10.1248 
  82   1.0000      -0.368921       -10.0389 
  83   1.0000      -0.368765       -10.0346 
  84   1.0000      -0.363962        -9.9039 
  85   1.0000      -0.363469        -9.8905 
  86   1.0000      -0.362473        -9.8634 
  87   1.0000      -0.362265        -9.8577 
  88   1.0000      -0.360559        -9.8113 
  89   1.0000      -0.356325        -9.6961 
  90   1.0000      -0.354870        -9.6565 
  91   1.0000      -0.354782        -9.6541 
  92   1.0000      -0.353162        -9.6100 
  93   1.0000      -0.352319        -9.5871 
  94   1.0000      -0.349029        -9.4976 
  95   1.0000      -0.347288        -9.4502 
  96   1.0000      -0.347180        -9.4473 
  97   1.0000      -0.343665        -9.3516 
  98   1.0000      -0.343541        -9.3482 
  99   1.0000      -0.341431        -9.2908 
 100   1.0000      -0.340069        -9.2538 
 101   1.0000      -0.338673        -9.2158 
 102   1.0000      -0.334059        -9.0902 
 103   1.0000      -0.333931        -9.0867 
 104   1.0000      -0.327320        -8.9068 
 105   1.0000      -0.326182        -8.8759 
 106   1.0000      -0.324347        -8.8259 
 107   1.0000      -0.320217        -8.7135 
 108   1.0000      -0.319345        -8.6898 
 109   1.0000      -0.317546        -8.6409 
 110   1.0000      -0.313599        -8.5335 
 111   1.0000      -0.311431        -8.4745 
 112   1.0000      -0.309794        -8.4299 
 113   1.0000      -0.308631        -8.3983 
 114   1.0000      -0.303444        -8.2571 
 115   1.0000      -0.301887        -8.2148 
 116   1.0000      -0.297090        -8.0842 
 117   1.0000      -0.296044        -8.0558 
 118   1.0000      -0.295140        -8.0312 
 119   1.0000      -0.294076        -8.0022 
 120   1.0000      -0.293825        -7.9954 
 121   1.0000      -0.292910        -7.9705 
 122   1.0000      -0.292284        -7.9535 
 123   1.0000      -0.289720        -7.8837 
 124   1.0000      -0.285795        -7.7769 
 125   1.0000      -0.285353        -7.7648 
 126   1.0000      -0.284721        -7.7477 
 127   1.0000      -0.283507        -7.7146 
 128   1.0000      -0.282597        -7.6898 
 129   1.0000      -0.280787        -7.6406 
 130   1.0000      -0.279672        -7.6103 
 131   1.0000      -0.278161        -7.5691 
 132   1.0000      -0.278023        -7.5654 
 133   1.0000      -0.275971        -7.5095 
 134   1.0000      -0.273630        -7.4459 
 135   1.0000      -0.272200        -7.4069 
 136   1.0000      -0.271009        -7.3745 
 137   1.0000      -0.269836        -7.3426 
 138   1.0000      -0.269628        -7.3370 
 139   1.0000      -0.268836        -7.3154 
 140   1.0000      -0.265738        -7.2311 
 141   1.0000      -0.265442        -7.2230 
 142   1.0000      -0.263373        -7.1667 
 143   1.0000      -0.260921        -7.1000 
 144   1.0000      -0.259579        -7.0635 
 145   1.0000      -0.258838        -7.0434 
 146   1.0000      -0.257873        -7.0171 
 147   1.0000      -0.257525        -7.0076 
 148   1.0000      -0.256130        -6.9696 
 149   1.0000      -0.255360        -6.9487 
 150   1.0000      -0.253529        -6.8989 
 151   1.0000      -0.251937        -6.8556 
 152   1.0000      -0.249046        -6.7769 
 153   1.0000      -0.248405        -6.7594 
 154   1.0000      -0.244967        -6.6659 
 155   1.0000      -0.242179        -6.5900 
 156   1.0000      -0.236025        -6.4226 
 157   1.0000      -0.234162        -6.3719 
 158   1.0000      -0.217533        -5.9194 
 159   1.0000      -0.217116        -5.9080 
 160   1.0000      -0.202257        -5.5037 
 161   1.0000      -0.201146        -5.4735 
 162   0.0000      -0.180451        -4.9103 
[...]
      f0      :     0.000725  f :     0.005814
      f+1     :     0.000827
      f-1     :     0.001075
      f+2     :     0.000744
      f-2     :     0.000734
      f+3     :     0.000905
      f-3     :     0.000804
 10 Aus       :     2.481330  s :     2.481330
      pz      :     2.126318  p :     6.541250
      px      :     2.217134
      py      :     2.197797
      dz2     :     1.987864  d :     9.895842
      dxz     :     1.958138
      dyz     :     1.985551
      dx2y2   :     1.977690
      dxy     :     1.986598
      f0      :     0.000679  f :     0.006525
      f+1     :     0.000837
      f-1     :     0.000790
      f+2     :     0.001391
      f-2     :     0.000845
      f+3     :     0.001006
      f-3     :     0.000977
 11 Aus       :     2.516084  s :     2.516084
      pz      :     2.133109  p :     6.450755
      px      :     2.170753
      py      :     2.146893
      dz2     :     1.994818  d :     9.880419
      dxz     :     1.965026
      dyz     :     1.961163
      dx2y2   :     1.983981
      dxy     :     1.975432
      f0      :     0.000786  f :     0.005504
      f+1     :     0.000932
      f-1     :     0.000845
      f+2     :     0.000709
      f-2     :     0.000665
      f+3     :     0.000909
      f-3     :     0.000657
 12 Aus       :     2.518346  s :     2.518346
      pz      :     2.096086  p :     6.444674
      px      :     2.168898
      py      :     2.179691
      dz2     :     1.960057  d :     9.892888
      dxz     :     1.989646
      dyz     :     1.993754
      dx2y2   :     1.969100
      dxy     :     1.980331
      f0      :     0.000738  f :     0.005279
      f+1     :     0.000747
      f-1     :     0.000767
      f+2     :     0.000939
      f-2     :     0.000755
      f+3     :     0.000754
      f-3     :     0.000579
 13 Aus       :     2.552748  s :     2.552748
      pz      :     2.162926  p :     6.448094
      px      :     2.144200
      py      :     2.140968
      dz2     :     1.985070  d :     9.893685
      dxz     :     1.974702
      dyz     :     1.973352
      dx2y2   :     1.997948
      dxy     :     1.962613
      f0      :     0.000832  f :     0.004840
      f+1     :     0.000555
      f-1     :     0.000573
      f+2     :     0.000741
      f-2     :     0.000676
      f+3     :     0.000818
      f-3     :     0.000646
 14 Aus       :     2.529079  s :     2.529079
      pz      :     2.172361  p :     6.441332
      px      :     2.092165
      py      :     2.176806
      dz2     :     1.966932  d :     9.896197
      dxz     :     1.998696
      dyz     :     1.976429
      dx2y2   :     1.972959
      dxy     :     1.981180
      f0      :     0.000521  f :     0.005134
      f+1     :     0.000955
      f-1     :     0.000613
      f+2     :     0.000747
      f-2     :     0.000729
      f+3     :     0.000741
      f-3     :     0.000828
 15 Aus       :     2.502795  s :     2.502795
      pz      :     2.166213  p :     6.501204
      px      :     2.217053
      py      :     2.117938
      dz2     :     1.977214  d :     9.879123
      dxz     :     1.981866
      dyz     :     1.987499
      dx2y2   :     1.955968
      dxy     :     1.976576
      f0      :     0.000797  f :     0.006381
      f+1     :     0.000760
      f-1     :     0.000899
      f+2     :     0.000971
      f-2     :     0.000741
      f+3     :     0.001001
      f-3     :     0.001212
 16 Crs       :     6.227297  s :     6.227297
      pz      :     4.194230  p :    12.554167
      px      :     4.173601
      py      :     4.186336
      dz2     :     1.321021  d :     6.542690
      dxz     :     1.314428
      dyz     :     1.264126
      dx2y2   :     1.348525
      dxy     :     1.294589
      f0      :     0.000274  f :     0.001845
      f+1     :     0.000272
      f-1     :     0.000272
      f+2     :     0.000215
      f-2     :     0.000312
      f+3     :     0.000205
      f-3     :     0.000295

SPIN
  0 Aus       :    -0.029422  s :    -0.029422
      pz      :    -0.025406  p :    -0.042068
      px      :     0.005180
      py      :    -0.021842
      dz2     :     0.004131  d :     0.026181
      dxz     :     0.005472
      dyz     :    -0.001028
      dx2y2   :     0.003814
      dxy     :     0.013792
      f0      :    -0.000077  f :     0.000143
      f+1     :     0.000041
      f-1     :     0.000010
      f+2     :     0.000013
      f-2     :    -0.000012
      f+3     :     0.000039
      f-3     :     0.000129
  1 Aus       :    -0.004341  s :    -0.004341
      pz      :    -0.001629  p :    -0.032787
      px      :    -0.021596
      py      :    -0.009562
      dz2     :    -0.004686  d :    -0.019335
      dxz     :     0.000764
      dyz     :     0.000286
      dx2y2   :    -0.008126
      dxy     :    -0.007573
      f0      :    -0.000009  f :    -0.000064
      f+1     :    -0.000013
      f-1     :    -0.000009
      f+2     :     0.000001
      f-2     :    -0.000003
      f+3     :    -0.000025
      f-3     :    -0.000005
  2 Aus       :     0.010948  s :     0.010948
      pz      :     0.002305  p :    -0.010671
      px      :     0.001555
      py      :    -0.014531
      dz2     :    -0.003740  d :    -0.018500
      dxz     :    -0.000753
      dyz     :    -0.000226
      dx2y2   :    -0.007152
      dxy     :    -0.006629
      f0      :    -0.000016  f :    -0.000027
      f+1     :    -0.000002
      f-1     :     0.000001
      f+2     :     0.000001
      f-2     :     0.000004
      f+3     :     0.000003
      f-3     :    -0.000018
  3 Aus       :    -0.150133  s :    -0.150133
      pz      :     0.005516  p :    -0.001901
      px      :    -0.004170
      py      :    -0.003247
      dz2     :     0.000313  d :     0.003115
      dxz     :     0.000564
      dyz     :     0.001450
      dx2y2   :     0.001986
      dxy     :    -0.001198
      f0      :    -0.000005  f :     0.000024
      f+1     :     0.000008
      f-1     :     0.000010
      f+2     :     0.000006
      f-2     :    -0.000000
      f+3     :    -0.000007
      f-3     :     0.000010
  4 Aus       :    -0.056899  s :    -0.056899
      pz      :    -0.017375  p :    -0.055726
      px      :    -0.014606
      py      :    -0.023745
      dz2     :     0.001158  d :     0.004834
      dxz     :     0.003395
      dyz     :     0.002660
      dx2y2   :    -0.002620
      dxy     :     0.000241
      f0      :     0.000047  f :     0.000368
      f+1     :     0.000045
      f-1     :     0.000087
      f+2     :    -0.000005
      f-2     :     0.000138
      f+3     :     0.000018
      f-3     :     0.000039
  5 Aus       :    -0.038346  s :    -0.038346
      pz      :    -0.000328  p :    -0.043738
      px      :    -0.016309
      py      :    -0.027101
      dz2     :     0.009357  d :     0.021884
      dxz     :     0.005555
      dyz     :     0.007619
      dx2y2   :     0.001840
      dxy     :    -0.002487
      f0      :     0.000163  f :     0.000327
      f+1     :     0.000093
      f-1     :     0.000152
      f+2     :    -0.000004
      f-2     :     0.000012
      f+3     :    -0.000066
      f-3     :    -0.000024
  6 Aus       :    -0.057541  s :    -0.057541
      pz      :    -0.031870  p :    -0.060414
      px      :    -0.025505
      py      :    -0.003038
      dz2     :     0.003092  d :    -0.005483
      dxz     :    -0.010937
      dyz     :     0.001361
      dx2y2   :    -0.001910
      dxy     :     0.002911
      f0      :     0.000040  f :     0.000389
      f+1     :    -0.000014
      f-1     :     0.000069
      f+2     :     0.000076
      f-2     :    -0.000005
      f+3     :     0.000065
      f-3     :     0.000158
  7 Aus       :    -0.046039  s :    -0.046039
      pz      :    -0.025277  p :    -0.049648
      px      :    -0.005881
      py      :    -0.018489
      dz2     :    -0.003148  d :     0.000923
      dxz     :     0.003565
      dyz     :    -0.001128
      dx2y2   :     0.001105
      dxy     :     0.000529
      f0      :     0.000026  f :     0.000402
      f+1     :     0.000081
      f-1     :     0.000016
      f+2     :     0.000066
      f-2     :     0.000146
      f+3     :     0.000019
      f-3     :     0.000049
  8 Aus       :    -0.005037  s :    -0.005037
      pz      :    -0.015133  p :    -0.033259
      px      :    -0.013908
      py      :    -0.004217
      dz2     :     0.001631  d :    -0.019378
      dxz     :    -0.017727
      dyz     :    -0.001632
      dx2y2   :    -0.002576
      dxy     :     0.000926
      f0      :    -0.000002  f :    -0.000062
      f+1     :    -0.000028
      f-1     :    -0.000002
      f+2     :    -0.000019
      f-2     :    -0.000007
      f+3     :    -0.000010
      f-3     :     0.000007
  9 Aus       :     0.010831  s :     0.010831
      pz      :    -0.007538  p :    -0.011287
      px      :     0.001771
      py      :    -0.005519
      dz2     :    -0.000021  d :    -0.018964
      dxz     :    -0.001219
      dyz     :    -0.014221
      dx2y2   :    -0.001280
      dxy     :    -0.002224
      f0      :     0.000010  f :    -0.000030
      f+1     :    -0.000001
      f-1     :    -0.000025
      f+2     :     0.000002
      f-2     :    -0.000012
      f+3     :     0.000005
      f-3     :    -0.000009
 10 Aus       :    -0.038674  s :    -0.038674
      pz      :    -0.015507  p :    -0.043868
      px      :    -0.006085
      py      :    -0.022276
      dz2     :     0.005436  d :     0.021694
      dxz     :     0.006394
      dyz     :     0.003662
      dx2y2   :     0.004463
      dxy     :     0.001738
      f0      :     0.000006  f :     0.000332
      f+1     :     0.000123
      f-1     :     0.000042
      f+2     :     0.000048
      f-2     :     0.000121
      f+3     :    -0.000008
      f-3     :     0.000000
 11 Aus       :    -0.057513  s :    -0.057513
      pz      :    -0.014116  p :    -0.059988
      px      :    -0.024697
      py      :    -0.021175
      dz2     :    -0.002121  d :    -0.005238
      dxz     :     0.001788
      dyz     :     0.002653
      dx2y2   :    -0.006146
      dxy     :    -0.001411
      f0      :     0.000019  f :     0.000393
      f+1     :     0.000056
      f-1     :     0.000115
      f+2     :     0.000063
      f-2     :     0.000130
      f+3     :    -0.000005
      f-3     :     0.000014
 12 Aus       :    -0.045508  s :    -0.045508
      pz      :    -0.005522  p :    -0.049449
      px      :    -0.016170
      py      :    -0.027757
      dz2     :     0.005830  d :     0.000884
      dxz     :     0.004417
      dyz     :     0.002229
      dx2y2   :    -0.001949
      dxy     :    -0.009642
      f0      :     0.000180  f :     0.000399
      f+1     :     0.000120
      f-1     :     0.000098
      f+2     :     0.000015
      f-2     :    -0.000008
      f+3     :     0.000000
      f-3     :    -0.000006
 13 Aus       :    -0.144237  s :    -0.144237
      pz      :    -0.008355  p :    -0.031989
      px      :    -0.013784
      py      :    -0.009849
      dz2     :    -0.001914  d :     0.007055
      dxz     :     0.000404
      dyz     :     0.002137
      dx2y2   :     0.003573
      dxy     :     0.002855
      f0      :     0.000051  f :     0.000407
      f+1     :     0.000019
      f-1     :     0.000019
      f+2     :     0.000022
      f-2     :     0.000152
      f+3     :     0.000078
      f-3     :     0.000067
 14 Aus       :    -0.026786  s :    -0.026786
      pz      :    -0.016829  p :    -0.047793
      px      :     0.002007
      py      :    -0.032971
      dz2     :    -0.000756  d :     0.002645
      dxz     :     0.002656
      dyz     :    -0.005113
      dx2y2   :     0.001218
      dxy     :     0.004640
      f0      :     0.000027  f :     0.000376
      f+1     :     0.000099
      f-1     :     0.000006
      f+2     :     0.000011
      f-2     :    -0.000001
      f+3     :     0.000081
      f-3     :     0.000152
 15 Aus       :    -0.057182  s :    -0.057182
      pz      :    -0.027960  p :    -0.056365
      px      :    -0.020081
      py      :    -0.008324
      dz2     :     0.000854  d :     0.004364
      dxz     :    -0.003719
      dyz     :     0.002450
      dx2y2   :    -0.000369
      dxy     :     0.005148
      f0      :     0.000026  f :     0.000365
      f+1     :    -0.000030
      f-1     :     0.000065
      f+2     :     0.000086
      f-2     :     0.000041
      f+3     :     0.000091
      f-3     :     0.000087
 16 Crs       :     0.019900  s :     0.019900
      pz      :     0.014742  p :     0.044465
      px      :     0.014278
      py      :     0.015445
      dz2     :     0.641776  d :     3.291959
      dxz     :     0.697102
      dyz     :     0.558093
      dx2y2   :     0.765059
      dxy     :     0.629929
      f0      :     0.000014  f :     0.000085
      f+1     :     0.000014
      f-1     :     0.000017
      f+2     :     0.000013
      f-2     :     0.000008
      f+3     :     0.000005
      f-3     :     0.000014


                      *****************************
                      * MAYER POPULATION ANALYSIS *
                      *****************************

  NA   - Mulliken gross atomic population
  ZA   - Total nuclear charge
  QA   - Mulliken gross atomic charge
  VA   - Mayer's total valence
  BVA  - Mayer's bonded valence
  FA   - Mayer's free valence

  ATOM       NA         ZA         QA         VA         BVA        FA
  0 Au    18.9465    19.0000     0.0535     1.9965     1.9934     0.0030
  1 Au    18.9973    19.0000     0.0027     1.8398     1.8368     0.0030
  2 Au    18.7560    19.0000     0.2440     1.5405     1.5376     0.0029
  3 Au    18.6929    19.0000     0.3071     1.4705     1.4028     0.0677
  4 Au    18.6012    19.0000     0.3988     1.8798     1.8705     0.0093
  5 Au    18.8420    19.0000     0.1580     2.0100     2.0051     0.0049
  6 Au    18.4348    19.0000     0.5652     1.6937     1.6865     0.0073
  7 Au    18.4226    19.0000     0.5774     1.6163     1.6121     0.0042
  8 Au    18.9975    19.0000     0.0025     1.8410     1.8379     0.0031
  9 Au    18.7638    19.0000     0.2362     1.5490     1.5462     0.0028
 10 Au    18.8367    19.0000     0.1633     2.0080     2.0030     0.0050
 11 Au    18.4338    19.0000     0.5662     1.6957     1.6885     0.0072
 12 Au    18.4241    19.0000     0.5759     1.6142     1.6102     0.0040
 13 Au    18.6532    19.0000     0.3468     1.6190     1.5574     0.0616
 14 Au    18.4558    19.0000     0.5442     1.5800     1.5776     0.0024
 15 Au    18.5982    19.0000     0.4018     1.8744     1.8650     0.0094
 16 Cr    29.1437    24.0000    -5.1437    10.7164     7.4809     3.2356

  Mayer bond orders larger than 0.100000
B(  0-Au,  2-Au) :   0.2633 B(  0-Au,  5-Au) :   0.1368 B(  0-Au,  6-Au) :   0.1947 
B(  0-Au,  9-Au) :   0.2617 B(  0-Au, 10-Au) :   0.1333 B(  0-Au, 11-Au) :   0.1949 
B(  0-Au, 16-Cr) :   0.5097 B(  1-Au,  2-Au) :   0.2161 B(  1-Au,  3-Au) :   0.3192 
B(  1-Au,  4-Au) :   0.2901 B(  1-Au,  5-Au) :   0.2227 B(  1-Au,  8-Au) :   0.2596 
B(  1-Au, 16-Cr) :   0.3592 B(  2-Au,  3-Au) :   0.1926 B(  2-Au,  5-Au) :   0.2943 
B(  2-Au,  9-Au) :   0.1960 B(  2-Au, 16-Cr) :   0.2813 B(  3-Au,  8-Au) :   0.3172 
B(  3-Au,  9-Au) :   0.2012 B(  4-Au,  5-Au) :   0.1342 B(  4-Au,  7-Au) :   0.1612 
B(  4-Au, 14-Au) :   0.2010 B(  4-Au, 15-Au) :   0.2110 B(  4-Au, 16-Cr) :   0.6023 
B(  5-Au,  6-Au) :   0.1496 B(  5-Au,  7-Au) :   0.2178 B(  5-Au, 16-Cr) :   0.5692 
B(  6-Au,  7-Au) :   0.1817 B(  6-Au, 11-Au) :   0.1624 B(  6-Au, 13-Au) :   0.1731 
B(  6-Au, 16-Cr) :   0.6099 B(  7-Au, 13-Au) :   0.1509 B(  7-Au, 14-Au) :   0.1465 
B(  7-Au, 16-Cr) :   0.5337 B(  8-Au,  9-Au) :   0.2161 B(  8-Au, 10-Au) :   0.2234 
B(  8-Au, 15-Au) :   0.2892 B(  8-Au, 16-Cr) :   0.3606 B(  9-Au, 10-Au) :   0.2919 
B(  9-Au, 16-Cr) :   0.2847 B( 10-Au, 11-Au) :   0.1512 B( 10-Au, 12-Au) :   0.2165 
B( 10-Au, 15-Au) :   0.1341 B( 10-Au, 16-Cr) :   0.5702 B( 11-Au, 12-Au) :   0.1823 
B( 11-Au, 13-Au) :   0.1718 B( 11-Au, 16-Cr) :   0.6116 B( 12-Au, 13-Au) :   0.1527 
B( 12-Au, 14-Au) :   0.1425 B( 12-Au, 15-Au) :   0.1644 B( 12-Au, 16-Cr) :   0.5316 
B( 13-Au, 14-Au) :   0.1668 B( 13-Au, 16-Cr) :   0.4980 B( 14-Au, 15-Au) :   0.2013 
B( 14-Au, 16-Cr) :   0.4638 B( 15-Au, 16-Cr) :   0.5979 

-------
TIMINGS
-------

Total SCF time: 0 days 0 hours 18 min 0 sec 

Total time                  ....    1080.736 sec
Sum of individual times     ....    1044.660 sec  ( 96.7%)

Fock matrix formation       ....     640.554 sec  ( 59.3%)
  Split-RI-J                ....     160.363 sec  ( 25.0% of F)
  XC integration            ....     419.184 sec  ( 65.4% of F)
    Basis function eval.    ....      23.493 sec  (  5.6% of XC)
    Density eval.           ....     192.561 sec  ( 45.9% of XC)
    XC-Functional eval.     ....      12.942 sec  (  3.1% of XC)
    XC-Potential eval.      ....     162.192 sec  ( 38.7% of XC)
Diagonalization             ....     388.846 sec  ( 36.0%)
Density matrix formation    ....       6.359 sec  (  0.6%)
Population analysis         ....       3.468 sec  (  0.3%)
Initial guess               ....       0.820 sec  (  0.1%)
Orbital Transformation      ....       0.000 sec  (  0.0%)
Orbital Orthonormalization  ....       0.558 sec  (  0.1%)
DIIS solution               ....       0.000 sec  (  0.0%)
Grid generation             ....       4.612 sec  (  0.4%)

Maximum memory used throughout the entire SCF-calculation: 122.6 MB

-------------------------   --------------------
FINAL SINGLE POINT ENERGY     -3218.028936503592
-------------------------   --------------------


                            ***************************************
                            *     ORCA property calculations      *
                            ***************************************

                                    ---------------------
                                    Active property flags
                                    ---------------------
   (+) Dipole Moment


------------------------------------------------------------------------------
                       ORCA ELECTRIC PROPERTIES CALCULATION
------------------------------------------------------------------------------

Dipole Moment Calculation                       ... on
Quadrupole Moment Calculation                   ... off
Polarizability Calculation                      ... off
GBWName                                         ... scan_job2.gbw
Electron density                                ... scan_job2.scfp
The origin for moment calculation is the CENTER OF MASS  = (14.589980, 14.778598 13.998673)

-------------
DIPOLE MOMENT
-------------
                                X             Y             Z
Electronic contribution:     26.63972      16.27817      13.58494
Nuclear contribution   :    -27.05654     -16.63558     -13.83552
                        -----------------------------------------
Total Dipole Moment    :     -0.41681      -0.35741      -0.25058
                        -----------------------------------------
Magnitude (a.u.)       :      0.60354
Magnitude (Debye)      :      1.53408



--------------------
Rotational spectrum 
--------------------
 
Rotational constants in cm-1:     0.001107     0.000699     0.000697 
Rotational constants in MHz :    33.183824    20.942111    20.909492 

 Dipole components along the rotational axes: 
x,y,z [a.u.] :     0.596527     0.087570    -0.027362 
x,y,z [Debye]:     1.516252     0.222586    -0.069548 

 

Timings for individual modules:

Sum of individual times         ...     1115.533 sec (=  18.592 min)
GTO integral calculation        ...       33.632 sec (=   0.561 min)   3.0 %
SCF iterations                  ...     1081.901 sec (=  18.032 min)  97.0 %



                             ****ORCA TERMINATED NORMALLY****
TOTAL RUN TIME: 0 days 0 hours 36 minutes 27 seconds 399 msec
