
                                 *****************
                                 * O   R   C   A *
                                 *****************

                                            #,                                       
                                            ###                                      
                                            ####                                     
                                            #####                                    
                                            ######                                   
                                           ########,                                 
                                     ,,################,,,,,                         
                               ,,#################################,,                 
                          ,,##########################################,,             
                       ,#########################################, ''#####,          
                    ,#############################################,,   '####,        
                  ,##################################################,,,,####,       
                ,###########''''           ''''###############################       
              ,#####''   ,,,,##########,,,,          '''####'''          '####       
            ,##' ,,,,###########################,,,                        '##       
           ' ,,###''''                  '''############,,,                           
         ,,##''                                '''############,,,,        ,,,,,,###''
      ,#''                                            '''#######################'''  
     '                                                          ''''####''''         
             ,#######,   #######,   ,#######,      ##                                
            ,#'     '#,  ##    ##  ,#'     '#,    #''#        ######   ,####,        
            ##       ##  ##   ,#'  ##            #'  '#       #        #'  '#        
            ##       ##  #######   ##           ,######,      #####,   #    #        
            '#,     ,#'  ##    ##  '#,     ,#' ,#      #,         ##   #,  ,#        
             '#######'   ##     ##  '#######'  #'      '#     #####' # '####'        



                  #######################################################
                  #                        -***-                        #
                  #          Department of theory and spectroscopy      #
                  #    Directorship and core code : Frank Neese         #
                  #        Max Planck Institute fuer Kohlenforschung    #
                  #                Kaiser Wilhelm Platz 1               #
                  #                 D-45470 Muelheim/Ruhr               #
                  #                      Germany                        #
                  #                                                     #
                  #                  All rights reserved                #
                  #                        -***-                        #
                  #######################################################


                         Program Version 5.0.3 -  RELEASE  -


 With contributions from (in alphabetic order):
   Daniel Aravena         : Magnetic Suceptibility
   Michael Atanasov       : Ab Initio Ligand Field Theory (pilot matlab implementation)
   Alexander A. Auer      : GIAO ZORA, VPT2 properties, NMR spectrum
   Ute Becker             : Parallelization
   Giovanni Bistoni       : ED, misc. LED, open-shell LED, HFLD
   Martin Brehm           : Molecular dynamics
   Dmytro Bykov           : SCF Hessian
   Vijay G. Chilkuri      : MRCI spin determinant printing, contributions to CSF-ICE
   Dipayan Datta          : RHF DLPNO-CCSD density
   Achintya Kumar Dutta   : EOM-CC, STEOM-CC
   Dmitry Ganyushin       : Spin-Orbit,Spin-Spin,Magnetic field MRCI
   Miquel Garcia          : C-PCM and meta-GGA Hessian, CC/C-PCM, Gaussian charge scheme
   Yang Guo               : DLPNO-NEVPT2, F12-NEVPT2, CIM, IAO-localization
   Andreas Hansen         : Spin unrestricted coupled pair/coupled cluster methods
   Benjamin Helmich-Paris : MC-RPA, TRAH-SCF, COSX integrals
   Lee Huntington         : MR-EOM, pCC
   Robert Izsak           : Overlap fitted RIJCOSX, COSX-SCS-MP3, EOM
   Marcus Kettner         : VPT2
   Christian Kollmar      : KDIIS, OOCD, Brueckner-CCSD(T), CCSD density, CASPT2, CASPT2-K
   Simone Kossmann        : Meta GGA functionals, TD-DFT gradient, OOMP2, MP2 Hessian
   Martin Krupicka        : Initial AUTO-CI
   Lucas Lang             : DCDCAS
   Marvin Lechner         : AUTO-CI (C++ implementation), FIC-MRCC
   Dagmar Lenk            : GEPOL surface, SMD
   Dimitrios Liakos       : Extrapolation schemes; Compound Job, initial MDCI parallelization
   Dimitrios Manganas     : Further ROCIS development; embedding schemes
   Dimitrios Pantazis     : SARC Basis sets
   Anastasios Papadopoulos: AUTO-CI, single reference methods and gradients
   Taras Petrenko         : DFT Hessian,TD-DFT gradient, ASA, ECA, R-Raman, ABS, FL, XAS/XES, NRVS
   Peter Pinski           : DLPNO-MP2, DLPNO-MP2 Gradient
   Christoph Reimann      : Effective Core Potentials
   Marius Retegan         : Local ZFS, SOC
   Christoph Riplinger    : Optimizer, TS searches, QM/MM, DLPNO-CCSD(T), (RO)-DLPNO pert. Triples
   Tobias Risthaus        : Range-separated hybrids, TD-DFT gradient, RPA, STAB
   Michael Roemelt        : Original ROCIS implementation
   Masaaki Saitow         : Open-shell DLPNO-CCSD energy and density
   Barbara Sandhoefer     : DKH picture change effects
   Avijit Sen             : IP-ROCIS
   Kantharuban Sivalingam : CASSCF convergence, NEVPT2, FIC-MRCI
   Bernardo de Souza      : ESD, SOC TD-DFT
   Georgi Stoychev        : AutoAux, RI-MP2 NMR, DLPNO-MP2 response
   Willem Van den Heuvel  : Paramagnetic NMR
   Boris Wezisla          : Elementary symmetry handling
   Frank Wennmohs         : Technical directorship


 We gratefully acknowledge several colleagues who have allowed us to
 interface, adapt or use parts of their codes:
   Stefan Grimme, W. Hujo, H. Kruse, P. Pracht,  : VdW corrections, initial TS optimization,
                  C. Bannwarth, S. Ehlert          DFT functionals, gCP, sTDA/sTD-DF
   Ed Valeev, F. Pavosevic, A. Kumar             : LibInt (2-el integral package), F12 methods
   Garnet Chan, S. Sharma, J. Yang, R. Olivares  : DMRG
   Ulf Ekstrom                                   : XCFun DFT Library
   Mihaly Kallay                                 : mrcc  (arbitrary order and MRCC methods)
   Jiri Pittner, Ondrej Demel                    : Mk-CCSD
   Frank Weinhold                                : gennbo (NPA and NBO analysis)
   Christopher J. Cramer and Donald G. Truhlar   : smd solvation model
   Lars Goerigk                                  : TD-DFT with DH, B97 family of functionals
   V. Asgeirsson, H. Jonsson                     : NEB implementation
   FAccTs GmbH                                   : IRC, NEB, NEB-TS, DLPNO-Multilevel, CI-OPT
                                                   MM, QMMM, 2- and 3-layer-ONIOM, Crystal-QMMM,
                                                   LR-CPCM, SF, NACMEs, symmetry and pop. for TD-DFT,
                                                   nearIR, NL-DFT gradient (VV10), updates on ESD,
                                                   ML-optimized integration grids
   S Lehtola, MJT Oliveira, MAL Marques          : LibXC Library
   Liviu Ungur et al                             : ANISO software


 Your calculation uses the libint2 library for the computation of 2-el integrals
 For citations please refer to: http://libint.valeyev.net

 Your ORCA version has been built with support for libXC version: 5.1.0
 For citations please refer to: https://tddft.org/programs/libxc/

 This ORCA versions uses:
   CBLAS   interface :  Fast vector & matrix operations
   LAPACKE interface :  Fast linear algebra routines
   SCALAPACK package :  Parallel linear algebra routines
   Shared memory     :  Shared parallel matrices
   BLAS/LAPACK       :  OpenBLAS 0.3.15  USE64BITINT DYNAMIC_ARCH NO_AFFINITY Haswell SINGLE_THREADED
        Core in use  :  Haswell
   Copyright (c) 2011-2014, The OpenBLAS Project




***************************************
The coordinates will be read from file: 9.xyz
***************************************


================================================================================

cite the ECPs for Au [Def2-ECP] as follows:
Ce-Yb(ecp-28): M. Dolg, H. Stoll, H.Preuss, J. Chem. Phys., 1989, 90, 1730-1734.
Y-Cd(ecp-28), Hf-Hg(ecp-46): D. Andrae,U. Haeussermann, M. Dolg, H. Stoll, H. Preuss, Theor. Chim. Acta, 1990, 77, 123-141.
In-Sb(ecp-28), Tl-Bi(ecp-46): B. Metz, H. Stoll, M. Dolg, J. Chem. Phys., 2000, 113, 2563-2569.
Te-Xe(ecp-28), Po-Rn(ecp-46): K. A. Peterson, D. Figgen, E. Goll, H. Stoll, M. Dolg, J. Chem. Phys., 2003, 119, 11113-11123.
Rb(ecp-28), Cs(ecp-46): T. Leininger, A. Nicklass, W. Kuechle, H. Stoll, M. Dolg, A. Bergner, Chem. Phys. Lett., 1996, 255, 274-280.
Sr(ecp-28), Ba(ecp-46): M. Kaupp, P. V. Schleyer, H. Stoll and H. Preuss, J. Chem. Phys., 1991, 94, 1360-1366.
La(ecp-46): M. Dolg, H. Stoll, A. Savin, H. Preuss, Theor. Chim. Acta, 1989, 75, 173-194.
Lu(ecp-28): X. Cao, M. Dolg, J. Chem. Phys., 2001, 115, 7348-7355.

ECP parameters for Au [Def2-ECP] have been obtained from:
TURBOMOLE (7.0.2)

----- Orbital basis set information -----
Your calculation utilizes the basis: def2-TZVP
   F. Weigend and R. Ahlrichs, Phys. Chem. Chem. Phys. 7, 3297 (2005).

----- AuxJ basis set information -----
Your calculation utilizes the auxiliary basis: def2/J
   F. Weigend, Phys. Chem. Chem. Phys. 8, 1057 (2006).

================================================================================
                                        WARNINGS
                       Please study these warnings very carefully!
================================================================================


WARNING: your system is open-shell and RHF/RKS was chosen
  ===> : WILL SWITCH to UHF/UKS


WARNING: Geometry Optimization
  ===> : Switching off AutoStart
         For restart on a previous wavefunction, please use MOREAD

INFO   : the flag for use of the SHARK integral package has been found!

================================================================================
                                       INPUT FILE
================================================================================
NAME = pbe.inp
|  1> %pal nprocs 1 end 
|  2> 
|  3> !PBE def2-TZVP OPT UNO
|  4> !SLOWCONV
|  5> 
|  6> *xyzfile 0 3 9.xyz                           ****END OF INPUT****
================================================================================

                       *****************************
                       * Geometry Optimization Run *
                       *****************************

Geometry optimization settings:
Update method            Update   .... BFGS
Choice of coordinates    CoordSys .... Z-matrix Internals
Initial Hessian          InHess   .... Almoef's Model

Convergence Tolerances:
Energy Change            TolE     ....  5.0000e-06 Eh
Max. Gradient            TolMAXG  ....  3.0000e-04 Eh/bohr
RMS Gradient             TolRMSG  ....  1.0000e-04 Eh/bohr
Max. Displacement        TolMAXD  ....  4.0000e-03 bohr
RMS Displacement         TolRMSD  ....  2.0000e-03 bohr
Strict Convergence                ....  False
------------------------------------------------------------------------------
                        ORCA OPTIMIZATION COORDINATE SETUP
------------------------------------------------------------------------------

The optimization will be done in new redundant internal coordinates
Making redundant internal coordinates   ...  (new redundants) done
Evaluating the initial hessian          ...  (Almloef) done
Evaluating the coordinates              ...  done
Calculating the B-matrix                .... done
Calculating the G-matrix                .... done
Diagonalizing the G-matrix              .... done
The first mode is                       ....  613
The number of degrees of freedom        ....   39

    -----------------------------------------------------------------
                    Redundant Internal Coordinates


    -----------------------------------------------------------------
         Definition                    Initial Value    Approx d2E/dq
    -----------------------------------------------------------------
      1. B(Au  1,Au  0)                  2.8363         0.005962   
      2. B(Au  2,Au  0)                  2.8189         0.006357   
      3. B(Au  3,Au  2)                  2.8485         0.005702   
      4. B(Au  3,Au  1)                  2.8814         0.005052   
      5. B(Au  3,Au  0)                  2.8492         0.005686   
      6. B(Au  4,Au  2)                  2.8369         0.005949   
      7. B(Au  4,Au  3)                  2.8812         0.005056   
      8. B(Au  6,Au  5)                  2.8889         0.004915   
      9. B(Au  6,Au  4)                  2.8314         0.006071   
     10. B(Au  6,Au  3)                  2.8496         0.005678   
     11. B(Au  6,Au  1)                  2.8310         0.006079   
     12. B(Au  7,Au  6)                  2.8896         0.004902   
     13. B(Au  8,Au  2)                  2.8366         0.005956   
     14. B(Au  9,Au  0)                  2.8368         0.005951   
     15. B(Au 10,Au  2)                  2.8501         0.005668   
     16. B(Au 10,Au  0)                  2.8486         0.005699   
     17. B(Au 10,Au  9)                  2.8808         0.005063   
     18. B(Au 10,Au  8)                  2.8816         0.005048   
     19. B(Au 13,Au  9)                  2.8306         0.006088   
     20. B(Au 13,Au  8)                  2.8319         0.006060   
     21. B(Au 13,Au 12)                  2.8907         0.004882   
     22. B(Au 13,Au 11)                  2.8891         0.004912   
     23. B(Au 13,Au 10)                  2.8492         0.005687   
     24. B(Fe 14,Au 11)                  2.5761         0.112737   
     25. B(Fe 14,Au  9)                  2.7204         0.066368   
     26. B(Fe 14,Au  5)                  2.5764         0.112626   
     27. B(Fe 14,Au  6)                  3.1319         0.014634   
     28. B(Fe 14,Au  8)                  2.7155         0.067574   
     29. B(Fe 14,Au 13)                  3.1321         0.014622   
     30. B(Fe 14,Au 12)                  2.5726         0.114208   
     31. B(Fe 14,Au  7)                  2.5723         0.114346   
     32. B(Fe 14,Au  4)                  2.7207         0.066275   
     33. B(Fe 14,Au  1)                  2.7151         0.067660   
     34. A(Au  1,Au  0,Au  3)           60.9011         0.134766   
     35. A(Au  2,Au  0,Au 10)           60.3798         0.135458   
     36. A(Au  2,Au  0,Au  3)           60.3341         0.135434   
     37. A(Au  2,Au  0,Au  9)          102.4539         0.135915   
     38. A(Au  9,Au  0,Au 10)           60.8882         0.134770   
     39. A(Au  1,Au  0,Au  2)          102.3665         0.135935   
     40. A(Au  3,Au  0,Au  9)          109.9122         0.134746   
     41. A(Au  1,Au  0,Au  9)           58.7056         0.135240   
     42. A(Au  3,Au  0,Au 10)          114.8542         0.134300   
     43. A(Au  1,Au  0,Au 10)          109.8109         0.134789   
     44. A(Au  0,Au  1,Fe 14)           87.4565         0.178902   
     45. A(Au  3,Au  1,Fe 14)           85.8908         0.175592   
     46. A(Au  3,Au  1,Au  6)           59.8389         0.133753   
     47. A(Au  0,Au  1,Au  3)           59.7707         0.133556   
     48. A(Au  0,Au  1,Au  6)          115.8239         0.135463   
     49. A(Au  6,Au  1,Fe 14)           68.7264         0.179298   
     50. A(Au  4,Au  2,Au 10)          109.8950         0.134709   
     51. A(Au  0,Au  2,Au  3)           60.3608         0.135463   
     52. A(Au  0,Au  2,Au 10)           60.3268         0.135400   
     53. A(Au  3,Au  2,Au 10)          114.8308         0.134272   
     54. A(Au  0,Au  2,Au  8)          102.3487         0.135924   
     55. A(Au  3,Au  2,Au  8)          109.8046         0.134784   
     56. A(Au  8,Au  2,Au 10)           60.8924         0.134721   
     57. A(Au  3,Au  2,Au  4)           60.8982         0.134772   
     58. A(Au  0,Au  2,Au  4)          102.4394         0.135912   
     59. A(Au  4,Au  2,Au  8)           58.6982         0.135226   
     60. A(Au  0,Au  3,Au  4)          100.5987         0.133089   
     61. A(Au  2,Au  3,Au  4)           59.3528         0.133116   
     62. A(Au  1,Au  3,Au  4)           88.9530         0.131924   
     63. A(Au  0,Au  3,Au  2)           59.3051         0.134305   
     64. A(Au  1,Au  3,Au  6)           59.2022         0.133067   
     65. A(Au  0,Au  3,Au  1)           59.3282         0.133081   
     66. A(Au  1,Au  3,Au  2)          100.5265         0.133109   
     67. A(Au  0,Au  3,Au  6)          114.8213         0.134263   
     68. A(Au  4,Au  3,Au  6)           59.2138         0.133075   
     69. A(Au  2,Au  3,Au  6)          114.8239         0.134291   
     70. A(Au  2,Au  4,Au  3)           59.7490         0.133542   
     71. A(Au  3,Au  4,Au  6)           59.8370         0.133746   
     72. A(Au  3,Au  4,Fe 14)           85.7914         0.175203   
     73. A(Au  2,Au  4,Fe 14)           87.3521         0.178437   
     74. A(Au  2,Au  4,Au  6)          115.7704         0.135425   
     75. A(Au  6,Au  4,Fe 14)           68.6446         0.178846   
     76. A(Au  6,Au  5,Fe 14)           69.6576         0.185575   
     77. A(Au  7,Au  6,Fe 14)           50.3803         0.149814   
     78. A(Au  5,Au  6,Fe 14)           50.4728         0.149851   
     79. A(Au  4,Au  6,Fe 14)           54.0052         0.152830   
     80. A(Au  3,Au  6,Au  7)          116.8828         0.132767   
     81. A(Au  3,Au  6,Au  5)          116.8884         0.132793   
     82. A(Au  3,Au  6,Au  4)           60.9492         0.134937   
     83. A(Au  1,Au  6,Au  3)           60.9588         0.134953   
     84. A(Au  1,Au  6,Fe 14)           53.8861         0.152851   
     85. A(Au  1,Au  6,Au  4)           90.9611         0.135653   
     86. A(Au  1,Au  6,Au  5)          101.9261         0.133475   
     87. A(Au  3,Au  6,Fe 14)           79.0979         0.151873   
     88. A(Au  4,Au  6,Au  5)           59.2072         0.133460   
     89. A(Au  4,Au  6,Au  7)          101.9260         0.133434   
     90. A(Au  1,Au  6,Au  7)           59.1936         0.133448   
     91. A(Au  5,Au  6,Au  7)           60.5271         0.131359   
     92. A(Au  6,Au  7,Fe 14)           69.6991         0.185849   
     93. A(Au 10,Au  8,Fe 14)           85.8809         0.175552   
     94. A(Au 10,Au  8,Au 13)           59.8177         0.133713   
     95. A(Au  2,Au  8,Au 10)           59.7855         0.133538   
     96. A(Au  2,Au  8,Au 13)          115.8174         0.135420   
     97. A(Au 13,Au  8,Fe 14)           68.7150         0.179208   
     98. A(Au  2,Au  8,Fe 14)           87.4604         0.178855   
     99. A(Au  0,Au  9,Fe 14)           87.3451         0.178472   
    100. A(Au  0,Au  9,Au 13)          115.7828         0.135459   
    101. A(Au 13,Au  9,Fe 14)           68.6671         0.178934   
    102. A(Au 10,Au  9,Au 13)           59.8415         0.133790   
    103. A(Au  0,Au  9,Au 10)           59.7580         0.133560   
    104. A(Au 10,Au  9,Fe 14)           85.8070         0.175259   
    105. A(Au  0,Au 10,Au  8)          100.5075         0.133095   
    106. A(Au  0,Au 10,Au  2)           59.2934         0.134267   
    107. A(Au  2,Au 10,Au  9)          100.5991         0.133071   
    108. A(Au  8,Au 10,Au 13)           59.2237         0.133073   
    109. A(Au  2,Au 10,Au 13)          114.8351         0.134244   
    110. A(Au  0,Au 10,Au 13)          114.8163         0.134301   
    111. A(Au  8,Au 10,Au  9)           88.9534         0.131930   
    112. A(Au  0,Au 10,Au  9)           59.3539         0.133126   
    113. A(Au  9,Au 10,Au 13)           59.2047         0.133104   
    114. A(Au  2,Au 10,Au  8)           59.3221         0.133041   
    115. A(Au 13,Au 11,Fe 14)           69.6640         0.185582   
    116. A(Au 13,Au 12,Fe 14)           69.6828         0.185734   
    117. A(Au 12,Au 13,Fe 14)           50.3769         0.149748   
    118. A(Au 11,Au 13,Fe 14)           50.4634         0.149830   
    119. A(Au  9,Au 13,Fe 14)           54.0005         0.152860   
    120. A(Au  8,Au 13,Fe 14)           53.8842         0.152794   
    121. A(Au 11,Au 13,Au 12)           60.5215         0.131315   
    122. A(Au  9,Au 13,Au 12)          101.9173         0.133422   
    123. A(Au  8,Au 13,Au 12)           59.1933         0.133377   
    124. A(Au  9,Au 13,Au 11)           59.1982         0.133483   
    125. A(Au  8,Au 13,Au 11)          101.9162         0.133437   
    126. A(Au  8,Au 13,Au  9)           90.9565         0.135650   
    127. A(Au 10,Au 13,Fe 14)           79.1006         0.151881   
    128. A(Au 10,Au 13,Au 12)          116.8827         0.132742   
    129. A(Au 10,Au 13,Au 11)          116.8834         0.132801   
    130. A(Au  9,Au 13,Au 10)           60.9538         0.134983   
    131. A(Au  8,Au 13,Au 10)           60.9586         0.134935   
    132. A(Au  8,Fe 14,Au  9)           95.9269         0.262906   
    133. A(Au 12,Fe 14,Au 13)           59.9403         0.228061   
    134. A(Au 11,Fe 14,Au 13)           59.8726         0.227654   
    135. A(Au  9,Fe 14,Au 13)           57.3324         0.211984   
    136. A(Au 11,Fe 14,Au 12)           68.9023         0.309792   
    137. A(Au  7,Fe 14,Au  9)           97.2847         0.284894   
    138. A(Au  1,Fe 14,Au  8)          128.7988         0.263667   
    139. A(Au  8,Fe 14,Au 13)           57.4008         0.212487   
    140. A(Au  7,Fe 14,Au 13)          125.7220         0.228099   
    141. A(Au  9,Fe 14,Au 12)          114.1638         0.284840   
    142. A(Au  5,Fe 14,Au 13)          125.7765         0.227623   
    143. A(Au  4,Fe 14,Au 13)          118.8173         0.211945   
    144. A(Au  8,Fe 14,Au 12)           64.5625         0.285640   
    145. A(Au  5,Fe 14,Au  9)          165.1160         0.284223   
    146. A(Au  1,Fe 14,Au 13)          118.7628         0.212522   
    147. A(Au  7,Fe 14,Au 12)          103.2893         0.310502   
    148. A(Au  5,Fe 14,Au 12)           65.9173         0.309743   
    149. A(Au  4,Fe 14,Au  9)          128.8143         0.262144   
    150. A(Au  5,Fe 14,Au  7)           68.8926         0.309803   
    151. A(Au  4,Fe 14,Au  5)           64.4233         0.284161   
    152. A(Au  4,Fe 14,Au 12)           97.2815         0.284778   
    153. A(Au  1,Fe 14,Au 12)          164.9920         0.285696   
    154. A(Au  1,Fe 14,Au  9)           61.5433         0.262956   
    155. A(Au  9,Fe 14,Au 11)           64.4148         0.284266   
    156. A(Au  6,Fe 14,Au 13)          172.3520         0.176345   
    157. A(Au  6,Fe 14,Au 12)          125.7174         0.228088   
    158. A(Au  6,Fe 14,Au 11)          125.7583         0.227680   
    159. A(Au  6,Fe 14,Au  9)          118.8169         0.212008   
    160. A(Au  8,Fe 14,Au 11)          114.1989         0.285064   
    161. A(Au  7,Fe 14,Au  8)          164.9998         0.285694   
    162. A(Au  4,Fe 14,Au  7)          114.1628         0.284831   
    163. A(Au  6,Fe 14,Au  8)          118.7677         0.212510   
    164. A(Au  6,Fe 14,Au  7)           59.9206         0.228126   
    165. A(Au  5,Fe 14,Au  6)           59.8695         0.227649   
    166. A(Au  4,Fe 14,Au  6)           57.3502         0.211969   
    167. A(Au  7,Fe 14,Au 11)           65.9194         0.309853   
    168. A(Au  1,Fe 14,Au  6)           57.3875         0.212546   
    169. A(Au  5,Fe 14,Au 11)          103.5311         0.309096   
    170. A(Au  5,Fe 14,Au  8)           97.1895         0.285020   
    171. A(Au  4,Fe 14,Au 11)          165.1241         0.284204   
    172. A(Au  1,Fe 14,Au 11)           97.1785         0.285120   
    173. A(Au  4,Fe 14,Au  8)           61.5308         0.262851   
    174. A(Au  1,Fe 14,Au  7)           64.5473         0.285750   
    175. A(Au  1,Fe 14,Au  5)          114.1824         0.285077   
    176. A(Au  1,Fe 14,Au  4)           95.9297         0.262901   
    177. D(Au  3,Au  1,Au  0,Au  2)    -45.4189         0.001501   
    178. D(Au  6,Au  1,Au  0,Au  3)     21.8734         0.001501   
    179. D(Au  6,Au  1,Au  0,Au 10)    -86.2334         0.001501   
    180. D(Fe 14,Au  1,Au  0,Au  3)     86.7248         0.001501   
    181. D(Fe 14,Au  1,Au  0,Au  2)     41.3059         0.001501   
    182. D(Au  6,Au  1,Au  0,Au  9)   -120.7314         0.001501   
    183. D(Au  6,Au  1,Au  0,Au  2)    -23.5454         0.001501   
    184. D(Fe 14,Au  1,Au  0,Au 10)    -21.3820         0.001501   
    185. D(Au  3,Au  1,Au  0,Au  9)   -142.6048         0.001501   
    186. D(Fe 14,Au  1,Au  0,Au  9)    -55.8800         0.001501   
    187. D(Au  3,Au  1,Au  0,Au 10)   -108.1068         0.001501   
    188. D(Au  4,Au  2,Au  0,Au  1)      0.0549         0.001502   
    189. D(Au  4,Au  2,Au  0,Au  3)    -45.6898         0.001502   
    190. D(Au  8,Au  2,Au  0,Au  1)    -60.1866         0.001502   
    191. D(Au  3,Au  2,Au  0,Au  9)    105.9980         0.001502   
    192. D(Au  8,Au  2,Au  0,Au 10)     45.7438         0.001502   
    193. D(Au  8,Au  2,Au  0,Au  3)   -105.9313         0.001502   
    194. D(Au 10,Au  2,Au  0,Au  1)   -105.9304         0.001502   
    195. D(Au 10,Au  2,Au  0,Au  3)   -151.6751         0.001502   
    196. D(Au  8,Au  2,Au  0,Au  9)      0.0666         0.001502   
    197. D(Au  4,Au  2,Au  0,Au  9)     60.3082         0.001502   
    198. D(Au 10,Au  2,Au  0,Au  9)    -45.6771         0.001502   
    199. D(Au  4,Au  2,Au  0,Au 10)    105.9853         0.001502   
    200. D(Au  3,Au  2,Au  0,Au 10)    151.6751         0.001502   
    201. D(Au  3,Au  2,Au  0,Au  1)     45.7447         0.001502   
    202. D(Au  4,Au  3,Au  2,Au 10)    -99.8793         0.001501   
    203. D(Au  4,Au  3,Au  2,Au  8)    -33.6495         0.001501   
    204. D(Au  6,Au  3,Au  2,Au 10)    -78.2487         0.001501   
    205. D(Au  2,Au  3,Au  1,Au  6)   -112.7283         0.001501   
    206. D(Au  1,Au  3,Au  0,Au  2)    126.8050         0.001501   
    207. D(Au  1,Au  3,Au  2,Au  8)     48.7826         0.001501   
    208. D(Au  0,Au  3,Au  2,Au  8)     93.2462         0.001501   
    209. D(Au  4,Au  3,Au  1,Au  0)    102.9864         0.001501   
    210. D(Au  6,Au  3,Au  0,Au 10)     78.2323         0.001501   
    211. D(Au  1,Au  3,Au  0,Au 10)     99.7678         0.001501   
    212. D(Au  1,Au  3,Au  2,Au  0)    -44.4635         0.001501   
    213. D(Au  4,Au  3,Au  1,Au  6)    -54.1920         0.001501   
    214. D(Au  4,Au  3,Au  0,Au 10)     17.3872         0.001501   
    215. D(Au  6,Au  3,Au  2,Au  8)    -12.0189         0.001501   
    216. D(Au  4,Au  3,Au  2,Au  0)   -126.8956         0.001501   
    217. D(Au  1,Au  3,Au  2,Au 10)    -17.4472         0.001501   
    218. D(Au  0,Au  3,Au  1,Fe 14)    -89.4481         0.001501   
    219. D(Au  2,Au  3,Au  0,Au  1)   -126.8050         0.001501   
    220. D(Au  4,Au  3,Au  1,Fe 14)     13.5383         0.001501   
    221. D(Au  0,Au  3,Au  1,Au  6)   -157.1784         0.001501   
    222. D(Au  2,Au  3,Au  1,Au  0)     44.4501         0.001501   
    223. D(Au  4,Au  3,Au  0,Au  1)    -82.3805         0.001501   
    224. D(Au  6,Au  3,Au  1,Au  0)    157.1784         0.001501   
    225. D(Au  0,Au  3,Au  2,Au  4)    126.8956         0.001501   
    226. D(Au  0,Au  3,Au  2,Au 10)     27.0163         0.001501   
    227. D(Au  6,Au  3,Au  2,Au  0)   -105.2651         0.001501   
    228. D(Au  2,Au  3,Au  0,Au  9)    -93.3041         0.001501   
    229. D(Au  1,Au  3,Au  2,Au  4)     82.4321         0.001501   
    230. D(Au  2,Au  3,Au  0,Au 10)    -27.0372         0.001501   
    231. D(Au  6,Au  3,Au  0,Au  9)     11.9654         0.001501   
    232. D(Au  6,Au  3,Au  2,Au  4)     21.6305         0.001501   
    233. D(Au  2,Au  3,Au  1,Fe 14)    -44.9979         0.001501   
    234. D(Au  4,Au  3,Au  0,Au  2)     44.4244         0.001501   
    235. D(Au  1,Au  3,Au  0,Au  9)     33.5009         0.001501   
    236. D(Au  6,Au  3,Au  0,Au  2)    105.2695         0.001501   
    237. D(Au  6,Au  3,Au  0,Au  1)    -21.5354         0.001501   
    238. D(Au  6,Au  3,Au  1,Fe 14)     67.7303         0.001501   
    239. D(Au  4,Au  3,Au  0,Au  9)    -48.8797         0.001501   
    240. D(Fe 14,Au  4,Au  3,Au  0)     44.9897         0.001501   
    241. D(Au  3,Au  4,Au  2,Au  8)    142.3997         0.001501   
    242. D(Au  6,Au  4,Au  2,Au  0)     23.4256         0.001501   
    243. D(Au  3,Au  4,Au  2,Au 10)    108.0397         0.001501   
    244. D(Fe 14,Au  4,Au  3,Au  2)     89.3864         0.001501   
    245. D(Fe 14,Au  4,Au  2,Au  0)    -41.2890         0.001501   
    246. D(Au  6,Au  4,Au  2,Au 10)     86.0836         0.001501   
    247. D(Au  6,Au  4,Au  2,Au  8)    120.4437         0.001501   
    248. D(Au  3,Au  4,Au  2,Au  0)     45.3816         0.001501   
    249. D(Au  6,Au  4,Au  3,Au  1)     54.1824         0.001501   
    250. D(Au  6,Au  4,Au  3,Au  2)    157.0804         0.001501   
    251. D(Au  6,Au  4,Au  3,Au  0)    112.6837         0.001501   
    252. D(Au  2,Au  4,Au  3,Au  6)   -157.0804         0.001501   
    253. D(Au  2,Au  4,Au  3,Au  1)   -102.8980         0.001501   
    254. D(Fe 14,Au  4,Au  3,Au  6)    -67.6940         0.001501   
    255. D(Fe 14,Au  4,Au  3,Au  1)    -13.5115         0.001501   
    256. D(Fe 14,Au  4,Au  2,Au 10)     21.3691         0.001501   
    257. D(Au  2,Au  4,Au  3,Au  0)    -44.3967         0.001501   
    258. D(Fe 14,Au  4,Au  2,Au  3)    -86.6706         0.001501   
    259. D(Fe 14,Au  4,Au  2,Au  8)     55.7292         0.001501   
    260. D(Au  6,Au  4,Au  2,Au  3)    -21.9560         0.001501   
    261. D(Au  7,Au  6,Au  4,Au  3)   -114.2886         0.001501   
    262. D(Au  5,Au  6,Au  4,Au  2)   -137.0156         0.001501   
    263. D(Au  5,Au  6,Au  4,Fe 14)    -61.1294         0.001501   
    264. D(Au  1,Au  6,Au  4,Au  2)    -33.6833         0.001501   
    265. D(Fe 14,Au  6,Au  3,Au  2)     33.0504         0.001501   
    266. D(Fe 14,Au  6,Au  3,Au  4)     54.7137         0.001501   
    267. D(Fe 14,Au  6,Au  3,Au  1)    -54.5776         0.001501   
    268. D(Fe 14,Au  6,Au  3,Au  0)    -33.0126         0.001501   
    269. D(Au  4,Au  6,Au  3,Au  0)    -87.7263         0.001501   
    270. D(Au  7,Au  6,Au  3,Au  2)     67.3874         0.001501   
    271. D(Au  5,Au  6,Au  3,Au  2)     -1.4247         0.001501   
    272. D(Au  5,Au  6,Au  3,Au  1)    -89.0527         0.001501   
    273. D(Au  7,Au  6,Au  3,Au  0)      1.3245         0.001501   
    274. D(Au  5,Au  6,Au  3,Au  0)    -67.4877         0.001501   
    275. D(Au  3,Au  6,Au  1,Fe 14)    -97.8926         0.001501   
    276. D(Au  1,Au  6,Au  3,Au  4)    109.2913         0.001501   
    277. D(Au  7,Au  6,Au  1,Au  3)    158.9448         0.001501   
    278. D(Au  4,Au  6,Au  1,Au  0)     33.7534         0.001501   
    279. D(Fe 14,Au  6,Au  1,Au  0)     76.0351         0.001501   
    280. D(Au  5,Au  6,Au  1,Fe 14)     16.4022         0.001501   
    281. D(Au  5,Au  6,Au  1,Au  0)     92.4373         0.001501   
    282. D(Au  5,Au  6,Au  3,Au  4)     20.2386         0.001501   
    283. D(Au  7,Au  6,Au  1,Fe 14)     61.0523         0.001501   
    284. D(Au  5,Au  6,Au  1,Au  3)    114.2948         0.001501   
    285. D(Au  4,Au  6,Au  1,Au  3)     55.6109         0.001501   
    286. D(Au  4,Au  6,Au  1,Fe 14)    -42.2817         0.001501   
    287. D(Au  7,Au  6,Au  1,Au  0)    137.0873         0.001501   
    288. D(Fe 14,Au  6,Au  1,Au  3)     97.8926         0.001501   
    289. D(Au  3,Au  6,Au  1,Au  0)    -21.8575         0.001501   
    290. D(Au  1,Au  6,Au  3,Au  0)     21.5650         0.001501   
    291. D(Au  4,Au  6,Au  3,Au  1)   -109.2913         0.001501   
    292. D(Au  1,Au  6,Au  3,Au  2)     87.6280         0.001501   
    293. D(Au  4,Au  6,Au  3,Au  2)    -21.6633         0.001501   
    294. D(Au  5,Au  6,Au  4,Au  3)   -158.9510         0.001501   
    295. D(Au  7,Au  6,Au  3,Au  1)    -20.2405         0.001501   
    296. D(Fe 14,Au  6,Au  4,Au  2)    -75.8862         0.001501   
    297. D(Au  3,Au  6,Au  4,Fe 14)     97.8216         0.001501   
    298. D(Au  1,Au  6,Au  4,Fe 14)     42.2029         0.001501   
    299. D(Fe 14,Au  6,Au  4,Au  3)    -97.8216         0.001501   
    300. D(Au  7,Au  6,Au  4,Au  2)    -92.3532         0.001501   
    301. D(Au  3,Au  6,Au  5,Fe 14)     46.1057         0.001501   
    302. D(Au  7,Au  6,Au  4,Fe 14)    -16.4670         0.001501   
    303. D(Au  7,Au  6,Au  5,Fe 14)    -61.0977         0.001501   
    304. D(Au  4,Au  6,Au  5,Fe 14)     66.7178         0.001501   
    305. D(Au  7,Au  6,Au  3,Au  4)     89.0508         0.001501   
    306. D(Au  3,Au  6,Au  4,Au  2)     21.9354         0.001501   
    307. D(Au  1,Au  6,Au  5,Fe 14)    -17.2025         0.001501   
    308. D(Au  1,Au  6,Au  4,Au  3)    -55.6187         0.001501   
    309. D(Fe 14,Au  7,Au  6,Au  5)     61.2365         0.001501   
    310. D(Fe 14,Au  7,Au  6,Au  3)    -45.9761         0.001501   
    311. D(Fe 14,Au  7,Au  6,Au  4)     17.3215         0.001501   
    312. D(Fe 14,Au  7,Au  6,Au  1)    -66.5951         0.001501   
    313. D(Fe 14,Au  8,Au  2,Au  3)    -21.3699         0.001501   
    314. D(Au 10,Au  8,Au  2,Au  3)   -108.0809         0.001501   
    315. D(Au 10,Au  8,Au  2,Au  4)   -142.5968         0.001501   
    316. D(Au 10,Au  8,Au  2,Au  0)    -45.4187         0.001501   
    317. D(Au 13,Au  8,Au  2,Au 10)     21.8688         0.001501   
    318. D(Au 13,Au  8,Au  2,Au  3)    -86.2121         0.001501   
    319. D(Au 13,Au  8,Au  2,Au  4)   -120.7280         0.001501   
    320. D(Au 13,Au  8,Au  2,Au  0)    -23.5499         0.001501   
    321. D(Fe 14,Au  8,Au  2,Au 10)     86.7109         0.001501   
    322. D(Fe 14,Au  8,Au  2,Au  4)    -55.8859         0.001501   
    323. D(Fe 14,Au  8,Au  2,Au  0)     41.2922         0.001501   
    324. D(Fe 14,Au  9,Au  0,Au  1)     55.7247         0.001501   
    325. D(Au 10,Au  9,Au  0,Au  3)    108.0568         0.001501   
    326. D(Au 10,Au  9,Au  0,Au  1)    142.4173         0.001501   
    327. D(Au 10,Au  9,Au  0,Au  2)     45.3857         0.001501   
    328. D(Au 13,Au  9,Au  0,Au 10)    -21.9597         0.001501   
    329. D(Au 13,Au  9,Au  0,Au  3)     86.0971         0.001501   
    330. D(Au 13,Au  9,Au  0,Au  1)    120.4576         0.001501   
    331. D(Au 13,Au  9,Au  0,Au  2)     23.4260         0.001501   
    332. D(Fe 14,Au  9,Au  0,Au 10)    -86.6927         0.001501   
    333. D(Fe 14,Au  9,Au  0,Au  3)     21.3641         0.001501   
    334. D(Fe 14,Au  9,Au  0,Au  2)    -41.3070         0.001501   
    335. D(Au 13,Au 10,Au  9,Au  0)   -157.0802         0.001501   
    336. D(Au  8,Au 10,Au  9,Au 13)     54.2049         0.001501   
    337. D(Au  2,Au 10,Au  9,Au  0)    -44.3802         0.001501   
    338. D(Au  8,Au 10,Au  0,Au  3)    -17.4403         0.001501   
    339. D(Au 13,Au 10,Au  8,Au  2)    157.1768         0.001501   
    340. D(Au  2,Au 10,Au  9,Au 13)    112.7000         0.001501   
    341. D(Au  9,Au 10,Au  8,Au 13)    -54.1892         0.001501   
    342. D(Au  9,Au 10,Au  0,Au  1)    -33.6388         0.001501   
    343. D(Au  9,Au 10,Au  8,Au  2)    102.9875         0.001501   
    344. D(Au  9,Au 10,Au  8,Fe 14)     13.5302         0.001501   
    345. D(Au  2,Au 10,Au  8,Au 13)   -157.1768         0.001501   
    346. D(Au  0,Au 10,Au  8,Au  2)     44.4475         0.001501   
    347. D(Au 13,Au 10,Au  2,Au  3)     78.2237         0.001501   
    348. D(Au 13,Au 10,Au  2,Au  4)     11.9561         0.001501   
    349. D(Au  9,Au 10,Au  2,Au  4)    -48.8785         0.001501   
    350. D(Au  9,Au 10,Au  2,Au  0)     44.4153         0.001501   
    351. D(Au  8,Au 10,Au  2,Au  3)     99.7683         0.001501   
    352. D(Au  9,Au 10,Au  2,Au  3)     17.3891         0.001501   
    353. D(Au  8,Au 10,Au  2,Au  4)     33.5007         0.001501   
    354. D(Au  8,Au 10,Au  2,Au  0)    126.7945         0.001501   
    355. D(Au  9,Au 10,Au  2,Au  8)    -82.3792         0.001501   
    356. D(Au  0,Au 10,Au  2,Au  3)    -27.0262         0.001501   
    357. D(Au  0,Au 10,Au  2,Au  8)   -126.7945         0.001501   
    358. D(Au 13,Au 10,Au  2,Au  8)    -21.5445         0.001501   
    359. D(Au  0,Au 10,Au  2,Au  4)    -93.2938         0.001501   
    360. D(Au 13,Au 10,Au  0,Au  3)    -78.2578         0.001501   
    361. D(Au  0,Au 10,Au  8,Fe 14)    -45.0098         0.001501   
    362. D(Au 13,Au 10,Au  0,Au  9)     21.6272         0.001501   
    363. D(Au 13,Au 10,Au  0,Au  1)    -12.0116         0.001501   
    364. D(Au  2,Au 10,Au  8,Fe 14)    -89.4573         0.001501   
    365. D(Au 13,Au 10,Au  0,Au  2)   -105.2817         0.001501   
    366. D(Au  9,Au 10,Au  0,Au  3)    -99.8850         0.001501   
    367. D(Au  0,Au 10,Au  8,Au 13)   -112.7292         0.001501   
    368. D(Au 13,Au 10,Au  8,Fe 14)     67.7194         0.001501   
    369. D(Au  9,Au 10,Au  0,Au  2)   -126.9089         0.001501   
    370. D(Au  0,Au 10,Au  9,Au 13)    157.0802         0.001501   
    371. D(Au  8,Au 10,Au  0,Au  9)     82.4447         0.001501   
    372. D(Au  0,Au 10,Au  9,Fe 14)     89.3686         0.001501   
    373. D(Au  8,Au 10,Au  0,Au  1)     48.8059         0.001501   
    374. D(Au  8,Au 10,Au  0,Au  2)    -44.4643         0.001501   
    375. D(Au  2,Au 10,Au  0,Au  3)     27.0240         0.001501   
    376. D(Au  2,Au 10,Au  0,Au  9)    126.9089         0.001501   
    377. D(Au  2,Au 10,Au  9,Fe 14)     44.9884         0.001501   
    378. D(Au 13,Au 10,Au  2,Au  0)    105.2499         0.001501   
    379. D(Au  2,Au 10,Au  0,Au  1)     93.2702         0.001501   
    380. D(Au 13,Au 10,Au  9,Fe 14)    -67.7116         0.001501   
    381. D(Au  8,Au 10,Au  9,Au  0)   -102.8753         0.001501   
    382. D(Au  8,Au 10,Au  9,Fe 14)    -13.5067         0.001501   
    383. D(Au 10,Au 13,Au 11,Fe 14)     46.1051         0.001501   
    384. D(Au 12,Au 13,Au 11,Fe 14)    -61.0984         0.001501   
    385. D(Au  9,Au 13,Au 11,Fe 14)     66.7200         0.001501   
    386. D(Fe 14,Au 13,Au 10,Au  9)     54.7075         0.001501   
    387. D(Fe 14,Au 13,Au 10,Au  8)    -54.5740         0.001501   
    388. D(Fe 14,Au 13,Au 10,Au  2)    -33.0063         0.001501   
    389. D(Au 12,Au 13,Au 10,Au  9)     89.0423         0.001501   
    390. D(Au 12,Au 13,Au 10,Au  8)    -20.2392         0.001501   
    391. D(Au 12,Au 13,Au 10,Au  2)      1.3284         0.001501   
    392. D(Au 12,Au 13,Au 10,Au  0)     67.3799         0.001501   
    393. D(Au 11,Au 13,Au 10,Au  9)     20.2386         0.001501   
    394. D(Au 11,Au 13,Au 10,Au  8)    -89.0429         0.001501   
    395. D(Au 11,Au 13,Au 10,Au  2)    -67.4753         0.001501   
    396. D(Au  9,Au 13,Au 10,Au  8)   -109.2815         0.001501   
    397. D(Au  9,Au 13,Au 10,Au  0)    -21.6624         0.001501   
    398. D(Au 10,Au 13,Au  9,Au  0)     21.9401         0.001501   
    399. D(Au 12,Au 13,Au  9,Au 10)   -114.2929         0.001501   
    400. D(Au 11,Au 13,Au  9,Au 10)   -158.9481         0.001501   
    401. D(Au 11,Au 13,Au  9,Au  0)   -137.0079         0.001501   
    402. D(Au  8,Au 13,Au  9,Fe 14)     42.2012         0.001501   
    403. D(Fe 14,Au 13,Au  8,Au  2)     76.0364         0.001501   
    404. D(Au 11,Au 13,Au  8,Au 10)    114.2941         0.001501   
    405. D(Au  9,Au 13,Au  8,Au 10)     55.6195         0.001501   
    406. D(Au  9,Au 13,Au  8,Au  2)     33.7583         0.001501   
    407. D(Au  9,Au 13,Au  8,Fe 14)    -42.2781         0.001501   
    408. D(Au 11,Au 13,Au  8,Fe 14)     16.3965         0.001501   
    409. D(Au 11,Au 13,Au  8,Au  2)     92.4329         0.001501   
    410. D(Au 12,Au 13,Au  8,Au 10)    158.9461         0.001501   
    411. D(Au 10,Au 13,Au  8,Fe 14)    -97.8977         0.001501   
    412. D(Fe 14,Au 13,Au  8,Au 10)     97.8977         0.001501   
    413. D(Au 12,Au 13,Au  8,Au  2)    137.0849         0.001501   
    414. D(Au 11,Au 13,Au 10,Au  0)     -1.4238         0.001501   
    415. D(Au  8,Au 13,Au  9,Au  0)    -33.6833         0.001501   
    416. D(Au 10,Au 13,Au  8,Au  2)    -21.8612         0.001501   
    417. D(Au  8,Au 13,Au  9,Au 10)    -55.6234         0.001501   
    418. D(Au 12,Au 13,Au  8,Fe 14)     61.0485         0.001501   
    419. D(Au 12,Au 13,Au  9,Fe 14)    -16.4683         0.001501   
    420. D(Au 12,Au 13,Au  9,Au  0)    -92.3528         0.001501   
    421. D(Fe 14,Au 13,Au  9,Au 10)    -97.8247         0.001501   
    422. D(Fe 14,Au 13,Au 10,Au  0)     33.0451         0.001501   
    423. D(Au 10,Au 13,Au  9,Fe 14)     97.8247         0.001501   
    424. D(Fe 14,Au 13,Au  9,Au  0)    -75.8845         0.001501   
    425. D(Au 11,Au 13,Au  9,Fe 14)    -61.1234         0.001501   
    426. D(Au  8,Au 13,Au 11,Fe 14)    -17.1984         0.001501   
    427. D(Au  8,Au 13,Au 10,Au  9)    109.2815         0.001501   
    428. D(Au  8,Au 13,Au 10,Au  2)     21.5677         0.001501   
    429. D(Au  9,Au 13,Au 10,Au  2)    -87.7138         0.001501   
    430. D(Au  8,Au 13,Au 12,Fe 14)    -66.5938         0.001501   
    431. D(Au 10,Au 13,Au 12,Fe 14)    -45.9761         0.001501   
    432. D(Au 11,Au 13,Au 12,Fe 14)     61.2285         0.001501   
    433. D(Au  9,Au 13,Au 12,Fe 14)     17.3226         0.001501   
    434. D(Au  8,Au 13,Au 10,Au  0)     87.6191         0.001501   
    435. D(Au  6,Fe 14,Au 13,Au 10)     -0.0892         0.001502   
    436. D(Au  6,Fe 14,Au 13,Au 11)    139.0258         0.001502   
    437. D(Au  6,Fe 14,Au 13,Au  9)     61.7953         0.001502   
    438. D(Au  6,Fe 14,Au 13,Au  8)    -61.9599         0.001502   
    439. D(Au 12,Fe 14,Au 13,Au 11)    -81.6628         0.001502   
    440. D(Au 12,Fe 14,Au 13,Au  9)   -158.8933         0.001502   
    441. D(Au 12,Fe 14,Au 13,Au  8)     77.3515         0.001502   
    442. D(Au 11,Fe 14,Au 13,Au 10)   -139.1150         0.001502   
    443. D(Au 11,Fe 14,Au 13,Au 12)     81.6628         0.001502   
    444. D(Au 11,Fe 14,Au 13,Au  9)    -77.2304         0.001502   
    445. D(Au 11,Fe 14,Au 13,Au  8)    159.0144         0.001502   
    446. D(Au  9,Fe 14,Au 13,Au 12)    158.8933         0.001502   
    447. D(Au  9,Fe 14,Au 13,Au 11)     77.2304         0.001502   
    448. D(Au  9,Fe 14,Au 13,Au  8)   -123.7552         0.001502   
    449. D(Au  8,Fe 14,Au 13,Au 12)    -77.3515         0.001502   
    450. D(Au  8,Fe 14,Au 13,Au 11)   -159.0144         0.001502   
    451. D(Au  8,Fe 14,Au 13,Au  9)    123.7552         0.001502   
    452. D(Au  7,Fe 14,Au 13,Au 12)     84.8901         0.001502   
    453. D(Au  7,Fe 14,Au 13,Au 11)      3.2272         0.001502   
    454. D(Au  7,Fe 14,Au 13,Au  9)    -74.0032         0.001502   
    455. D(Au  7,Fe 14,Au 13,Au  8)    162.2416         0.001502   
    456. D(Au  5,Fe 14,Au 13,Au 10)    135.7463         0.001502   
    457. D(Au  5,Fe 14,Au 13,Au 12)     -3.4759         0.001502   
    458. D(Au  5,Fe 14,Au 13,Au 11)    -85.1387         0.001502   
    459. D(Au  5,Fe 14,Au 13,Au  8)     73.8756         0.001502   
    460. D(Au  4,Fe 14,Au 13,Au 10)     57.9218         0.001502   
    461. D(Au  4,Fe 14,Au 13,Au 12)    -81.3004         0.001502   
    462. D(Au  4,Fe 14,Au 13,Au  9)    119.8063         0.001502   
    463. D(Au  4,Fe 14,Au 13,Au  8)     -3.9489         0.001502   
    464. D(Au  1,Fe 14,Au 13,Au 10)    -57.9582         0.001502   
    465. D(Au  1,Fe 14,Au 13,Au 11)     81.1568         0.001502   
    466. D(Au  1,Fe 14,Au 13,Au  9)      3.9264         0.001502   
    467. D(Au  1,Fe 14,Au 13,Au  8)   -119.8288         0.001502   
    468. D(Au  6,Fe 14,Au 12,Au 13)    173.8653         0.001558   
    469. D(Au 11,Fe 14,Au 12,Au 13)    -66.5281         0.001558   
    470. D(Au  9,Fe 14,Au 12,Au 13)    -19.4058         0.001558   
    471. D(Au  8,Fe 14,Au 12,Au 13)     65.5415         0.001558   
    472. D(Au  5,Fe 14,Au 12,Au 13)    176.9115         0.001558   
    473. D(Au  4,Fe 14,Au 12,Au 13)    119.1765         0.001558   
    474. D(Au  1,Fe 14,Au 12,Au 13)    -89.3275         0.001558   
    475. D(Au 12,Fe 14,Au 11,Au 13)     66.6188         0.001556   
    476. D(Au  9,Fe 14,Au 11,Au 13)    -65.5401         0.001556   
    477. D(Au  8,Fe 14,Au 11,Au 13)     19.3161         0.001556   
    478. D(Au  5,Fe 14,Au 11,Au 13)    123.7506         0.001556   
    479. D(Au  4,Fe 14,Au 11,Au 13)     89.2042         0.001556   
    480. D(Au  1,Fe 14,Au 11,Au 13)   -119.1859         0.001556   
    481. D(Au  6,Fe 14,Au  9,Au 10)   -113.1153         0.001523   
    482. D(Au  6,Fe 14,Au  9,Au 13)   -172.3072         0.001523   
    483. D(Au  6,Fe 14,Au  9,Au  0)    -53.2576         0.001523   
    484. D(Au 13,Fe 14,Au  9,Au 10)     59.1919         0.001523   
    485. D(Au 12,Fe 14,Au  9,Au 10)     79.1666         0.001523   
    486. D(Au 12,Fe 14,Au  9,Au 13)     19.9747         0.001523   
    487. D(Au 12,Fe 14,Au  9,Au  0)    139.0243         0.001523   
    488. D(Au 11,Fe 14,Au  9,Au 13)     69.2642         0.001523   
    489. D(Au 11,Fe 14,Au  9,Au  0)   -171.6861         0.001523   
    490. D(Au  8,Fe 14,Au  9,Au 10)     14.4267         0.001523   
    491. D(Au  8,Fe 14,Au  9,Au  0)     74.2845         0.001523   
    492. D(Au  7,Fe 14,Au  9,Au 10)   -172.6930         0.001523   
    493. D(Au  7,Fe 14,Au  9,Au 13)    128.1151         0.001523   
    494. D(Au  7,Fe 14,Au  9,Au  0)   -112.8353         0.001523   
    495. D(Au  5,Fe 14,Au  9,Au 10)    166.1231         0.001523   
    496. D(Au  5,Fe 14,Au  9,Au 13)    106.9312         0.001523   
    497. D(Au  5,Fe 14,Au  9,Au  0)   -134.0192         0.001523   
    498. D(Au  4,Fe 14,Au  9,Au 13)   -102.6545         0.001523   
    499. D(Au  4,Fe 14,Au  9,Au  0)     16.3951         0.001523   
    500. D(Au  1,Fe 14,Au  9,Au 10)   -116.8932         0.001523   
    501. D(Au  1,Fe 14,Au  9,Au  0)    -57.0354         0.001523   
    502. D(Au  6,Fe 14,Au  8,Au 10)    113.1561         0.001524   
    503. D(Au  6,Fe 14,Au  8,Au 13)    172.2990         0.001524   
    504. D(Au 13,Fe 14,Au  8,Au 10)    -59.1428         0.001524   
    505. D(Au 13,Fe 14,Au  8,Au  2)   -119.0207         0.001524   
    506. D(Au 12,Fe 14,Au  8,Au 10)   -128.3968         0.001524   
    507. D(Au 12,Fe 14,Au  8,Au 13)    -69.2540         0.001524   
    508. D(Au 12,Fe 14,Au  8,Au  2)    171.7253         0.001524   
    509. D(Au 11,Fe 14,Au  8,Au 10)    -78.9950         0.001524   
    510. D(Au 11,Fe 14,Au  8,Au 13)    -19.8522         0.001524   
    511. D(Au  9,Fe 14,Au  8,Au 10)    -14.4211         0.001524   
    512. D(Au  9,Fe 14,Au  8,Au 13)     44.7217         0.001524   
    513. D(Au  9,Fe 14,Au  8,Au  2)    -74.2990         0.001524   
    514. D(Au  7,Fe 14,Au  8,Au 13)   -106.9182         0.001524   
    515. D(Au  7,Fe 14,Au  8,Au  2)    134.0611         0.001524   
    516. D(Au  5,Fe 14,Au  8,Au 10)    172.6300         0.001524   
    517. D(Au  5,Fe 14,Au  8,Au  2)    112.7521         0.001524   
    518. D(Au  4,Fe 14,Au  8,Au 10)    116.9214         0.001524   
    519. D(Au  4,Fe 14,Au  8,Au 13)    176.0642         0.001524   
    520. D(Au  4,Fe 14,Au  8,Au  2)     57.0435         0.001524   
    521. D(Au  1,Fe 14,Au  8,Au 10)     43.4910         0.001524   
    522. D(Au  1,Fe 14,Au  8,Au 13)    102.6339         0.001524   
    523. D(Au  1,Fe 14,Au  8,Au  2)    -16.3869         0.001524   
    524. D(Au 12,Fe 14,Au  7,Au  6)   -123.8073         0.001558   
    525. D(Au 11,Fe 14,Au  7,Au  6)    176.9017         0.001558   
    526. D(Au  9,Fe 14,Au  7,Au  6)    119.1777         0.001558   
    527. D(Au  5,Fe 14,Au  7,Au  6)    -66.5325         0.001558   
    528. D(Au  4,Fe 14,Au  7,Au  6)    -19.4065         0.001558   
    529. D(Au  1,Fe 14,Au  7,Au  6)     65.5372         0.001558   
    530. D(Au 13,Fe 14,Au  6,Au  3)      0.0734         0.001502   
    531. D(Au 13,Fe 14,Au  6,Au  7)   -139.1484         0.001502   
    532. D(Au 13,Fe 14,Au  6,Au  5)    139.1897         0.001502   
    533. D(Au 13,Fe 14,Au  6,Au  4)     61.9549         0.001502   
    534. D(Au 13,Fe 14,Au  6,Au  1)    -61.7997         0.001502   
    535. D(Au 12,Fe 14,Au  6,Au  3)   -135.9005         0.001502   
    536. D(Au 12,Fe 14,Au  6,Au  7)     84.8777         0.001502   
    537. D(Au 12,Fe 14,Au  6,Au  5)      3.2158         0.001502   
    538. D(Au  8,Fe 14,Au  7,Au  6)    -89.2675         0.001558   
    539. D(Au 12,Fe 14,Au  6,Au  4)    -74.0190         0.001502   
    540. D(Au 12,Fe 14,Au  6,Au  1)    162.2264         0.001502   
    541. D(Au 11,Fe 14,Au  6,Au  3)    135.7357         0.001502   
    542. D(Au 13,Fe 14,Au  7,Au  6)    173.8446         0.001558   
    543. D(Au 11,Fe 14,Au  6,Au  7)     -3.4862         0.001502   
    544. D(Au 11,Fe 14,Au  6,Au  5)    -85.1481         0.001502   
    545. D(Au 11,Fe 14,Au  6,Au  4)   -162.3829         0.001502   
    546. D(Au 11,Fe 14,Au  6,Au  1)     73.8625         0.001502   
    547. D(Au  9,Fe 14,Au  6,Au  3)     57.9298         0.001502   
    548. D(Au  9,Fe 14,Au  6,Au  7)    -81.2920         0.001502   
    549. D(Au  9,Fe 14,Au  6,Au  5)   -162.9540         0.001502   
    550. D(Au  5,Fe 14,Au  8,Au 13)   -128.2271         0.001524   
    551. D(Au  9,Fe 14,Au  6,Au  4)    119.8112         0.001502   
    552. D(Au  9,Fe 14,Au  6,Au  1)     -3.9434         0.001502   
    553. D(Au  8,Fe 14,Au  6,Au  3)    -57.9501         0.001502   
    554. D(Au  7,Fe 14,Au  8,Au 10)   -166.0610         0.001524   
    555. D(Au  8,Fe 14,Au  6,Au  7)    162.8281         0.001502   
    556. D(Au  8,Fe 14,Au  6,Au  5)     81.1662         0.001502   
    557. D(Au  8,Fe 14,Au  6,Au  4)      3.9314         0.001502   
    558. D(Au 11,Fe 14,Au  8,Au  2)   -138.8729         0.001524   
    559. D(Au  8,Fe 14,Au  6,Au  1)   -119.8232         0.001502   
    560. D(Au  7,Fe 14,Au  6,Au  3)    139.2218         0.001502   
    561. D(Au  7,Fe 14,Au  6,Au  5)    -81.6619         0.001502   
    562. D(Au  7,Fe 14,Au  6,Au  4)   -158.8967         0.001502   
    563. D(Au  7,Fe 14,Au  6,Au  1)     77.3487         0.001502   
    564. D(Au  5,Fe 14,Au  6,Au  3)   -139.1162         0.001502   
    565. D(Au  5,Fe 14,Au  6,Au  7)     81.6619         0.001502   
    566. D(Au  6,Fe 14,Au  8,Au  2)     53.2782         0.001524   
    567. D(Au  5,Fe 14,Au  6,Au  4)    -77.2348         0.001502   
    568. D(Au  5,Fe 14,Au  6,Au  1)    159.0106         0.001502   
    569. D(Au  4,Fe 14,Au  6,Au  3)    -61.8815         0.001502   
    570. D(Au  1,Fe 14,Au  9,Au 13)   -176.0850         0.001523   
    571. D(Au  4,Fe 14,Au  6,Au  7)    158.8967         0.001502   
    572. D(Au  4,Fe 14,Au  6,Au  5)     77.2348         0.001502   
    573. D(Au  4,Fe 14,Au  6,Au  1)   -123.7546         0.001502   
    574. D(Au  4,Fe 14,Au  9,Au 10)    -43.4627         0.001523   
    575. D(Au  1,Fe 14,Au  6,Au  3)     61.8731         0.001502   
    576. D(Au  1,Fe 14,Au  6,Au  7)    -77.3487         0.001502   
    577. D(Au  1,Fe 14,Au  6,Au  5)   -159.0106         0.001502   
    578. D(Au  1,Fe 14,Au  6,Au  4)    123.7546         0.001502   
    579. D(Au 13,Fe 14,Au  5,Au  6)   -173.8455         0.001556   
    580. D(Au 12,Fe 14,Au  5,Au  6)   -177.1405         0.001556   
    581. D(Au 11,Fe 14,Au  5,Au  6)    123.7298         0.001556   
    582. D(Au  8,Fe 14,Au  9,Au 13)    -44.7651         0.001523   
    583. D(Au  9,Fe 14,Au  5,Au  6)     89.1963         0.001556   
    584. D(Au  8,Fe 14,Au  5,Au  6)   -119.1856         0.001556   
    585. D(Au  7,Fe 14,Au  5,Au  6)     66.6007         0.001556   
    586. D(Au 11,Fe 14,Au  9,Au 10)    128.4561         0.001523   
    587. D(Au  4,Fe 14,Au  5,Au  6)    -65.5583         0.001556   
    588. D(Au  1,Fe 14,Au  5,Au  6)     19.3139         0.001556   
    589. D(Au  6,Fe 14,Au  4,Au  3)     59.1901         0.001523   
    590. D(Au 13,Fe 14,Au  9,Au  0)    119.0496         0.001523   
    591. D(Au  6,Fe 14,Au  4,Au  2)    119.0387         0.001523   
    592. D(Au 13,Fe 14,Au  4,Au  3)   -113.1055         0.001523   
    593. D(Au 13,Fe 14,Au  4,Au  6)   -172.2956         0.001523   
    594. D(Au 13,Fe 14,Au  4,Au  2)    -53.2569         0.001523   
    595. D(Au 12,Fe 14,Au  4,Au  3)   -172.7042         0.001523   
    596. D(Au 12,Fe 14,Au  4,Au  6)    128.1057         0.001523   
    597. D(Au 12,Fe 14,Au  4,Au  2)   -112.8557         0.001523   
    598. D(Au  7,Fe 14,Au 11,Au 13)   -177.1305         0.001556   
    599. D(Au 11,Fe 14,Au  4,Au  3)    166.1201         0.001523   
    600. D(Au 11,Fe 14,Au  4,Au  6)    106.9299         0.001523   
    601. D(Au 11,Fe 14,Au  4,Au  2)   -134.0314         0.001523   
    602. D(Au  6,Fe 14,Au 11,Au 13)   -173.8264         0.001556   
    603. D(Au  9,Fe 14,Au  4,Au  3)    -43.4759         0.001523   
    604. D(Au  9,Fe 14,Au  4,Au  6)   -102.6660         0.001523   
    605. D(Au  9,Fe 14,Au  4,Au  2)     16.3727         0.001523   
    606. D(Au  7,Fe 14,Au 12,Au 13)   -123.8105         0.001558   
    607. D(Au  8,Fe 14,Au  4,Au  3)   -116.8896         0.001523   
    608. D(Au  8,Fe 14,Au  4,Au  6)   -176.0798         0.001523   
    609. D(Au  8,Fe 14,Au  4,Au  2)    -57.0411         0.001523   
    610. D(Au  7,Fe 14,Au  4,Au  3)     79.1573         0.001523   
    611. D(Au  7,Fe 14,Au  4,Au  6)     19.9671         0.001523   
    612. D(Au  7,Fe 14,Au  4,Au  2)    139.0058         0.001523   
    613. D(Au  5,Fe 14,Au  4,Au  3)    128.4417         0.001523   
    614. D(Au  1,Fe 14,Au 13,Au 12)    162.8197         0.001502   
    615. D(Au  5,Fe 14,Au  4,Au  6)     69.2515         0.001523   
    616. D(Au  5,Fe 14,Au  4,Au  2)   -171.7098         0.001523   
    617. D(Au  1,Fe 14,Au  4,Au  3)     14.4328         0.001523   
    618. D(Au  4,Fe 14,Au 13,Au 11)   -162.9632         0.001502   
    619. D(Au  1,Fe 14,Au  4,Au  6)    -44.7573         0.001523   
    620. D(Au  1,Fe 14,Au  4,Au  2)     74.2814         0.001523   
    621. D(Au  6,Fe 14,Au  1,Au  3)    -59.1635         0.001524   
    622. D(Au  5,Fe 14,Au 13,Au  9)   -162.3692         0.001502   
    623. D(Au  6,Fe 14,Au  1,Au  0)   -119.0267         0.001524   
    624. D(Au 13,Fe 14,Au  1,Au  3)    113.1474         0.001524   
    625. D(Au 13,Fe 14,Au  1,Au  6)    172.3109         0.001524   
    626. D(Au 13,Fe 14,Au  1,Au  0)     53.2842         0.001524   
    627. D(Au 12,Fe 14,Au  1,Au  3)   -166.0108         0.001524   
    628. D(Au 12,Fe 14,Au  1,Au  6)   -106.8473         0.001524   
    629. D(Au 12,Fe 14,Au  1,Au  0)    134.1260         0.001524   
    630. D(Au  7,Fe 14,Au 13,Au 10)   -135.8878         0.001502   
    631. D(Au 11,Fe 14,Au  1,Au  3)    172.6194         0.001524   
    632. D(Au 11,Fe 14,Au  1,Au  6)   -128.2171         0.001524   
    633. D(Au 11,Fe 14,Au  1,Au  0)    112.7562         0.001524   
    634. D(Au  8,Fe 14,Au 13,Au 10)     61.8706         0.001502   
    635. D(Au  9,Fe 14,Au  1,Au  3)    116.9067         0.001524   
    636. D(Au  9,Fe 14,Au  1,Au  6)    176.0702         0.001524   
    637. D(Au  9,Fe 14,Au  1,Au  0)     57.0435         0.001524   
    638. D(Au  9,Fe 14,Au 13,Au 10)    -61.8846         0.001502   
    639. D(Au  8,Fe 14,Au  1,Au  3)     43.4679         0.001524   
    640. D(Au  8,Fe 14,Au  1,Au  6)    102.6314         0.001524   
    641. D(Au  8,Fe 14,Au  1,Au  0)    -16.3953         0.001524   
    642. D(Au  7,Fe 14,Au  1,Au  3)   -128.4046         0.001524   
    643. D(Au  7,Fe 14,Au  1,Au  6)    -69.2411         0.001524   
    644. D(Au  7,Fe 14,Au  1,Au  0)    171.7322         0.001524   
    645. D(Au  5,Fe 14,Au  1,Au  3)    -79.0159         0.001524   
    646. D(Au 12,Fe 14,Au 13,Au 10)    139.2222         0.001502   
    647. D(Au  5,Fe 14,Au  1,Au  6)    -19.8524         0.001524   
    648. D(Au  5,Fe 14,Au  1,Au  0)   -138.8791         0.001524   
    649. D(Au  4,Fe 14,Au  1,Au  3)    -14.4299         0.001524   
    650. D(Au  6,Fe 14,Au 13,Au 12)   -139.3114         0.001502   
    651. D(Au  4,Fe 14,Au  1,Au  6)     44.7336         0.001524   
    652. D(Au  4,Fe 14,Au  1,Au  0)    -74.2931         0.001524   
    -----------------------------------------------------------------

Number of atoms                         .... 15
Number of degrees of freedom            .... 652

         *************************************************************
         *                GEOMETRY OPTIMIZATION CYCLE   1            *
         *************************************************************
---------------------------------
CARTESIAN COORDINATES (ANGSTROEM)
---------------------------------
  Au     9.778808    8.203281    6.222336
  Au     7.517564    9.765219    6.923595
  Au     8.604472    5.776457    5.399266
  Au     7.528855    8.246710    4.474810
  Au     5.835627    6.290180    5.742207
  Au     3.963810    7.200492    7.654115
  Au     5.075424    9.017342    5.702408
  Au     5.177557    9.706700    8.506742
  Au     7.229633    4.944351    7.736705
  Au     8.914541    8.418630    8.915696
  Au     9.936018    5.917695    7.915233
  Au     6.585468    8.352568   10.514124
  Au     5.368811    5.846475    9.663957
  Au     8.209516    5.986530   10.180712
  Fe     6.483880    7.533542    8.073777

----------------------------
CARTESIAN COORDINATES (A.U.)
----------------------------
  NO LB      ZA    FRAG     MASS         X           Y           Z
   0 Au   19.0000*   0   196.966   18.479269   15.501955   11.758511
   1 Au   19.0000*   0   196.966   14.206137   18.453589   13.083699
   2 Au   19.0000*   0   196.966   16.260095   10.915922   10.203134
   3 Au   19.0000*   0   196.966   14.227474   15.584023    8.456165
   4 Au   19.0000*   0   196.966   11.027737   11.886717   10.851198
   5 Au   19.0000*   0   196.966    7.490515   13.606958   14.464182
   6 Au   19.0000*   0   196.966    9.591162   17.040308   10.775989
   7 Au   19.0000*   0   196.966    9.784164   18.343005   16.075412
   8 Au   19.0000*   0   196.966   13.662027    9.343469   14.620253
   9 Au   19.0000*   0   196.966   16.846041   15.908906   16.848224
  10 Au   19.0000*   0   196.966   18.776353   11.182823   14.957622
  11 Au   19.0000*   0   196.966   12.444731   15.784066   19.868816
  12 Au   19.0000*   0   196.966   10.145583   11.048236   18.262233
  13 Au   19.0000*   0   196.966   15.513737   11.312902   19.238757
  14 Fe   26.0000    0    55.850   12.252758   14.236332   15.257228
* core charge reduced due to ECP

--------------------------------
INTERNAL COORDINATES (ANGSTROEM)
--------------------------------
 Au     0   0   0     0.000000000000     0.00000000     0.00000000
 Au     1   0   0     2.836307032540     0.00000000     0.00000000
 Au     1   2   0     2.818862475134   102.36646854     0.00000000
 Au     3   1   2     2.848458806875    60.36077735    45.74470196
 Au     3   1   2     2.836902904695   102.43940548     0.05491193
 Au     5   3   1     2.826263194779   141.86036870   307.64301460
 Au     2   1   3     2.831018520876   115.82393414   336.45456322
 Au     2   1   3     2.825846889627   141.93316007    52.35729658
 Au     5   3   1     2.780742681384    60.64515581   262.98189169
 Au     2   1   3     2.780883030411    60.65634144    97.18591442
 Au     1   2   3     2.848599611150   109.81085090   297.31208110
 Au     8   2   1     2.800977443200    89.72999054    37.96966158
 Au     6   5   3     2.801224276848    89.85633386   322.25700907
 Au    10   2   1     2.830625190114   127.66738301   258.68687561
 Fe     8   2   1     2.572266809155    60.17580799   346.52664120

---------------------------
INTERNAL COORDINATES (A.U.)
---------------------------
 Au     0   0   0     0.000000000000     0.00000000     0.00000000
 Au     1   0   0     5.359843523216     0.00000000     0.00000000
 Au     1   2   0     5.326878087190   102.36646854     0.00000000
 Au     3   1   2     5.382807048749    60.36077735    45.74470196
 Au     3   1   2     5.360969558400   102.43940548     0.05491193
 Au     5   3   1     5.340863420513   141.86036870   307.64301460
 Au     2   1   3     5.349849684514   115.82393414   336.45456322
 Au     2   1   3     5.340076717788   141.93316007    52.35729658
 Au     5   3   1     5.254842116722    60.64515581   262.98189169
 Au     2   1   3     5.255107337946    60.65634144    97.18591442
 Au     1   2   3     5.383073130268   109.81085090   297.31208110
 Au     8   2   1     5.293080274938    89.72999054    37.96966158
 Au     6   5   3     5.293546722934    89.85633386   322.25700907
 Au    10   2   1     5.349106397094   127.66738301   258.68687561
 Fe     8   2   1     4.860879812679    60.17580799   346.52664120

---------------------
BASIS SET INFORMATION
---------------------
There are 2 groups of distinct atoms

 Group   1 Type Au  : 8s7p6d1f contracted to 6s4p3d1f pattern {311111/4111/411/1}
 Group   2 Type Fe  : 17s11p7d1f contracted to 6s4p4d1f pattern {842111/6311/4111/1}

Atom   0Au   basis set group =>   1
Atom   1Au   basis set group =>   1
Atom   2Au   basis set group =>   1
Atom   3Au   basis set group =>   1
Atom   4Au   basis set group =>   1
Atom   5Au   basis set group =>   1
Atom   6Au   basis set group =>   1
Atom   7Au   basis set group =>   1
Atom   8Au   basis set group =>   1
Atom   9Au   basis set group =>   1
Atom  10Au   basis set group =>   1
Atom  11Au   basis set group =>   1
Atom  12Au   basis set group =>   1
Atom  13Au   basis set group =>   1
Atom  14Fe   basis set group =>   2
---------------------------------
AUXILIARY/J BASIS SET INFORMATION
---------------------------------
There are 2 groups of distinct atoms

 Group   1 Type Au  : 11s5p5d3f3g contracted to 8s5p5d2f3g pattern {41111111/11111/11111/21/111}
 Group   2 Type Fe  : 19s5p5d3f3g contracted to 8s5p5d2f3g pattern {121111111/11111/11111/21/111}

Atom   0Au   basis set group =>   1
Atom   1Au   basis set group =>   1
Atom   2Au   basis set group =>   1
Atom   3Au   basis set group =>   1
Atom   4Au   basis set group =>   1
Atom   5Au   basis set group =>   1
Atom   6Au   basis set group =>   1
Atom   7Au   basis set group =>   1
Atom   8Au   basis set group =>   1
Atom   9Au   basis set group =>   1
Atom  10Au   basis set group =>   1
Atom  11Au   basis set group =>   1
Atom  12Au   basis set group =>   1
Atom  13Au   basis set group =>   1
Atom  14Fe   basis set group =>   2
-------------------------
ECP PARAMETER INFORMATION
-------------------------

 Group 1, Type Au ECP Def2-ECP (replacing 60 core electrons, lmax=3)

Atom   0Au   ECP group =>   1
Atom   1Au   ECP group =>   1
Atom   2Au   ECP group =>   1
Atom   3Au   ECP group =>   1
Atom   4Au   ECP group =>   1
Atom   5Au   ECP group =>   1
Atom   6Au   ECP group =>   1
Atom   7Au   ECP group =>   1
Atom   8Au   ECP group =>   1
Atom   9Au   ECP group =>   1
Atom  10Au   ECP group =>   1
Atom  11Au   ECP group =>   1
Atom  12Au   ECP group =>   1
Atom  13Au   ECP group =>   1

------------------------------------------------------------------------------
                           ORCA GTO INTEGRAL CALCULATION
                           -- RI-GTO INTEGRALS CHOSEN --
------------------------------------------------------------------------------
------------------------------------------------------------------------------
                   ___                                                        
                  /   \      - P O W E R E D   B Y -                         
                 /     \                                                     
                 |  |  |   _    _      __       _____    __    __             
                 |  |  |  | |  | |    /  \     |  _  \  |  |  /  |          
                  \  \/   | |  | |   /    \    | | | |  |  | /  /          
                 / \  \   | |__| |  /  /\  \   | |_| |  |  |/  /          
                |  |  |   |  __  | /  /__\  \  |    /   |      \           
                |  |  |   | |  | | |   __   |  |    \   |  |\   \          
                \     /   | |  | | |  |  |  |  | |\  \  |  | \   \       
                 \___/    |_|  |_| |__|  |__|  |_| \__\ |__|  \__/        
                                                                              
                      - O R C A' S   B I G   F R I E N D -                    
                                      &                                       
                       - I N T E G R A L  F E E D E R -                       
                                                                              
 v1 FN, 2020, v2 2021                                                         
------------------------------------------------------------------------------


Reading SHARK input file pbe.SHARKINP.tmp ... ok
----------------------
SHARK INTEGRAL PACKAGE
----------------------

Number of atoms                             ...     15
Number of basis functions                   ...    605
Number of shells                            ...    211
Maximum angular momentum                    ...      3
Integral batch strategy                     ... SHARK/LIBINT Hybrid
RI-J (if used) integral strategy            ... SPLIT-RIJ (Revised 2003 algorithm where possible)
Printlevel                                  ...      1
Contraction scheme used                     ... SEGMENTED contraction
Coulomb Range Separation                    ... NOT USED
Exchange Range Separation                   ... NOT USED
Finite Nucleus Model                        ... NOT USED
Auxiliary Coulomb fitting basis             ... AVAILABLE
   # of basis functions in Aux-J            ...   1335
   # of shells in Aux-J                     ...    345
   Maximum angular momentum in Aux-J        ...      4
Auxiliary J/K fitting basis                 ... NOT available
Auxiliary Correlation fitting basis         ... NOT available
Auxiliary 'external' fitting basis          ... NOT available
Integral threshold                          ...     2.500000e-11
Primitive cut-off                           ...     2.500000e-12
Primitive pair pre-selection threshold      ...     2.500000e-12

Calculating pre-screening integrals         ... done (  0.5 sec) Dimension = 211
Organizing shell pair data                  ... done (  0.3 sec)
Shell pair information
Total number of shell pairs                 ...     22366
Shell pairs after pre-screening             ...     18011
Total number of primitive shell pairs       ...     59609
Primitive shell pairs kept                  ...     34550
          la=0 lb=0:   2812 shell pairs
          la=1 lb=0:   4084 shell pairs
          la=1 lb=1:   1557 shell pairs
          la=2 lb=0:   3580 shell pairs
          la=2 lb=1:   2522 shell pairs
          la=2 lb=2:   1042 shell pairs
          la=3 lb=0:    938 shell pairs
          la=3 lb=1:    736 shell pairs
          la=3 lb=2:    636 shell pairs
          la=3 lb=3:    104 shell pairs

Calculating one electron integrals          ... done (  0.2 sec)
Calculating ECP integrals                   ... done ( 15.4 sec)
Calculating RI/J V-Matrix + Cholesky decomp.... done (  0.1 sec)
Calculating Nuclear repulsion               ... done (  0.0 sec) ENN=   5703.252566359761 Eh

SHARK setup successfully completed in  17.2 seconds

Maximum memory used throughout the entire GTOINT-calculation: 513.4 MB
-------------------------------------------------------------------------------
                                 ORCA SCF
-------------------------------------------------------------------------------

------------
SCF SETTINGS
------------
Hamiltonian:
 Density Functional     Method          .... DFT(GTOs)
 Exchange Functional    Exchange        .... PBE
   PBE kappa parameter   XKappa         ....  0.804000
   PBE mue parameter    XMuePBE         ....  0.219520
 Correlation Functional Correlation     .... PBE
   PBE beta parameter  CBetaPBE         ....  0.066725
 LDA part of GGA corr.  LDAOpt          .... PW91-LDA
 Gradients option       PostSCFGGA      .... off
   Density functional embedding theory  .... OFF
   NL short-range parameter             ....  6.400000
 RI-approximation to the Coulomb term is turned on
   Number of AuxJ basis functions       .... 1335


General Settings:
 Integral files         IntName         .... pbe
 Hartree-Fock type      HFTyp           .... UHF
 Total Charge           Charge          ....    0
 Multiplicity           Mult            ....    3
 Number of Electrons    NEL             ....  292
 Basis Dimension        Dim             ....  605
 Nuclear Repulsion      ENuc            ....   5703.2525663598 Eh

Convergence Acceleration:
 DIIS                   CNVDIIS         .... on
   Start iteration      DIISMaxIt       ....     0
   Startup error        DIISStart       ....  0.200000
   # of expansion vecs  DIISMaxEq       ....     5
   Bias factor          DIISBfac        ....   1.050
   Max. coefficient     DIISMaxC        ....  10.000
 Trust-Rad. Augm. Hess. CNVTRAH         .... auto
   Auto Start mean grad. ratio tolernc. ....  1.125000
   Auto Start start iteration           ....    20
   Auto Start num. interpolation iter.  ....    10
   Max. Number of Micro iterations      ....    16
   Max. Number of Macro iterations      .... Maxiter - #DIIS iter
   Number of Davidson start vectors     ....     2
   Converg. threshold I  (grad. norm)   ....   1.000e-05
   Converg. threshold II (energy diff.) ....   1.000e-08
   Grad. Scal. Fac. for Micro threshold ....   0.100
   Minimum threshold for Micro iter.    ....   0.010
   NR start threshold (gradient norm)   ....   0.001
   Initial trust radius                 ....   0.400
   Minimum AH scaling param. (alpha)    ....   1.000
   Maximum AH scaling param. (alpha)    .... 1000.000
   Orbital update algorithm             .... Taylor
   White noise on init. David. guess    .... on
   Maximum white noise                  ....   0.010
   Quad. conv. algorithm                .... NR
 SOSCF                  CNVSOSCF        .... off
 Level Shifting         CNVShift        .... on
   Level shift para.    LevelShift      ....    0.2500
   Turn off err/grad.   ShiftErr        ....    0.0000
 Zerner damping         CNVZerner       .... off
 Static damping         CNVDamp         .... on
   Fraction old density DampFac         ....    0.8500
   Max. Damping (<1)    DampMax         ....    0.9800
   Min. Damping (>=0)   DampMin         ....    0.0000
   Turn off err/grad.   DampErr         ....    0.0300
 Fernandez-Rico         CNVRico         .... off

SCF Procedure:
 Maximum # iterations   MaxIter         ....   125
 SCF integral mode      SCFMode         .... Direct
   Integral package                     .... SHARK and LIBINT hybrid scheme
 Reset frequency        DirectResetFreq ....    20
 Integral Threshold     Thresh          ....  2.500e-11 Eh
 Primitive CutOff       TCut            ....  2.500e-12 Eh

Convergence Tolerance:
 Convergence Check Mode ConvCheckMode   .... Total+1el-Energy
 Convergence forced     ConvForced      .... 0
 Energy Change          TolE            ....  1.000e-08 Eh
 1-El. energy change                    ....  1.000e-05 Eh
 DIIS Error             TolErr          ....  5.000e-07


Diagonalization of the overlap matrix:
Smallest eigenvalue                        ... 4.563e-04
Time for diagonalization                   ...    0.099 sec
Threshold for overlap eigenvalues          ... 1.000e-08
Number of eigenvalues below threshold      ... 0
Time for construction of square roots      ...    0.057 sec
Total time needed                          ...    0.157 sec

Time for model grid setup =    2.651 sec

------------------------------
INITIAL GUESS: MODEL POTENTIAL
------------------------------
Loading Hartree-Fock densities                     ... done
  calling /media/Programs/ORCA501/orca pbe_atom79.inp > pbe_atom79.out in order to generate an atomic fitting density for atom 0 (Au with ECP) on-the-fly... 
    atom 0 (Au), assumed electronic state with S=2: 1s2 2s2 2p6 3s2 3p6 4s2 3d10 4p6 5s2 4d10 5p6 6s1 4f14 5d10           ... done
Calculating cut-offs                               ... done
Initializing the effective Hamiltonian             ... done
Setting up the integral package (SHARK)            ... done
Starting the Coulomb interaction                   ... done (   2.7 sec)
Reading the grid                                   ... done
Mapping shells                                     ... done
Starting the XC term evaluation                    ... done (   3.7 sec)
  promolecular density results
     # of electrons  =   1132.014041137
     EX              =  -5175.595509191
     EC              =    -68.972790492
     EX+EC           =  -5244.568299683
Transforming the Hamiltonian                       ... done (   0.0 sec)
Diagonalizing the Hamiltonian                      ... done (   0.1 sec)
Back transforming the eigenvectors                 ... done (   0.0 sec)
Now organizing SCF variables                       ... done
                      ------------------
                      INITIAL GUESS DONE (  10.3 sec)
                      ------------------
-------------------
DFT GRID GENERATION
-------------------

General Integration Accuracy     IntAcc      ... 4.388
Radial Grid Type                 RadialGrid  ... OptM3 with GC (2021)
Angular Grid (max. ang.)         AngularGrid ... 4 (Lebedev-302)
Angular grid pruning method      GridPruning ... 4 (adaptive)
Weight generation scheme         WeightScheme... Becke
Basis function cutoff            BFCut       ... 1.0000e-11
Integration weight cutoff        WCut        ... 1.0000e-14
Angular grids for H and He will be reduced by one unit
Partially contracted basis set               ... off
Rotationally invariant grid construction     ... off

Total number of grid points                  ...   165701
Total number of batches                      ...     2596
Average number of points per batch           ...       63
Average number of grid points per atom       ...    11047
Time for grid setup =    3.924 sec

--------------
SCF ITERATIONS
--------------
ITER       Energy         Delta-E        Max-DP      RMS-DP      [F,P]     Damp
               ***  Starting incremental Fock matrix formation  ***
  0  -3161.5613006898   0.000000000000 0.16870910  0.00133902  0.5459591 0.8500
  1  -3163.5889360354  -2.027635345618 0.11989888  0.00096240  0.2441647 0.8500
                               ***Turning on DIIS***
  2  -3163.8760097772  -0.287073741815 0.06165759  0.00053936  0.2059656 0.8500
  3  -3163.9917777158  -0.115767938623 0.05229489  0.00054002  0.1733255 0.8500
  4  -3164.1604930332  -0.168715317319 0.04140397  0.00037357  0.1461095 0.8500
  5  -3164.2585427894  -0.098049756219 0.02703769  0.00033716  0.1241429 0.8500
  6  -3164.3895623980  -0.131019608617 0.04112032  0.00030360  0.1056685 0.8500
  7  -3164.4843931215  -0.094830723484 0.04214786  0.00025371  0.0898895 0.8500
  8  -3164.5544899009  -0.070096779378 0.02946541  0.00020952  0.0763594 0.8500
  9  -3164.6251198604  -0.070629959562 0.02018924  0.00018860  0.0645915 0.8500
 10  -3164.6804747823  -0.055354921863 0.01808553  0.00016247  0.0547655 0.8500
 11  -3164.7251685063  -0.044693724035 0.01415504  0.00014119  0.0464865 0.8500
 12  -3164.7699507712  -0.044782264859 0.01675671  0.00013045  0.0394738 0.8500
 13  -3164.8079533341  -0.038002562947 0.02094434  0.00011398  0.0336021 0.8500
 14  -3164.8379895232  -0.030036189030 0.10325908  0.00062735  0.0286105 0.0000
 15  -3165.0096579733  -0.171668450160 0.05408522  0.00028969  0.0235113 0.0000
 16  -3165.0125727222  -0.002914748897 0.01626099  0.00010110  0.0061001 0.0000
 17  -3165.0175200748  -0.004947352597 0.00921092  0.00010999  0.0042408 0.0000
 18  -3165.0188793593  -0.001359284478 0.00744665  0.00005975  0.0142858 0.0000
 19  -3165.0207947128  -0.001915353472 0.00482166  0.00005725  0.0060208 0.0000
               *** Restarting incremental Fock matrix formation ***
                                   *** Resetting DIIS ***
 20  -3165.0221475146  -0.001352801846 0.00649942  0.00006443  0.0032128 0.0000
 21  -3165.0231259124  -0.000978397793 0.00456205  0.00005477  0.0074256 0.0000
 22  -3165.0244273671  -0.001301454684 0.00434521  0.00005278  0.0045953 0.0000
 23  -3165.0255206372  -0.001093270081 0.01264969  0.00007204  0.0028953 0.0000
 24  -3165.0268317122  -0.001311075011 0.00475126  0.00006073  0.0019431 0.0000
 25  -3165.0278938920  -0.001062179850 0.00349642  0.00005059  0.0015324 0.0000
 26  -3165.0287390268  -0.000845134750 0.01135228  0.00007144  0.0016497 0.0000
 27  -3165.0296745838  -0.000935557007 0.00362160  0.00004816  0.0032549 0.0000
 28  -3165.0304338403  -0.000759256513 0.00756147  0.00005348  0.0015012 0.0000
 29  -3165.0310929950  -0.000659154725 0.00331459  0.00003940  0.0012870 0.0000
 30  -3165.0315487957  -0.000455800720 0.00527168  0.00003737  0.0017015 0.0000

 WARNING: the maximum gradient error descreased on average only by a factor   1.1
          during the last 20 iterations

                      *** Initiating the TRAH-SCF procedure ***


TRAH GRID
---------

General Integration Accuracy     IntAcc      ... 3.467
Radial Grid Type                 RadialGrid  ... OptM3 with GC (2021)
Angular Grid (max. ang.)         AngularGrid ... 1 (Lebedev-50)
Angular grid pruning method      GridPruning ... 4 (adaptive)
Weight generation scheme         WeightScheme... Becke
Basis function cutoff            BFCut       ... 1.0000e-11
Integration weight cutoff        WCut        ... 1.0000e-14
Angular grids for H and He will be reduced by one unit
Partially contracted basis set               ... off
Rotationally invariant grid construction     ... off

Total number of grid points                  ...    71458
Total number of batches                      ...     1125
Average number of points per batch           ...       63
Average number of grid points per atom       ...     4764

 --------------------------------------------------------------------------------------------
   Iter.        energy            ||Error||_2        Shift      TRadius  Mac/Mic        Rej.
 --------------------------------------------------------------------------------------------
WARNING: 2 diagonal Hessian elements are negative!
    0      -3165.031935715318     9.502114e-03                     0.400 (TRAH MAcro)   No
WARNING : negative HOMO - LUMO gap : (op = alpha) -0.010703
WARNING : negative HOMO - LUMO gap : (op =  beta) -0.003031
    0     dE    -4.140004e-05     1.531940e-02    -4.1399e-05      0.004 (TRAH MIcro)
    0     dE    -9.449142e-04     3.687009e-02    -9.2472e-04      0.148 (TRAH MIcro)
    0     dE    -1.517894e-03     1.543111e-02    -1.4403e-03      0.232 (TRAH MIcro)
    0     dE    -1.638610e-03     1.084183e-02    -1.5423e-03      0.250 (TRAH MIcro)
    0     dE    -1.721350e-03     6.862178e-03    -1.6123e-03      0.260 (TRAH MIcro)
    0     dE    -1.751679e-03     3.945579e-03    -1.6372e-03      0.264 (TRAH MIcro)
    0     dE    -1.762728e-03     2.709677e-03    -1.6463e-03      0.266 (TRAH MIcro)
    0     dE    -1.773158e-03     3.673882e-03    -1.6547e-03      0.268 (TRAH MIcro)
[...]
 220( 0) :     0.261398 a.u.     7.113 eV
 221( 0) :     0.268832 a.u.     7.315 eV
 222( 0) :     0.274379 a.u.     7.466 eV
 223( 0) :     0.274774 a.u.     7.477 eV
 224( 0) :     0.277690 a.u.     7.556 eV
 225( 0) :     0.278234 a.u.     7.571 eV
 226( 0) :     0.291253 a.u.     7.925 eV
 227( 0) :     0.291752 a.u.     7.939 eV
 228( 0) :     0.295848 a.u.     8.050 eV
 229( 0) :     0.298149 a.u.     8.113 eV
 230( 0) :     0.299878 a.u.     8.160 eV
 231( 0) :     0.300061 a.u.     8.165 eV
 232( 0) :     0.310323 a.u.     8.444 eV
 233( 0) :     0.312125 a.u.     8.493 eV
 234( 0) :     0.323338 a.u.     8.798 eV
 235( 0) :     0.325573 a.u.     8.859 eV
 236( 0) :     0.326906 a.u.     8.896 eV
 237( 0) :     0.339592 a.u.     9.241 eV
 238( 0) :     0.340858 a.u.     9.275 eV
 239( 0) :     0.344983 a.u.     9.387 eV
 240( 0) :     0.353545 a.u.     9.620 eV
 241( 0) :     0.353973 a.u.     9.632 eV
 242( 0) :     0.359410 a.u.     9.780 eV
 243( 0) :     0.365760 a.u.     9.953 eV
 244( 0) :     0.369443 a.u.    10.053 eV
 245( 0) :     0.371969 a.u.    10.122 eV
 246( 0) :     0.386079 a.u.    10.506 eV
 247( 0) :     0.397504 a.u.    10.817 eV
 248( 0) :     0.399859 a.u.    10.881 eV
 249( 0) :     0.401616 a.u.    10.929 eV
 250( 0) :     0.403438 a.u.    10.978 eV
 251( 0) :     0.408411 a.u.    11.113 eV
 252( 0) :     0.413518 a.u.    11.252 eV
 253( 0) :     0.413920 a.u.    11.263 eV
 254( 0) :     0.420535 a.u.    11.443 eV
 255( 0) :     0.425191 a.u.    11.570 eV
 256( 0) :     0.425633 a.u.    11.582 eV
 257( 0) :     0.431372 a.u.    11.738 eV
 258( 0) :     0.433118 a.u.    11.786 eV
 259( 0) :     0.439644 a.u.    11.963 eV
 260( 0) :     0.446359 a.u.    12.146 eV
 261( 0) :     0.447120 a.u.    12.167 eV
 262( 0) :     0.451391 a.u.    12.283 eV
 263( 0) :     0.455285 a.u.    12.389 eV
 264( 0) :     0.461736 a.u.    12.564 eV
 265( 0) :     0.469987 a.u.    12.789 eV
 266( 0) :     0.470321 a.u.    12.798 eV
 267( 0) :     0.473538 a.u.    12.886 eV
 268( 0) :     0.476474 a.u.    12.966 eV
 269( 0) :     0.477962 a.u.    13.006 eV
 270( 0) :     0.486396 a.u.    13.236 eV
 271( 0) :     0.491567 a.u.    13.376 eV
 272( 0) :     0.495185 a.u.    13.475 eV
 273( 0) :     0.499683 a.u.    13.597 eV
 274( 0) :     0.504465 a.u.    13.727 eV
 275( 0) :     0.508596 a.u.    13.840 eV
 276( 0) :     0.511364 a.u.    13.915 eV
 277( 0) :     0.511819 a.u.    13.927 eV
 278( 0) :     0.516419 a.u.    14.052 eV
 279( 0) :     0.517406 a.u.    14.079 eV
 280( 0) :     0.530156 a.u.    14.426 eV
 281( 0) :     0.533668 a.u.    14.522 eV
 282( 0) :     0.535857 a.u.    14.581 eV
 283( 0) :     0.536695 a.u.    14.604 eV
 284( 0) :     0.542146 a.u.    14.753 eV
 285( 0) :     0.549057 a.u.    14.941 eV
 286( 0) :     0.558100 a.u.    15.187 eV
 287( 0) :     0.582780 a.u.    15.858 eV
 288( 0) :     0.602279 a.u.    16.389 eV
 289( 0) :     0.625554 a.u.    17.022 eV
 290( 0) :     0.633262 a.u.    17.232 eV
 291( 0) :     0.672681 a.u.    18.305 eV
 292( 0) :     0.680408 a.u.    18.515 eV
 293( 0) :     0.688913 a.u.    18.746 eV
 294( 0) :     0.701355 a.u.    19.085 eV
 295( 0) :     0.709042 a.u.    19.294 eV
 296( 0) :     0.717379 a.u.    19.521 eV
 297( 0) :     0.721329 a.u.    19.628 eV
 298( 0) :     0.728055 a.u.    19.811 eV
 299( 0) :     0.730258 a.u.    19.871 eV
 300( 0) :     0.738833 a.u.    20.105 eV
 301( 0) :     0.756918 a.u.    20.597 eV
 302( 0) :     0.759662 a.u.    20.671 eV
 303( 0) :     0.764360 a.u.    20.799 eV
 304( 0) :     0.775818 a.u.    21.111 eV
 305( 0) :     0.776102 a.u.    21.119 eV
 306( 0) :     0.776822 a.u.    21.138 eV
 307( 0) :     0.781484 a.u.    21.265 eV
 308( 0) :     0.790273 a.u.    21.504 eV
 309( 0) :     0.802519 a.u.    21.838 eV
 310( 0) :     0.808866 a.u.    22.010 eV
 311( 0) :     0.811209 a.u.    22.074 eV
 312( 0) :     0.817946 a.u.    22.257 eV
 313( 0) :     0.836251 a.u.    22.756 eV
 314( 0) :     0.838993 a.u.    22.830 eV
 315( 0) :     0.842747 a.u.    22.932 eV
 316( 0) :     0.848105 a.u.    23.078 eV
 317( 0) :     0.851558 a.u.    23.172 eV
 318( 0) :     0.872071 a.u.    23.730 eV
 319( 0) :     0.875372 a.u.    23.820 eV
 320( 0) :     0.891386 a.u.    24.256 eV
 321( 0) :     0.896239 a.u.    24.388 eV
 322( 0) :     0.897877 a.u.    24.432 eV
 323( 0) :     0.906562 a.u.    24.669 eV
 324( 0) :     0.917167 a.u.    24.957 eV
 325( 0) :     0.917540 a.u.    24.968 eV
 326( 0) :     0.933879 a.u.    25.412 eV
 327( 0) :     0.957673 a.u.    26.060 eV
 328( 0) :     0.958990 a.u.    26.095 eV
 329( 0) :     0.983928 a.u.    26.774 eV
 330( 0) :     0.994748 a.u.    27.068 eV
 331( 0) :     1.013370 a.u.    27.575 eV
 332( 0) :     1.076294 a.u.    29.287 eV
 333( 0) :     1.090471 a.u.    29.673 eV
 334( 0) :     1.100291 a.u.    29.940 eV
 335( 0) :     1.217752 a.u.    33.137 eV
 336( 0) :     1.219129 a.u.    33.174 eV
 337( 0) :     1.219813 a.u.    33.193 eV
 338( 0) :     1.229884 a.u.    33.467 eV
 339( 0) :     1.244351 a.u.    33.861 eV
 340( 0) :     1.250373 a.u.    34.024 eV
 341( 0) :     1.255414 a.u.    34.162 eV
 342( 0) :     1.256785 a.u.    34.199 eV
 343( 0) :     1.263848 a.u.    34.391 eV
 344( 0) :     1.263942 a.u.    34.394 eV
 345( 0) :     1.297283 a.u.    35.301 eV
 346( 0) :     1.299180 a.u.    35.352 eV
 347( 0) :     1.301214 a.u.    35.408 eV
 348( 0) :     1.305717 a.u.    35.530 eV
 349( 0) :     1.311232 a.u.    35.680 eV
 350( 0) :     1.323613 a.u.    36.017 eV
 351( 0) :     1.329256 a.u.    36.171 eV
 352( 0) :     1.343375 a.u.    36.555 eV
 353( 0) :     1.348365 a.u.    36.691 eV
 354( 0) :     1.351011 a.u.    36.763 eV
 355( 0) :     1.358536 a.u.    36.968 eV
 356( 0) :     1.358694 a.u.    36.972 eV
 357( 0) :     1.367815 a.u.    37.220 eV
 358( 0) :     1.379804 a.u.    37.546 eV
 359( 0) :     1.380567 a.u.    37.567 eV
 360( 0) :     1.381215 a.u.    37.585 eV
 361( 0) :     1.396314 a.u.    37.996 eV
 362( 0) :     1.404627 a.u.    38.222 eV
 363( 0) :     1.405186 a.u.    38.237 eV
 364( 0) :     1.409908 a.u.    38.366 eV
 365( 0) :     1.414229 a.u.    38.483 eV
 366( 0) :     1.415832 a.u.    38.527 eV
 367( 0) :     1.418205 a.u.    38.591 eV
 368( 0) :     1.423735 a.u.    38.742 eV
 369( 0) :     1.428109 a.u.    38.861 eV
 370( 0) :     1.430439 a.u.    38.924 eV
 371( 0) :     1.430775 a.u.    38.933 eV
 372( 0) :     1.436133 a.u.    39.079 eV
 373( 0) :     1.437235 a.u.    39.109 eV
 374( 0) :     1.443638 a.u.    39.283 eV
 375( 0) :     1.449045 a.u.    39.431 eV
 376( 0) :     1.449313 a.u.    39.438 eV
 377( 0) :     1.454501 a.u.    39.579 eV
 378( 0) :     1.456657 a.u.    39.638 eV
 379( 0) :     1.458393 a.u.    39.685 eV
 380( 0) :     1.459943 a.u.    39.727 eV
 381( 0) :     1.465038 a.u.    39.866 eV
 382( 0) :     1.470031 a.u.    40.002 eV
 383( 0) :     1.471143 a.u.    40.032 eV
 384( 0) :     1.474694 a.u.    40.128 eV
 385( 0) :     1.476883 a.u.    40.188 eV
 386( 0) :     1.479533 a.u.    40.260 eV
 387( 0) :     1.481589 a.u.    40.316 eV
 388( 0) :     1.481679 a.u.    40.319 eV
 389( 0) :     1.485046 a.u.    40.410 eV
 390( 0) :     1.489467 a.u.    40.530 eV
 391( 0) :     1.489771 a.u.    40.539 eV
 392( 0) :     1.489932 a.u.    40.543 eV
 393( 0) :     1.491509 a.u.    40.586 eV
 394( 0) :     1.492104 a.u.    40.602 eV
 395( 0) :     1.492509 a.u.    40.613 eV
 396( 0) :     1.495446 a.u.    40.693 eV
 397( 0) :     1.495703 a.u.    40.700 eV
 398( 0) :     1.496328 a.u.    40.717 eV
 399( 0) :     1.498999 a.u.    40.790 eV
 400( 0) :     1.501015 a.u.    40.845 eV
 401( 0) :     1.503950 a.u.    40.925 eV
 402( 0) :     1.504501 a.u.    40.940 eV
 403( 0) :     1.504725 a.u.    40.946 eV
 404( 0) :     1.505523 a.u.    40.967 eV
 405( 0) :     1.505831 a.u.    40.976 eV
 406( 0) :     1.508831 a.u.    41.057 eV
 407( 0) :     1.510751 a.u.    41.110 eV
 408( 0) :     1.513350 a.u.    41.180 eV
 409( 0) :     1.513682 a.u.    41.189 eV
 410( 0) :     1.515406 a.u.    41.236 eV
 411( 0) :     1.515909 a.u.    41.250 eV
 412( 0) :     1.518496 a.u.    41.320 eV
 413( 0) :     1.518942 a.u.    41.333 eV
 414( 0) :     1.519094 a.u.    41.337 eV
 415( 0) :     1.519832 a.u.    41.357 eV
 416( 0) :     1.522723 a.u.    41.435 eV
 417( 0) :     1.523451 a.u.    41.455 eV
 418( 0) :     1.525023 a.u.    41.498 eV
 419( 0) :     1.527385 a.u.    41.562 eV
 420( 0) :     1.529642 a.u.    41.624 eV
 421( 0) :     1.535853 a.u.    41.793 eV
 422( 0) :     1.539181 a.u.    41.883 eV
 423( 0) :     1.539203 a.u.    41.884 eV
 424( 0) :     1.543878 a.u.    42.011 eV
 425( 0) :     1.546268 a.u.    42.076 eV
 426( 0) :     1.547248 a.u.    42.103 eV
 427( 0) :     1.550988 a.u.    42.205 eV
 428( 0) :     1.553151 a.u.    42.263 eV
 429( 0) :     1.557453 a.u.    42.380 eV
 430( 0) :     1.557666 a.u.    42.386 eV
 431( 0) :     1.561555 a.u.    42.492 eV
 432( 0) :     1.562958 a.u.    42.530 eV
 433( 0) :     1.564098 a.u.    42.561 eV
 434( 0) :     1.565488 a.u.    42.599 eV
 435( 0) :     1.570347 a.u.    42.731 eV
 436( 0) :     1.570927 a.u.    42.747 eV
 437( 0) :     1.573825 a.u.    42.826 eV
 438( 0) :     1.574159 a.u.    42.835 eV
 439( 0) :     1.575683 a.u.    42.877 eV
 440( 0) :     1.577186 a.u.    42.917 eV
 441( 0) :     1.578118 a.u.    42.943 eV
 442( 0) :     1.579994 a.u.    42.994 eV
 443( 0) :     1.585059 a.u.    43.132 eV
 444( 0) :     1.587025 a.u.    43.185 eV
 445( 0) :     1.587584 a.u.    43.200 eV
 446( 0) :     1.591600 a.u.    43.310 eV
 447( 0) :     1.594756 a.u.    43.396 eV
 448( 0) :     1.596639 a.u.    43.447 eV
 449( 0) :     1.597339 a.u.    43.466 eV
 450( 0) :     1.598012 a.u.    43.484 eV
 451( 0) :     1.604575 a.u.    43.663 eV
 452( 0) :     1.605201 a.u.    43.680 eV
 453( 0) :     1.605927 a.u.    43.700 eV
 454( 0) :     1.610025 a.u.    43.811 eV
 455( 0) :     1.614339 a.u.    43.928 eV
 456( 0) :     1.614560 a.u.    43.934 eV
 457( 0) :     1.629884 a.u.    44.351 eV
 458( 0) :     1.630184 a.u.    44.360 eV
 459( 0) :     1.630305 a.u.    44.363 eV
 460( 0) :     1.631361 a.u.    44.392 eV
 461( 0) :     1.635956 a.u.    44.517 eV
 462( 0) :     1.638054 a.u.    44.574 eV
 463( 0) :     1.638917 a.u.    44.597 eV
 464( 0) :     1.640553 a.u.    44.642 eV
 465( 0) :     1.645284 a.u.    44.770 eV
 466( 0) :     1.646706 a.u.    44.809 eV
 467( 0) :     1.658573 a.u.    45.132 eV
 468( 0) :     1.660286 a.u.    45.179 eV
 469( 0) :     1.671791 a.u.    45.492 eV
 470( 0) :     1.673068 a.u.    45.526 eV
 471( 0) :     1.673935 a.u.    45.550 eV
 472( 0) :     1.694294 a.u.    46.104 eV
 473( 0) :     1.711798 a.u.    46.580 eV
 474( 0) :     1.713835 a.u.    46.636 eV
 475( 0) :     1.724526 a.u.    46.927 eV
 476( 0) :     1.737986 a.u.    47.293 eV
 477( 0) :     1.743732 a.u.    47.449 eV
 478( 0) :     1.752318 a.u.    47.683 eV
 479( 0) :     1.754370 a.u.    47.739 eV
 480( 0) :     1.762626 a.u.    47.963 eV
 481( 0) :     1.766348 a.u.    48.065 eV
 482( 0) :     1.768561 a.u.    48.125 eV
 483( 0) :     1.777810 a.u.    48.377 eV
 484( 0) :     1.780399 a.u.    48.447 eV
 485( 0) :     1.788004 a.u.    48.654 eV
 486( 0) :     1.794499 a.u.    48.831 eV
 487( 0) :     1.799267 a.u.    48.961 eV
 488( 0) :     1.804472 a.u.    49.102 eV
 489( 0) :     1.809586 a.u.    49.241 eV
 490( 0) :     1.809964 a.u.    49.252 eV
 491( 0) :     1.813457 a.u.    49.347 eV
 492( 0) :     1.820775 a.u.    49.546 eV
 493( 0) :     1.821887 a.u.    49.576 eV
 494( 0) :     1.839817 a.u.    50.064 eV
 495( 0) :     1.843984 a.u.    50.177 eV
 496( 0) :     1.852636 a.u.    50.413 eV
 497( 0) :     1.854731 a.u.    50.470 eV
 498( 0) :     1.866783 a.u.    50.798 eV
 499( 0) :     1.901661 a.u.    51.747 eV
 500( 0) :     1.920771 a.u.    52.267 eV
 501( 0) :     1.930527 a.u.    52.532 eV
 502( 0) :     1.950959 a.u.    53.088 eV
 503( 0) :     2.044723 a.u.    55.640 eV
 504( 0) :     2.114757 a.u.    57.545 eV
 505( 0) :     2.130775 a.u.    57.981 eV
 506( 0) :     2.262752 a.u.    61.573 eV
 507( 0) :     2.277740 a.u.    61.980 eV
 508( 0) :     2.297848 a.u.    62.528 eV
 509( 0) :     2.370093 a.u.    64.493 eV
 510( 0) :     2.392375 a.u.    65.100 eV
 511( 0) :     2.412626 a.u.    65.651 eV
 512( 0) :     2.415648 a.u.    65.733 eV
 513( 0) :     2.421330 a.u.    65.888 eV
 514( 0) :     2.451444 a.u.    66.707 eV
 515( 0) :     2.459917 a.u.    66.938 eV
 516( 0) :     2.481167 a.u.    67.516 eV
 517( 0) :     2.490711 a.u.    67.776 eV
 518( 0) :     2.516283 a.u.    68.472 eV
 519( 0) :     2.531342 a.u.    68.881 eV
 520( 0) :     2.533973 a.u.    68.953 eV
 521( 0) :     2.572277 a.u.    69.995 eV
 522( 0) :     3.406423 a.u.    92.693 eV
 523( 0) :     3.540265 a.u.    96.336 eV
 524( 0) :     3.624300 a.u.    98.622 eV
 525( 0) :     3.744750 a.u.   101.900 eV
 526( 0) :     3.751331 a.u.   102.079 eV
 527( 0) :     3.811880 a.u.   103.727 eV
 528( 0) :     3.903129 a.u.   106.210 eV
 529( 0) :     3.908363 a.u.   106.352 eV
 530( 0) :     3.913269 a.u.   106.485 eV
 531( 0) :     3.913444 a.u.   106.490 eV
 532( 0) :     3.937389 a.u.   107.142 eV
 533( 0) :     3.938277 a.u.   107.166 eV
 534( 0) :     3.943613 a.u.   107.311 eV
 535( 0) :    23.993321 a.u.   652.891 eV
 536( 0) :    24.184661 a.u.   658.098 eV
 537( 0) :    24.270612 a.u.   660.437 eV
 538( 0) :    24.387483 a.u.   663.617 eV
 539( 0) :    24.395784 a.u.   663.843 eV
 540( 0) :    24.588465 a.u.   669.086 eV
 541( 0) :    24.655481 a.u.   670.910 eV
 542( 0) :    24.801359 a.u.   674.879 eV
 543( 0) :    25.049990 a.u.   681.645 eV
 544( 0) :    25.245135 a.u.   686.955 eV
 545( 0) :    25.266672 a.u.   687.541 eV
 546( 0) :    25.440590 a.u.   692.274 eV
 547( 0) :    25.624557 a.u.   697.280 eV
 548( 0) :    25.661218 a.u.   698.277 eV
 549( 0) :    25.702547 a.u.   699.402 eV
 550( 0) :    25.711490 a.u.   699.645 eV
 551( 0) :    25.743942 a.u.   700.528 eV
 552( 0) :    25.821728 a.u.   702.645 eV
 553( 0) :    25.877039 a.u.   704.150 eV
 554( 0) :    26.000550 a.u.   707.511 eV
 555( 0) :    26.038466 a.u.   708.543 eV
 556( 0) :    26.181592 a.u.   712.437 eV
 557( 0) :    26.265227 a.u.   714.713 eV
 558( 0) :    26.281998 a.u.   715.170 eV
 559( 0) :    26.405068 a.u.   718.518 eV
 560( 0) :    26.517291 a.u.   721.572 eV
 561( 0) :    26.529133 a.u.   721.894 eV
 562( 0) :    26.661276 a.u.   725.490 eV
 563( 0) :    26.889787 a.u.   731.708 eV
 564( 0) :    26.977538 a.u.   734.096 eV
 565( 0) :    26.995146 a.u.   734.575 eV
 566( 0) :    27.082727 a.u.   736.958 eV
 567( 0) :    27.128766 a.u.   738.211 eV
 568( 0) :    27.265487 a.u.   741.932 eV
 569( 0) :    27.425526 a.u.   746.286 eV
 570( 0) :    27.577787 a.u.   750.430 eV
 571( 0) :    27.893813 a.u.   759.029 eV
 572( 0) :    27.932796 a.u.   760.090 eV
 573( 0) :    28.176100 a.u.   766.711 eV
 574( 0) :    28.473181 a.u.   774.795 eV
 575( 0) :    30.695820 a.u.   835.276 eV
 576( 0) :    30.802592 a.u.   838.181 eV
 577( 0) :    43.886910 a.u.  1194.224 eV
 578( 0) :    44.014865 a.u.  1197.705 eV
 579( 0) :    44.022449 a.u.  1197.912 eV
 580( 0) :    44.056726 a.u.  1198.844 eV
 581( 0) :    44.116436 a.u.  1200.469 eV
 582( 0) :    44.122403 a.u.  1200.632 eV
 583( 0) :    44.127109 a.u.  1200.760 eV
 584( 0) :    44.147306 a.u.  1201.309 eV
 585( 0) :    44.153838 a.u.  1201.487 eV
 586( 0) :    44.169907 a.u.  1201.924 eV
 587( 0) :    44.173312 a.u.  1202.017 eV
 588( 0) :    44.198718 a.u.  1202.708 eV
 589( 0) :    44.242296 a.u.  1203.894 eV
 590( 0) :    44.261292 a.u.  1204.411 eV
 591( 0) :   205.082036 a.u.  5580.566 eV
 592( 0) :   205.136088 a.u.  5582.037 eV
 593( 0) :   205.138096 a.u.  5582.091 eV
 594( 0) :   205.150821 a.u.  5582.438 eV
 595( 0) :   205.181022 a.u.  5583.259 eV
 596( 0) :   205.181411 a.u.  5583.270 eV
 597( 0) :   205.185277 a.u.  5583.375 eV
 598( 0) :   205.194222 a.u.  5583.619 eV
 599( 0) :   205.196137 a.u.  5583.671 eV
 600( 0) :   205.196831 a.u.  5583.690 eV
 601( 0) :   205.204751 a.u.  5583.905 eV
 602( 0) :   205.207481 a.u.  5583.979 eV
 603( 0) :   205.232107 a.u.  5584.650 eV
 604( 0) :   205.236037 a.u.  5584.756 eV
-------
TIMINGS
-------

Total SCF time: 0 days 0 hours 10 min 45 sec 

Total time                  ....     645.876 sec
Sum of individual times     ....     611.749 sec  ( 94.7%)

Fock matrix formation       ....     601.435 sec  ( 93.1%)
  Split-RI-J                ....     214.290 sec  ( 35.6% of F)
  XC integration            ....     380.048 sec  ( 63.2% of F)
    Basis function eval.    ....      45.212 sec  ( 11.9% of XC)
    Density eval.           ....     147.829 sec  ( 38.9% of XC)
    XC-Functional eval.     ....       6.471 sec  (  1.7% of XC)
    XC-Potential eval.      ....     144.238 sec  ( 38.0% of XC)
Diagonalization             ....       3.066 sec  (  0.5%)
Density matrix formation    ....       0.652 sec  (  0.1%)
Population analysis         ....       0.793 sec  (  0.1%)
Initial guess               ....       0.198 sec  (  0.0%)
Orbital Transformation      ....       1.556 sec  (  0.2%)
Orbital Orthonormalization  ....       0.165 sec  (  0.0%)
DIIS solution               ....       1.103 sec  (  0.2%)
Grid generation             ....       2.944 sec  (  0.5%)

Maximum memory used throughout the entire SCF-calculation: 620.1 MB

-------------------------   --------------------
FINAL SINGLE POINT ENERGY     -3165.054154882109
-------------------------   --------------------

                                *** OPTIMIZATION RUN DONE ***

                            ***************************************
                            *     ORCA property calculations      *
                            ***************************************

                                    ---------------------
                                    Active property flags
                                    ---------------------
   (+) Dipole Moment


------------------------------------------------------------------------------
                       ORCA ELECTRIC PROPERTIES CALCULATION
------------------------------------------------------------------------------

Dipole Moment Calculation                       ... on
Quadrupole Moment Calculation                   ... off
Polarizability Calculation                      ... off
GBWName                                         ... pbe.gbw
Electron density                                ... pbe.scfp
The origin for moment calculation is the CENTER OF MASS  = (13.419098, 14.002436 14.282086)

-------------
DIPOLE MOMENT
-------------
                                X             Y             Z
Electronic contribution:     16.43305      -3.19726     -13.91858
Nuclear contribution   :    -16.64912       3.24151      14.10135
                        -----------------------------------------
Total Dipole Moment    :     -0.21607       0.04425       0.18277
                        -----------------------------------------
Magnitude (a.u.)       :      0.28644
Magnitude (Debye)      :      0.72808



--------------------
Rotational spectrum 
--------------------
 
Rotational constants in cm-1:     0.001148     0.001111     0.000935 
Rotational constants in MHz :    34.407841    33.315310    28.031694 

 Dipole components along the rotational axes: 
x,y,z [a.u.] :     0.286418    -0.003325     0.002022 
x,y,z [Debye]:     0.728017    -0.008453     0.005138 

 

Timings for individual modules:

Sum of individual times         ...    21180.585 sec (= 353.010 min)
GTO integral calculation        ...      274.713 sec (=   4.579 min)   1.3 %
SCF iterations                  ...    18717.982 sec (= 311.966 min)  88.4 %
SCF Gradient evaluation         ...     2151.840 sec (=  35.864 min)  10.2 %
Geometry relaxation             ...       36.051 sec (=   0.601 min)   0.2 %
                             ****ORCA TERMINATED NORMALLY****
TOTAL RUN TIME: 0 days 5 hours 53 minutes 6 seconds 675 msec
