
                                 *****************
                                 * O   R   C   A *
                                 *****************

                                            #,                                       
                                            ###                                      
                                            ####                                     
                                            #####                                    
                                            ######                                   
                                           ########,                                 
                                     ,,################,,,,,                         
                               ,,#################################,,                 
                          ,,##########################################,,             
                       ,#########################################, ''#####,          
                    ,#############################################,,   '####,        
                  ,##################################################,,,,####,       
                ,###########''''           ''''###############################       
              ,#####''   ,,,,##########,,,,          '''####'''          '####       
            ,##' ,,,,###########################,,,                        '##       
           ' ,,###''''                  '''############,,,                           
         ,,##''                                '''############,,,,        ,,,,,,###''
      ,#''                                            '''#######################'''  
     '                                                          ''''####''''         
             ,#######,   #######,   ,#######,      ##                                
            ,#'     '#,  ##    ##  ,#'     '#,    #''#        ######   ,####,        
            ##       ##  ##   ,#'  ##            #'  '#       #        #'  '#        
            ##       ##  #######   ##           ,######,      #####,   #    #        
            '#,     ,#'  ##    ##  '#,     ,#' ,#      #,         ##   #,  ,#        
             '#######'   ##     ##  '#######'  #'      '#     #####' # '####'        



                  #######################################################
                  #                        -***-                        #
                  #          Department of theory and spectroscopy      #
                  #    Directorship and core code : Frank Neese         #
                  #        Max Planck Institute fuer Kohlenforschung    #
                  #                Kaiser Wilhelm Platz 1               #
                  #                 D-45470 Muelheim/Ruhr               #
                  #                      Germany                        #
                  #                                                     #
                  #                  All rights reserved                #
                  #                        -***-                        #
                  #######################################################


                         Program Version 5.0.3 -  RELEASE  -


 With contributions from (in alphabetic order):
   Daniel Aravena         : Magnetic Suceptibility
   Michael Atanasov       : Ab Initio Ligand Field Theory (pilot matlab implementation)
   Alexander A. Auer      : GIAO ZORA, VPT2 properties, NMR spectrum
   Ute Becker             : Parallelization
   Giovanni Bistoni       : ED, misc. LED, open-shell LED, HFLD
   Martin Brehm           : Molecular dynamics
   Dmytro Bykov           : SCF Hessian
   Vijay G. Chilkuri      : MRCI spin determinant printing, contributions to CSF-ICE
   Dipayan Datta          : RHF DLPNO-CCSD density
   Achintya Kumar Dutta   : EOM-CC, STEOM-CC
   Dmitry Ganyushin       : Spin-Orbit,Spin-Spin,Magnetic field MRCI
   Miquel Garcia          : C-PCM and meta-GGA Hessian, CC/C-PCM, Gaussian charge scheme
   Yang Guo               : DLPNO-NEVPT2, F12-NEVPT2, CIM, IAO-localization
   Andreas Hansen         : Spin unrestricted coupled pair/coupled cluster methods
   Benjamin Helmich-Paris : MC-RPA, TRAH-SCF, COSX integrals
   Lee Huntington         : MR-EOM, pCC
   Robert Izsak           : Overlap fitted RIJCOSX, COSX-SCS-MP3, EOM
   Marcus Kettner         : VPT2
   Christian Kollmar      : KDIIS, OOCD, Brueckner-CCSD(T), CCSD density, CASPT2, CASPT2-K
   Simone Kossmann        : Meta GGA functionals, TD-DFT gradient, OOMP2, MP2 Hessian
   Martin Krupicka        : Initial AUTO-CI
   Lucas Lang             : DCDCAS
   Marvin Lechner         : AUTO-CI (C++ implementation), FIC-MRCC
   Dagmar Lenk            : GEPOL surface, SMD
   Dimitrios Liakos       : Extrapolation schemes; Compound Job, initial MDCI parallelization
   Dimitrios Manganas     : Further ROCIS development; embedding schemes
   Dimitrios Pantazis     : SARC Basis sets
   Anastasios Papadopoulos: AUTO-CI, single reference methods and gradients
   Taras Petrenko         : DFT Hessian,TD-DFT gradient, ASA, ECA, R-Raman, ABS, FL, XAS/XES, NRVS
   Peter Pinski           : DLPNO-MP2, DLPNO-MP2 Gradient
   Christoph Reimann      : Effective Core Potentials
   Marius Retegan         : Local ZFS, SOC
   Christoph Riplinger    : Optimizer, TS searches, QM/MM, DLPNO-CCSD(T), (RO)-DLPNO pert. Triples
   Tobias Risthaus        : Range-separated hybrids, TD-DFT gradient, RPA, STAB
   Michael Roemelt        : Original ROCIS implementation
   Masaaki Saitow         : Open-shell DLPNO-CCSD energy and density
   Barbara Sandhoefer     : DKH picture change effects
   Avijit Sen             : IP-ROCIS
   Kantharuban Sivalingam : CASSCF convergence, NEVPT2, FIC-MRCI
   Bernardo de Souza      : ESD, SOC TD-DFT
   Georgi Stoychev        : AutoAux, RI-MP2 NMR, DLPNO-MP2 response
   Willem Van den Heuvel  : Paramagnetic NMR
   Boris Wezisla          : Elementary symmetry handling
   Frank Wennmohs         : Technical directorship


 We gratefully acknowledge several colleagues who have allowed us to
 interface, adapt or use parts of their codes:
   Stefan Grimme, W. Hujo, H. Kruse, P. Pracht,  : VdW corrections, initial TS optimization,
                  C. Bannwarth, S. Ehlert          DFT functionals, gCP, sTDA/sTD-DF
   Ed Valeev, F. Pavosevic, A. Kumar             : LibInt (2-el integral package), F12 methods
   Garnet Chan, S. Sharma, J. Yang, R. Olivares  : DMRG
   Ulf Ekstrom                                   : XCFun DFT Library
   Mihaly Kallay                                 : mrcc  (arbitrary order and MRCC methods)
   Jiri Pittner, Ondrej Demel                    : Mk-CCSD
   Frank Weinhold                                : gennbo (NPA and NBO analysis)
   Christopher J. Cramer and Donald G. Truhlar   : smd solvation model
   Lars Goerigk                                  : TD-DFT with DH, B97 family of functionals
   V. Asgeirsson, H. Jonsson                     : NEB implementation
   FAccTs GmbH                                   : IRC, NEB, NEB-TS, DLPNO-Multilevel, CI-OPT
                                                   MM, QMMM, 2- and 3-layer-ONIOM, Crystal-QMMM,
                                                   LR-CPCM, SF, NACMEs, symmetry and pop. for TD-DFT,
                                                   nearIR, NL-DFT gradient (VV10), updates on ESD,
                                                   ML-optimized integration grids
   S Lehtola, MJT Oliveira, MAL Marques          : LibXC Library
   Liviu Ungur et al                             : ANISO software


 Your calculation uses the libint2 library for the computation of 2-el integrals
 For citations please refer to: http://libint.valeyev.net

 Your ORCA version has been built with support for libXC version: 5.1.0
 For citations please refer to: https://tddft.org/programs/libxc/

 This ORCA versions uses:
   CBLAS   interface :  Fast vector & matrix operations
   LAPACKE interface :  Fast linear algebra routines
   SCALAPACK package :  Parallel linear algebra routines
   Shared memory     :  Shared parallel matrices
   BLAS/LAPACK       :  OpenBLAS 0.3.15  USE64BITINT DYNAMIC_ARCH NO_AFFINITY Haswell SINGLE_THREADED
        Core in use  :  Haswell
   Copyright (c) 2011-2014, The OpenBLAS Project




***************************************
The coordinates will be read from file: pbe.xyz
***************************************


================================================================================

cite the ECPs for Au [Def2-ECP] as follows:
Ce-Yb(ecp-28): M. Dolg, H. Stoll, H.Preuss, J. Chem. Phys., 1989, 90, 1730-1734.
Y-Cd(ecp-28), Hf-Hg(ecp-46): D. Andrae,U. Haeussermann, M. Dolg, H. Stoll, H. Preuss, Theor. Chim. Acta, 1990, 77, 123-141.
In-Sb(ecp-28), Tl-Bi(ecp-46): B. Metz, H. Stoll, M. Dolg, J. Chem. Phys., 2000, 113, 2563-2569.
Te-Xe(ecp-28), Po-Rn(ecp-46): K. A. Peterson, D. Figgen, E. Goll, H. Stoll, M. Dolg, J. Chem. Phys., 2003, 119, 11113-11123.
Rb(ecp-28), Cs(ecp-46): T. Leininger, A. Nicklass, W. Kuechle, H. Stoll, M. Dolg, A. Bergner, Chem. Phys. Lett., 1996, 255, 274-280.
Sr(ecp-28), Ba(ecp-46): M. Kaupp, P. V. Schleyer, H. Stoll and H. Preuss, J. Chem. Phys., 1991, 94, 1360-1366.
La(ecp-46): M. Dolg, H. Stoll, A. Savin, H. Preuss, Theor. Chim. Acta, 1989, 75, 173-194.
Lu(ecp-28): X. Cao, M. Dolg, J. Chem. Phys., 2001, 115, 7348-7355.

ECP parameters for Au [Def2-ECP] have been obtained from:
TURBOMOLE (7.0.2)

----- Orbital basis set information -----
Your calculation utilizes the basis: def2-TZVP
   F. Weigend and R. Ahlrichs, Phys. Chem. Chem. Phys. 7, 3297 (2005).

----- AuxJ basis set information -----
Your calculation utilizes the auxiliary basis: def2/J
   F. Weigend, Phys. Chem. Chem. Phys. 8, 1057 (2006).

================================================================================
                                        WARNINGS
                       Please study these warnings very carefully!
================================================================================

Using LibXC functional ID 497 : Re-regularized SCAN exchange by Furness et al
[ 1]  J. W. Furness, A. D. Kaplan, J. Ning, J. P. Perdew, and J. Sun, J. Phys. Chem. Lett. 11, 8208 (2020)
[ 2]  J. W. Furness, A. D. Kaplan, J. Ning, J. P. Perdew, and J. Sun, J. Phys. Chem. Lett. 11, 9248 (2020)
Using LibXC functional ID 498 : Re-regularized SCAN correlation by Furness et al
[ 1]  J. W. Furness, A. D. Kaplan, J. Ning, J. P. Perdew, and J. Sun, J. Phys. Chem. Lett. 11, 8208 (2020)
[ 2]  J. W. Furness, A. D. Kaplan, J. Ning, J. P. Perdew, and J. Sun, J. Phys. Chem. Lett. 11, 9248 (2020)
Using LibXC functional ID 497 : Re-regularized SCAN exchange by Furness et al
[ 1]  J. W. Furness, A. D. Kaplan, J. Ning, J. P. Perdew, and J. Sun, J. Phys. Chem. Lett. 11, 8208 (2020)
[ 2]  J. W. Furness, A. D. Kaplan, J. Ning, J. P. Perdew, and J. Sun, J. Phys. Chem. Lett. 11, 9248 (2020)
Using LibXC functional ID 498 : Re-regularized SCAN correlation by Furness et al
[ 1]  J. W. Furness, A. D. Kaplan, J. Ning, J. P. Perdew, and J. Sun, J. Phys. Chem. Lett. 11, 8208 (2020)
[ 2]  J. W. Furness, A. D. Kaplan, J. Ning, J. P. Perdew, and J. Sun, J. Phys. Chem. Lett. 11, 9248 (2020)

WARNING: your system is open-shell and RHF/RKS was chosen
  ===> : WILL SWITCH to UHF/UKS


INFO   : the flag for use of the SHARK integral package has been found!



***************************************
The coordinates will be read from file: pbe.xyz
***************************************


================================================================================

cite the ECPs for Au [Def2-ECP] as follows:
Ce-Yb(ecp-28): M. Dolg, H. Stoll, H.Preuss, J. Chem. Phys., 1989, 90, 1730-1734.
Y-Cd(ecp-28), Hf-Hg(ecp-46): D. Andrae,U. Haeussermann, M. Dolg, H. Stoll, H. Preuss, Theor. Chim. Acta, 1990, 77, 123-141.
In-Sb(ecp-28), Tl-Bi(ecp-46): B. Metz, H. Stoll, M. Dolg, J. Chem. Phys., 2000, 113, 2563-2569.
Te-Xe(ecp-28), Po-Rn(ecp-46): K. A. Peterson, D. Figgen, E. Goll, H. Stoll, M. Dolg, J. Chem. Phys., 2003, 119, 11113-11123.
Rb(ecp-28), Cs(ecp-46): T. Leininger, A. Nicklass, W. Kuechle, H. Stoll, M. Dolg, A. Bergner, Chem. Phys. Lett., 1996, 255, 274-280.
Sr(ecp-28), Ba(ecp-46): M. Kaupp, P. V. Schleyer, H. Stoll and H. Preuss, J. Chem. Phys., 1991, 94, 1360-1366.
La(ecp-46): M. Dolg, H. Stoll, A. Savin, H. Preuss, Theor. Chim. Acta, 1989, 75, 173-194.
Lu(ecp-28): X. Cao, M. Dolg, J. Chem. Phys., 2001, 115, 7348-7355.

ECP parameters for Au [Def2-ECP] have been obtained from:
TURBOMOLE (7.0.2)

----- Orbital basis set information -----
Your calculation utilizes the basis: def2-TZVP
   F. Weigend and R. Ahlrichs, Phys. Chem. Chem. Phys. 7, 3297 (2005).

----- AuxJ basis set information -----
Your calculation utilizes the auxiliary basis: def2/J
   F. Weigend, Phys. Chem. Chem. Phys. 8, 1057 (2006).

================================================================================
                                        WARNINGS
                       Please study these warnings very carefully!
================================================================================

Using LibXC functional ID 497 : Re-regularized SCAN exchange by Furness et al
[ 1]  J. W. Furness, A. D. Kaplan, J. Ning, J. P. Perdew, and J. Sun, J. Phys. Chem. Lett. 11, 8208 (2020)
[ 2]  J. W. Furness, A. D. Kaplan, J. Ning, J. P. Perdew, and J. Sun, J. Phys. Chem. Lett. 11, 9248 (2020)
Using LibXC functional ID 498 : Re-regularized SCAN correlation by Furness et al
[ 1]  J. W. Furness, A. D. Kaplan, J. Ning, J. P. Perdew, and J. Sun, J. Phys. Chem. Lett. 11, 8208 (2020)
[ 2]  J. W. Furness, A. D. Kaplan, J. Ning, J. P. Perdew, and J. Sun, J. Phys. Chem. Lett. 11, 9248 (2020)
Using LibXC functional ID 497 : Re-regularized SCAN exchange by Furness et al
[ 1]  J. W. Furness, A. D. Kaplan, J. Ning, J. P. Perdew, and J. Sun, J. Phys. Chem. Lett. 11, 8208 (2020)
[ 2]  J. W. Furness, A. D. Kaplan, J. Ning, J. P. Perdew, and J. Sun, J. Phys. Chem. Lett. 11, 9248 (2020)
Using LibXC functional ID 498 : Re-regularized SCAN correlation by Furness et al
[ 1]  J. W. Furness, A. D. Kaplan, J. Ning, J. P. Perdew, and J. Sun, J. Phys. Chem. Lett. 11, 8208 (2020)
[ 2]  J. W. Furness, A. D. Kaplan, J. Ning, J. P. Perdew, and J. Sun, J. Phys. Chem. Lett. 11, 9248 (2020)

INFO   : the flag for use of the SHARK integral package has been found!

================================================================================
                                       INPUT FILE
================================================================================
NAME = scan.inp
|  1> !R2SCAN def2-TZVP VERYSLOWCONV
|  2> !KDIIS
|  3> %scf
|  4>   AutoTRAHIter 200
|  5>   maxiter 400
|  6> end
|  7> 
|  8> %pal nprocs 6 end 
|  9> 
| 10> *xyzfile 0 5 pbe.xyz
| 11> 
| 12> $new_job
| 13> 
| 14> !R2SCAN def2-TZVP VERYSLOWCONV
| 15> !KDIIS
| 16> %scf
| 17>   AutoTRAHIter 200
| 18>   maxiter 400
| 19> end
| 20> 
| 21> 
| 22> %pal nprocs 6 end 
| 23> 
| 24> *xyzfile 0 3 pbe.xyz
| 25> 
| 26> 
| 27> 
| 28> 
| 29> 
| 30>                          ****END OF INPUT****
================================================================================


                 $$$$$$$$$$$$$$$$$$$$$$$$$$$$$$$$$$$$$$$$$$$$$$ 
                 $ THERE ARE  2 JOBS TO BE PROCESSED THIS RUN $
                 $$$$$$$$$$$$$$$$$$$$$$$$$$$$$$$$$$$$$$$$$$$$$$ 




                 $$$$$$$$$$$$$$$$  JOB NUMBER  1 $$$$$$$$$$$$$$


                       ****************************
                       * Single Point Calculation *
                       ****************************

---------------------------------
CARTESIAN COORDINATES (ANGSTROEM)
---------------------------------
  Au     6.526965    6.891918    6.395766
  Au     8.548713    9.320054    7.230632
  Au    11.109181    4.874686    7.025001
  Au    10.362362    7.454501    6.617299
  Au     8.318612    4.913463    6.545557
  Au    10.461058    6.004981    9.538437
  Au     9.418373    3.496036    8.737846
  Au     5.730061    9.238759    7.502775
  Au     6.215891    7.407533    9.608422
  Au     7.281659   10.031829    9.660405
  Au     7.350668    4.988010    9.666505
  Au     9.285959    8.297974   10.252400
  Cr     8.383698    6.910689    8.232537

----------------------------
CARTESIAN COORDINATES (A.U.)
----------------------------
  NO LB      ZA    FRAG     MASS         X           Y           Z
   0 Au   19.0000*   0   196.966   12.334177   13.023838   12.086246
   1 Au   19.0000*   0   196.966   16.154727   17.612349   13.663914
   2 Au   19.0000*   0   196.966   20.993310    9.211822   13.275328
   3 Au   19.0000*   0   196.966   19.582027   14.086966   12.504883
   4 Au   19.0000*   0   196.966   15.719899    9.285099   12.369311
   5 Au   19.0000*   0   196.966   19.768534   11.347770   18.025033
   6 Au   19.0000*   0   196.966   17.798145    6.606550   16.512137
   7 Au   19.0000*   0   196.966   10.828247   17.458725   14.178190
   8 Au   19.0000*   0   196.966   11.746332   13.998208   18.157285
   9 Au   19.0000*   0   196.966   13.760341   18.957410   18.255519
  10 Au   19.0000*   0   196.966   13.890750    9.425974   18.267048
  11 Au   19.0000*   0   196.966   17.547920   15.680899   19.374229
  12 Cr   24.0000    0    52.000   15.842893   13.059310   15.557241
* core charge reduced due to ECP

--------------------------------
INTERNAL COORDINATES (ANGSTROEM)
--------------------------------
 Au     0   0   0     0.000000000000     0.00000000     0.00000000
 Au     1   0   0     3.268074437547     0.00000000     0.00000000
 Au     1   2   0     5.045975045155    72.74583126     0.00000000
 Au     2   1   3     2.673160268847    80.94355621    14.46902728
 Au     1   2   3     2.673335429336    96.94656352     2.15913814
 Au     3   1   2     2.831075701072    75.12039316    60.25150653
 Au     3   1   2     2.773688574619    73.86794746   123.49236544
 Au     1   2   3     2.714440818018    55.60238564   157.67505893
 Au     8   1   2     2.832519699079    72.17350506   269.16973119
 Au     8   1   2     2.773406016158   113.59440104   314.62598520
 Au     9   8   1     2.673047032411   132.38824917    10.22542515
 Au     6   3   1     2.673652492394   132.85125341   318.91234662
 Cr    12   6   3     2.611222378900    59.31391812    41.43393379

---------------------------
INTERNAL COORDINATES (A.U.)
---------------------------
 Au     0   0   0     0.000000000000     0.00000000     0.00000000
 Au     1   0   0     6.175765672232     0.00000000     0.00000000
 Au     1   2   0     9.535510913943    72.74583126     0.00000000
 Au     2   1   3     5.051540820199    80.94355621    14.46902728
 Au     1   2   3     5.051871825553    96.94656352     2.15913814
 Au     3   1   2     5.349957739425    75.12039316    60.25150653
 Au     3   1   2     5.241511786817    73.86794746   123.49236544
 Au     1   2   3     5.129549752792    55.60238564   157.67505893
 Au     8   1   2     5.352686500196    72.17350506   269.16973119
 Au     8   1   2     5.240977828708   113.59440104   314.62598520
 Au     9   8   1     5.051326834347   132.38824917    10.22542515
 Au     6   3   1     5.052470987900   132.85125341   318.91234662
 Cr    12   6   3     4.934495170887    59.31391812    41.43393379

---------------------
BASIS SET INFORMATION
---------------------
There are 2 groups of distinct atoms

 Group   1 Type Au  : 8s7p6d1f contracted to 6s4p3d1f pattern {311111/4111/411/1}
 Group   2 Type Cr  : 17s11p7d1f contracted to 6s4p4d1f pattern {842111/6311/4111/1}

Atom   0Au   basis set group =>   1
Atom   1Au   basis set group =>   1
Atom   2Au   basis set group =>   1
Atom   3Au   basis set group =>   1
Atom   4Au   basis set group =>   1
Atom   5Au   basis set group =>   1
Atom   6Au   basis set group =>   1
Atom   7Au   basis set group =>   1
Atom   8Au   basis set group =>   1
Atom   9Au   basis set group =>   1
Atom  10Au   basis set group =>   1
Atom  11Au   basis set group =>   1
Atom  12Cr   basis set group =>   2
---------------------------------
AUXILIARY/J BASIS SET INFORMATION
---------------------------------
There are 2 groups of distinct atoms

 Group   1 Type Au  : 11s5p5d3f3g contracted to 8s5p5d2f3g pattern {41111111/11111/11111/21/111}
 Group   2 Type Cr  : 19s5p5d3f3g contracted to 8s5p5d2f3g pattern {121111111/11111/11111/21/111}

Atom   0Au   basis set group =>   1
Atom   1Au   basis set group =>   1
Atom   2Au   basis set group =>   1
Atom   3Au   basis set group =>   1
Atom   4Au   basis set group =>   1
Atom   5Au   basis set group =>   1
Atom   6Au   basis set group =>   1
Atom   7Au   basis set group =>   1
Atom   8Au   basis set group =>   1
Atom   9Au   basis set group =>   1
Atom  10Au   basis set group =>   1
Atom  11Au   basis set group =>   1
Atom  12Cr   basis set group =>   2
-------------------------
ECP PARAMETER INFORMATION
-------------------------

 Group 1, Type Au ECP Def2-ECP (replacing 60 core electrons, lmax=3)

Atom   0Au   ECP group =>   1
Atom   1Au   ECP group =>   1
Atom   2Au   ECP group =>   1
Atom   3Au   ECP group =>   1
Atom   4Au   ECP group =>   1
Atom   5Au   ECP group =>   1
Atom   6Au   ECP group =>   1
Atom   7Au   ECP group =>   1
Atom   8Au   ECP group =>   1
Atom   9Au   ECP group =>   1
Atom  10Au   ECP group =>   1
Atom  11Au   ECP group =>   1



           ************************************************************
           *        Program running with 6 parallel MPI-processes     *
           *              working on a common directory               *
           ************************************************************
------------------------------------------------------------------------------
                           ORCA GTO INTEGRAL CALCULATION
                           -- RI-GTO INTEGRALS CHOSEN --
------------------------------------------------------------------------------
------------------------------------------------------------------------------
                   ___                                                        
                  /   \      - P O W E R E D   B Y -                         
                 /     \                                                     
                 |  |  |   _    _      __       _____    __    __             
                 |  |  |  | |  | |    /  \     |  _  \  |  |  /  |          
                  \  \/   | |  | |   /    \    | | | |  |  | /  /          
                 / \  \   | |__| |  /  /\  \   | |_| |  |  |/  /          
                |  |  |   |  __  | /  /__\  \  |    /   |      \           
                |  |  |   | |  | | |   __   |  |    \   |  |\   \          
                \     /   | |  | | |  |  |  |  | |\  \  |  | \   \       
                 \___/    |_|  |_| |__|  |__|  |_| \__\ |__|  \__/        
                                                                              
                      - O R C A' S   B I G   F R I E N D -                    
                                      &                                       
                       - I N T E G R A L  F E E D E R -                       
                                                                              
 v1 FN, 2020, v2 2021                                                         
------------------------------------------------------------------------------


Reading SHARK input file scan.SHARKINP.tmp ... ok
----------------------
SHARK INTEGRAL PACKAGE
----------------------

Number of atoms                             ...     13
Number of basis functions                   ...    525
Number of shells                            ...    183
Maximum angular momentum                    ...      3
Integral batch strategy                     ... SHARK/LIBINT Hybrid
RI-J (if used) integral strategy            ... SPLIT-RIJ (Revised 2003 algorithm where possible)
Printlevel                                  ...      1
Contraction scheme used                     ... SEGMENTED contraction
Coulomb Range Separation                    ... NOT USED
Exchange Range Separation                   ... NOT USED
Finite Nucleus Model                        ... NOT USED
Auxiliary Coulomb fitting basis             ... AVAILABLE
   # of basis functions in Aux-J            ...   1157
   # of shells in Aux-J                     ...    299
   Maximum angular momentum in Aux-J        ...      4
Auxiliary J/K fitting basis                 ... NOT available
Auxiliary Correlation fitting basis         ... NOT available
Auxiliary 'external' fitting basis          ... NOT available
Integral threshold                          ...     1.000000e-10
Primitive cut-off                           ...     1.000000e-11
Primitive pair pre-selection threshold      ...     1.000000e-11

Calculating pre-screening integrals         ... done (  0.2 sec) Dimension = 183
Organizing shell pair data                  ... done (  0.4 sec)
Shell pair information
Total number of shell pairs                 ...     16836
Shell pairs after pre-screening             ...     13543
Total number of primitive shell pairs       ...     45389
Primitive shell pairs kept                  ...     26622
          la=0 lb=0:   2131 shell pairs
          la=1 lb=0:   3100 shell pairs
          la=1 lb=1:   1176 shell pairs
          la=2 lb=0:   2656 shell pairs
          la=2 lb=1:   1898 shell pairs
          la=2 lb=2:    780 shell pairs
          la=3 lb=0:    722 shell pairs
          la=3 lb=1:    537 shell pairs
          la=3 lb=2:    460 shell pairs
          la=3 lb=3:     83 shell pairs

Calculating one electron integrals          ... done (  0.1 sec)
Calculating ECP integrals                   ... done ( 11.9 sec)
Calculating RI/J V-Matrix + Cholesky decomp.... done (  1.2 sec)
Calculating Nuclear repulsion               ... done (  0.0 sec) ENN=   4267.086740861063 Eh

SHARK setup successfully completed in  14.6 seconds

Maximum memory used throughout the entire GTOINT-calculation: 30.6 MB


           ************************************************************
           *        Program running with 6 parallel MPI-processes     *
           *              working on a common directory               *
           ************************************************************
-------------------------------------------------------------------------------
                                 ORCA SCF
-------------------------------------------------------------------------------

------------
SCF SETTINGS
------------
Hamiltonian:
 Density Functional     Method          .... DFT(GTOs)
  Functional kind                       .... Exchange
  Functional name                       .... Re-regularized SCAN exchange by Furness et al
  Functional family                     .... MGGA
  Functional refs                              
    [ 0] J. W. Furness, A. D. Kaplan, J. Ning, J. P. Perdew, and J. Sun, J. Phys. Chem. Lett. 11, 8208 (2020)
    [ 1] J. W. Furness, A. D. Kaplan, J. Ning, J. P. Perdew, and J. Sun, J. Phys. Chem. Lett. 11, 9248 (2020)
  Functional external parameters         .... 8
 Parameter  0 :         c1 parameter
 Parameter  1 :         c2 parameter
 Parameter  2 :          d parameter
 Parameter  3 :         k1 parameter
 Parameter  4 :       taur parameter
 Parameter  5 :     alphar parameter
 Parameter  6 :        eta parameter
 Parameter  7 :        dp2 parameter
  Functional kind                       .... Correlation
  Functional name                       .... Re-regularized SCAN correlation by Furness et al
  Functional family                     .... MGGA
  Functional refs                              
    [ 0] J. W. Furness, A. D. Kaplan, J. Ning, J. P. Perdew, and J. Sun, J. Phys. Chem. Lett. 11, 8208 (2020)
    [ 1] J. W. Furness, A. D. Kaplan, J. Ning, J. P. Perdew, and J. Sun, J. Phys. Chem. Lett. 11, 9248 (2020)
  Functional external parameters         .... 0
 Gradients option       PostSCFGGA      .... off
   Density functional embedding theory  .... OFF
   NL short-range parameter             .... 12.300000
 RI-approximation to the Coulomb term is turned on
   Number of AuxJ basis functions       .... 1157


General Settings:
 Integral files         IntName         .... scan
 Hartree-Fock type      HFTyp           .... UHF
 Total Charge           Charge          ....    0
 Multiplicity           Mult            ....    5
 Number of Electrons    NEL             ....  252
 Basis Dimension        Dim             ....  525
 Nuclear Repulsion      ENuc            ....   4267.0867408611 Eh

Convergence Acceleration:
 DIIS                   CNVDIIS         .... off
 Trust-Rad. Augm. Hess. CNVTRAH         .... auto
   Auto Start mean grad. ratio tolernc. ....  1.125000
   Auto Start start iteration           ....   200
   Auto Start num. interpolation iter.  ....    10
   Max. Number of Micro iterations      ....    16
   Max. Number of Macro iterations      .... Maxiter - #DIIS iter
   Number of Davidson start vectors     ....     2
   Converg. threshold I  (grad. norm)   ....   5.000e-05
   Converg. threshold II (energy diff.) ....   1.000e-06
   Grad. Scal. Fac. for Micro threshold ....   0.100
   Minimum threshold for Micro iter.    ....   0.010
   NR start threshold (gradient norm)   ....   0.001
   Initial trust radius                 ....   0.400
   Minimum AH scaling param. (alpha)    ....   1.000
   Maximum AH scaling param. (alpha)    .... 1000.000
   Orbital update algorithm             .... Taylor
   White noise on init. David. guess    .... on
   Maximum white noise                  ....   0.010
   Quad. conv. algorithm                .... NR
 SOSCF                  CNVSOSCF        .... off
 Level Shifting         CNVShift        .... off
 Zerner damping         CNVZerner       .... off
 Static damping         CNVDamp         .... off
 Fernandez-Rico         CNVRico         .... off

SCF Procedure:
 Maximum # iterations   MaxIter         ....   400
 SCF integral mode      SCFMode         .... Direct
   Integral package                     .... SHARK and LIBINT hybrid scheme
 Reset frequency        DirectResetFreq ....    20
 Integral Threshold     Thresh          ....  1.000e-10 Eh
 Primitive CutOff       TCut            ....  1.000e-11 Eh

Convergence Tolerance:
 Convergence Check Mode ConvCheckMode   .... All-Criteria
 Convergence forced     ConvForced      .... 0
 Energy Change          TolE            ....  1.000e-06 Eh
 Max Density Change     TolMaxP         ....  1.000e-05
 RMS Density Change     TolRMSP         ....  1.000e-06


Diagonalization of the overlap matrix:
Smallest eigenvalue                        ... 1.391e-04
Time for diagonalization                   ...    0.096 sec
Threshold for overlap eigenvalues          ... 1.000e-08
Number of eigenvalues below threshold      ... 0
Time for construction of square roots      ...    0.297 sec
Total time needed                          ...    0.697 sec

Time for model grid setup =    1.027 sec

------------------------------
INITIAL GUESS: MODEL POTENTIAL
------------------------------
Loading Hartree-Fock densities                     ... done
  calling /media/Programs/ORCA501/orca scan_atom79.inp > scan_atom79.out in order to generate an atomic fitting density for atom 0 (Au with ECP) on-the-fly... 
    atom 0 (Au), assumed electronic state with S=2: 1s2 2s2 2p6 3s2 3p6 4s2 3d10 4p6 5s2 4d10 5p6 6s1 4f14 5d10           ... done
Calculating cut-offs                               ... done
Initializing the effective Hamiltonian             ... done
Setting up the integral package (SHARK)            ... done
Starting the Coulomb interaction                   ... done (   1.1 sec)
Reading the grid                                   ... done
Mapping shells                                     ... done
Starting the XC term evaluation                    ... done (   0.7 sec)
  promolecular density results
     # of electrons  =    972.013498005
     EX              =  -4437.084965074
     EC              =    -59.135338413
     EX+EC           =  -4496.220303487
Transforming the Hamiltonian                       ... done (   0.4 sec)
Diagonalizing the Hamiltonian                      ... done (   0.3 sec)
Back transforming the eigenvectors                 ... done (   0.0 sec)
Now organizing SCF variables                       ... done
                      ------------------
                      INITIAL GUESS DONE (   4.5 sec)
                      ------------------
-------------------
DFT GRID GENERATION
-------------------

General Integration Accuracy     IntAcc      ... 4.388
Radial Grid Type                 RadialGrid  ... OptM3 with GC (2021)
Angular Grid (max. ang.)         AngularGrid ... 4 (Lebedev-302)
Angular grid pruning method      GridPruning ... 4 (adaptive)
Weight generation scheme         WeightScheme... Becke
Basis function cutoff            BFCut       ... 1.0000e-10
Integration weight cutoff        WCut        ... 1.0000e-14
Angular grids for H and He will be reduced by one unit
Partially contracted basis set               ... off
Rotationally invariant grid construction     ... off

Total number of grid points                  ...   144747
Total number of batches                      ...     2268
Average number of points per batch           ...       63
Average number of grid points per atom       ...    11134
Time for grid setup =    3.252 sec

--------------
SCF ITERATIONS
--------------
ITER       Energy         Delta-E        Max-DP      RMS-DP      [F,P]   Gradient Norm
               ***  Starting incremental Fock matrix formation  ***
                             ****Resetting KDIIS****
                             ****Turning on KDIIS(Cayley)****
  0  -2672.5204112084   0.000000000000 0.45966229  0.00205399  0.3556806   0.223248267
  1  -2673.5383210931  -1.017909884670 0.73737144  0.00298853  0.3184112   0.174012802
  2  -2674.0726140593  -0.534292966192 0.11413439  0.00149305  0.2519637   0.129560052
  3  -2674.3542486928  -0.281634633473 0.46359045  0.00200652  0.1472388   0.074540292
  4  -2674.4363737258  -0.082125032997 0.21594261  0.00062281  0.0420531   0.018988259
  5  -2674.4653159328  -0.028942206995 0.19249264  0.00054075  0.0163032   0.005834021
  6  -2674.4729968760  -0.007680943215 0.16138144  0.00055382  0.0131022   0.005722987
  7  -2674.4790283398  -0.006031463769 0.03199986  0.00026382  0.0181288   0.005366512
  8  -2674.4824119728  -0.003383633049 0.01669407  0.00013409  0.0102044   0.004945466
  9  -2674.4854234161  -0.003011443259 0.01399500  0.00008579  0.0129621   0.001312082
 10  -2674.4869383473  -0.001514931215 0.01020059  0.00002880  0.0151562   0.001775002
 11  -2674.4874482875  -0.000509940245 0.00580065  0.00001503  0.0153443   0.001664161
 12  -2674.4873398196   0.000108467943 0.02461858  0.00023117  0.0149304   0.001861218
 13  -2674.4825431309   0.004796688723 0.01517066  0.00009192  0.0051927   0.001935227
 14  -2674.4822751556   0.000267975233 0.02103447  0.00006991  0.0033371   0.000870831
 15  -2674.4824994654  -0.000224309774 0.01160734  0.00004442  0.0026642   0.000849799
 16  -2674.4826834785  -0.000184013149 0.01382249  0.00007057  0.0026070   0.000692422
 17  -2674.4830387552  -0.000355276632 0.02430860  0.00007316  0.0024364   0.000786952
 18  -2674.4832615586  -0.000222803410 0.00881704  0.00004698  0.0023644   0.000715503
 19  -2674.4833966462  -0.000135087587 0.00553961  0.00003109  0.0033728   0.000823834
               *** Restarting incremental Fock matrix formation ***
                             ****Resetting KDIIS****
 20  -2674.4833988093  -0.000002163083 0.00044809  0.00000708  0.0021320   0.000587119
 21  -2674.4834253817  -0.000026572480 0.00105424  0.00000597  0.0021268   0.000415404
 22  -2674.4834516888  -0.000026307106 0.00176072  0.00000986  0.0021096   0.000356181
 23  -2674.4834928054  -0.000041116577 0.00301286  0.00001145  0.0020795   0.000284117
 24  -2674.4834807489   0.000012056564 0.00452167  0.00001704  0.0020399   0.000299030
 25  -2674.4834436760   0.000037072904 0.00177163  0.00001184  0.0021215   0.000238307
 26  -2674.4834379291   0.000005746827 0.01323847  0.00003307  0.0020970   0.000260045
 27  -2674.4834684085  -0.000030479394 0.01021052  0.00003057  0.0020235   0.000355803
 28  -2674.4834989822  -0.000030573660 0.00434096  0.00002266  0.0019336   0.000270630
 29  -2674.4835421949  -0.000043212710 0.00340474  0.00001845  0.0019141   0.000312495
 30  -2674.4835846519  -0.000042457014 0.00329444  0.00001328  0.0018097   0.000190793
 31  -2674.4835918497  -0.000007197826 0.00221610  0.00001036  0.0016898   0.000279604
 32  -2674.4836163538  -0.000024504109 0.00780525  0.00002999  0.0017184   0.000178162
 33  -2674.4836777234  -0.000061369553 0.00233212  0.00000739  0.0016023   0.000170465
                          ***Energy convergence achieved***
 34  -2674.4836780886  -0.000000365170 0.00273019  0.00000864  0.0015980   0.000182841
 35  -2674.4836921335  -0.000014044984 0.00647401  0.00002195  0.0015705   0.000161494
 36  -2674.4836559106   0.000036222978 0.00415576  0.00001417  0.0016322   0.000157878
 37  -2674.4836407170   0.000015193523 0.00055178  0.00000409  0.0016657   0.000152955
 38  -2674.4836448262  -0.000004109127 0.00195489  0.00000868  0.0016363   0.000159705
                          ***Energy convergence achieved***
 39  -2674.4836438321   0.000000994073 0.00178649  0.00000920  0.0016575   0.000167291
               *** Restarting incremental Fock matrix formation ***
                             ****Resetting KDIIS****
 40  -2674.4836387532   0.000005078864 0.00053564  0.00000212  0.0016064   0.000167038
 41  -2674.4836427462  -0.000003992997 0.00115328  0.00000388  0.0016150   0.000148354
 42  -2674.4836480415  -0.000005295300 0.00247674  0.00000818  0.0016015   0.000144367
 43  -2674.4836598773  -0.000011835776 0.00355706  0.00001174  0.0015766   0.000142257
 44  -2674.4836768303  -0.000016952994 0.00395245  0.00000920  0.0015416   0.000141710
 45  -2674.4836744653   0.000002365027 0.00271140  0.00001090  0.0015400   0.000150314
 46  -2674.4836662627   0.000008202564 0.04836076  0.00016669  0.0015104   0.000163410
 47  -2674.4838148320  -0.000148569328 0.04375960  0.00012089  0.0010791   0.000233261
 48  -2674.4837535003   0.000061331709 0.03864687  0.00012873  0.0013614   0.000235343
 49  -2674.4838656379  -0.000112137584 0.00302876  0.00001131  0.0010948   0.000134795
 50  -2674.4838608844   0.000004753492 0.00877125  0.00002893  0.0010868   0.000168629
 51  -2674.4838840059  -0.000023121485 0.01161895  0.00003754  0.0011023   0.000142367
 52  -2674.4839125738  -0.000028567858 0.00386152  0.00001303  0.0011636   0.000125707
 53  -2674.4839033658   0.000009207935 0.00117258  0.00000413  0.0011412   0.000125968
 54  -2674.4838995116   0.000003854264 0.00740850  0.00002390  0.0011399   0.000126484
 55  -2674.4839136946  -0.000014182996 0.00519961  0.00001388  0.0011308   0.000182507
 56  -2674.4839193505  -0.000005655941 0.00524888  0.00001252  0.0011988   0.000138104
 57  -2674.4839123401   0.000007010416 0.00193450  0.00000568  0.0011513   0.000131537
 58  -2674.4839158797  -0.000003539615 0.00501400  0.00001821  0.0011575   0.000117864
 59  -2674.4839321145  -0.000016234822 0.00143543  0.00000518  0.0011409   0.000125123
               *** Restarting incremental Fock matrix formation ***
                             ****Resetting KDIIS****
 60  -2674.4839357069  -0.000003592404 0.00055589  0.00000201  0.0011475   0.000117529
 61  -2674.4839375042  -0.000001797225 0.00106963  0.00000387  0.0011472   0.000117360
 62  -2674.4839408081  -0.000003303991 0.00683429  0.00002045  0.0011466   0.000117359
 63  -2674.4839273847   0.000013423462 0.01845366  0.00005881  0.0011361   0.000119886
 64  -2674.4838833329   0.000044051797 0.01078329  0.00002257  0.0011528   0.000116800
 65  -2674.4838811134   0.000002219452 0.00626422  0.00002030  0.0011496   0.000115975
                           ***RMSP convergence achieved***
 66  -2674.4838911310  -0.000010017550 0.00027723  0.00000094  0.0011511   0.000115393
                          ***Energy convergence achieved***
 67  -2674.4838918273  -0.000000696269 0.00087091  0.00000328  0.0011510   0.000115384
 68  -2674.4838895440   0.000002283237 0.00145846  0.00000611  0.0011497   0.000116138
 69  -2674.4838844307   0.000005113353 0.00870422  0.00003142  0.0011659   0.000122133
 70  -2674.4838609604   0.000023470240 0.00286995  0.00000826  0.0011503   0.000114818
 71  -2674.4838633843  -0.000002423911 0.00454262  0.00001626  0.0011524   0.000114554
 72  -2674.4838747214  -0.000011337107 0.00080072  0.00000288  0.0011540   0.000115740
 73  -2674.4838769239  -0.000002202462 0.00052704  0.00000188  0.0011518   0.000114542
 74  -2674.4838756270   0.000001296944 0.00035691  0.00000133  0.0011523   0.000114874
                          ***Energy convergence achieved***
 75  -2674.4838750471   0.000000579875 0.00057838  0.00000176  0.0011476   0.000114826
 76  -2674.4838760671  -0.000001020030 0.00607987  0.00002158  0.0011503   0.000114413
 77  -2674.4838925434  -0.000016476322 0.00113050  0.00000401  0.0011477   0.000114908
 78  -2674.4838894694   0.000003074075 0.00493089  0.00001783  0.0011471   0.000115515
 79  -2674.4838753391   0.000014130228 0.00937370  0.00003344  0.0011514   0.000115864
               *** Restarting incremental Fock matrix formation ***
                             ****Resetting KDIIS****
 80  -2674.4838486434   0.000026695765 0.00057918  0.00000206  0.0011511   0.000113859
 81  -2674.4838501675  -0.000001524101 0.00120765  0.00000429  0.0011517   0.000113793
 82  -2674.4838532889  -0.000003121458 0.00132839  0.00000473  0.0011515   0.000113799
 83  -2674.4838566820  -0.000003393122 0.00458563  0.00001646  0.0011505   0.000113901
 84  -2674.4838436385   0.000013043579 0.00308434  0.00001190  0.0011522   0.000113714
 85  -2674.4838322941   0.000011344408 0.00880915  0.00003419  0.0011526   0.000117127
 86  -2674.4837997966   0.000032497494 0.00149729  0.00000547  0.0011475   0.000116037
 87  -2674.4837944889   0.000005307699 0.01069181  0.00003819  0.0011565   0.000115081
 88  -2674.4838238995  -0.000029410629 0.00178439  0.00000634  0.0011481   0.000114867
 89  -2674.4838198267   0.000004072751 0.00029617  0.00000102  0.0011477   0.000114915
                          ***Energy convergence achieved***
 90  -2674.4838192922   0.000000534556 0.00474916  0.00001581  0.0011482   0.000114256
 91  -2674.4838289842  -0.000009691967 0.00176320  0.00000672  0.0011463   0.000116426
 92  -2674.4838265589   0.000002425232 0.00141117  0.00000425  0.0011423   0.000117504
 93  -2674.4838296273  -0.000003068398 0.00068376  0.00000249  0.0011539   0.000117529
 94  -2674.4838317829  -0.000002155543 0.01310960  0.00004441  0.0011509   0.000115597
 95  -2674.4837967116   0.000035071266 0.00422659  0.00001419  0.0011522   0.000124732
 96  -2674.4837809833   0.000015728339 0.00447202  0.00001216  0.0011492   0.000132038
 97  -2674.4837872276  -0.000006244344 0.00403477  0.00001353  0.0011541   0.000138426
 98  -2674.4837970537  -0.000009826099 0.01357055  0.00004986  0.0011423   0.000131486
 99  -2674.4837498515   0.000047202235 0.01341697  0.00004945  0.0011631   0.000127113
               *** Restarting incremental Fock matrix formation ***
                             ****Resetting KDIIS****
100  -2674.4837949081  -0.000045056652 0.00055334  0.00000192  0.0011413   0.000120336
101  -2674.4837959771  -0.000001069017 0.00117724  0.00000405  0.0011475   0.000113941
102  -2674.4837989466  -0.000002969447 0.00228557  0.00000792  0.0011478   0.000112460
103  -2674.4838048554  -0.000005908825 0.01313128  0.00004395  0.0011492   0.000111829
104  -2674.4837719648   0.000032890566 0.00398378  0.00001376  0.0011524   0.000115262
105  -2674.4837615769   0.000010387989 0.00729380  0.00002128  0.0011498   0.000110758
106  -2674.4837748802  -0.000013303292 0.00163815  0.00000557  0.0011527   0.000111235
107  -2674.4837790187  -0.000004138534 0.00069478  0.00000243  0.0011549   0.000111218
108  -2674.4837810183  -0.000001999570 0.00506355  0.00001740  0.0011533   0.000110682
109  -2674.4837681696   0.000012848686 0.00335783  0.00001176  0.0011511   0.000110748
110  -2674.4837592531   0.000008916426 0.00195945  0.00000657  0.0011509   0.000110496
111  -2674.4837638916  -0.000004638449 0.00357033  0.00001223  0.0011511   0.000110550
112  -2674.4837727256  -0.000008834017 0.00217751  0.00000758  0.0011529   0.000110677
                           ***RMSP convergence achieved***
113  -2674.4837783197  -0.000005594114 0.00025307  0.00000089  0.0011539   0.000110714
                          ***Energy convergence achieved***
114  -2674.4837776647   0.000000654982 0.00101575  0.00000352  0.0011542   0.000110760
115  -2674.4837751399   0.000002524793 0.00075774  0.00000260  0.0011533   0.000110705
116  -2674.4837768923  -0.000001752335 0.00261103  0.00000937  0.0011536   0.000110884
117  -2674.4837841075  -0.000007215242 0.00352173  0.00001229  0.0011509   0.000111761
                           ***RMSP convergence achieved***
118  -2674.4837931524  -0.000009044857 0.00014101  0.00000038  0.0011519   0.000111045
                          ***Energy convergence achieved***
119  -2674.4837928618   0.000000290559 0.00848320  0.00003163  0.0011522   0.000110909
               *** Restarting incremental Fock matrix formation ***
                             ****Resetting KDIIS****
120  -2674.4837723508   0.000020511015 0.00072050  0.00000259  0.0011503   0.000111249
121  -2674.4837736421  -0.000001291316 0.00139674  0.00000511  0.0011518   0.000110780
122  -2674.4837766321  -0.000002989940 0.00261420  0.00000970  0.0011519   0.000110659
123  -2674.4837827604  -0.000006128351 0.00085449  0.00000704  0.0011523   0.000110570
124  -2674.4837808895   0.000001870913 0.01656390  0.00005959  0.0011529   0.000110615
125  -2674.4837373955   0.000043493995 0.00576205  0.00001966  0.0011491   0.000111665
126  -2674.4837501454  -0.000012749942 0.00272276  0.00000622  0.0011587   0.000115266
127  -2674.4837480773   0.000002068129 0.01380757  0.00004830  0.0011513   0.000112795
128  -2674.4837097745   0.000038302796 0.00619306  0.00002190  0.0011508   0.000110812
129  -2674.4836914145   0.000018360010 0.00262360  0.00000871  0.0011512   0.000111101
130  -2674.4836963558  -0.000004941299 0.00514056  0.00001764  0.0011557   0.000110761
131  -2674.4837093747  -0.000013018886 0.00124147  0.00000486  0.0011585   0.000111736
132  -2674.4837053923   0.000003982399 0.00069194  0.00000271  0.0011574   0.000109756
133  -2674.4837077471  -0.000002354781 0.00085873  0.00000322  0.0011566   0.000109963
134  -2674.4837104979  -0.000002750861 0.00443106  0.00001501  0.0011565   0.000109688
135  -2674.4837216110  -0.000011113057 0.00043256  0.00000170  0.0011568   0.000110022
136  -2674.4837201972   0.000001413764 0.00089868  0.00000325  0.0011575   0.000110227
                           ***RMSP convergence achieved***
137  -2674.4837227517  -0.000002554431 0.00002382  0.00000018  0.0011564   0.000110333
                          ***Energy convergence achieved***
138  -2674.4837227974  -0.000000045708 0.00607312  0.00001975  0.0011571   0.000110125
139  -2674.4837096610   0.000013136384 0.00134124  0.00000486  0.0011576   0.000110312
               *** Restarting incremental Fock matrix formation ***
                             ****Resetting KDIIS****
140  -2674.4837115604  -0.000001899408 0.00070073  0.00000228  0.0011634   0.000114484
141  -2674.4837133313  -0.000001770870 0.00136313  0.00000457  0.0011612   0.000111016
142  -2674.4837163277  -0.000002996476 0.00227138  0.00000767  0.0011615   0.000110581
143  -2674.4837213880  -0.000005060263 0.01168715  0.00004403  0.0011618   0.000110575
144  -2674.4836935324   0.000027855586 0.00290276  0.00000669  0.0011570   0.000110734
                          ***Energy convergence achieved***
145  -2674.4836935587  -0.000000026276 0.00447703  0.00001341  0.0011577   0.000109746
146  -2674.4836997823  -0.000006223646 0.00592652  0.00002124  0.0011596   0.000109144
147  -2674.4837144485  -0.000014666201 0.00701638  0.00002403  0.0011604   0.000109544
148  -2674.4837317000  -0.000017251496 0.00532999  0.00001855  0.0011612   0.000110110
149  -2674.4837449382  -0.000013238131 0.00331743  0.00001161  0.0011642   0.000109049
                           ***RMSP convergence achieved***
150  -2674.4837535390  -0.000008600831 0.00017423  0.00000067  0.0011642   0.000109071
                          ***Energy convergence achieved***
151  -2674.4837541369  -0.000000597915 0.00312891  0.00001096  0.0011642   0.000109034
152  -2674.4837620065  -0.000007869598 0.00042989  0.00000151  0.0011651   0.000109109
153  -2674.4837608901   0.000001116379 0.00062473  0.00000228  0.0011651   0.000109114
154  -2674.4837595683   0.000001321878 0.00031938  0.00000120  0.0011631   0.000109280
                          ***Energy convergence achieved***
155  -2674.4837587980   0.000000770250 0.00106276  0.00000256  0.0011641   0.000109052
156  -2674.4837595010  -0.000000702950 0.00113838  0.00000409  0.0011635   0.000109082
157  -2674.4837625601  -0.000003059102 0.00512050  0.00001772  0.0011635   0.000109005
158  -2674.4837758125  -0.000013252418 0.00322252  0.00001140  0.0011640   0.000109065
159  -2674.4837671603   0.000008652170 0.00286544  0.00001037  0.0011652   0.000109214
               *** Restarting incremental Fock matrix formation ***
                             ****Resetting KDIIS****
160  -2674.4837599003   0.000007260010 0.00054349  0.00000190  0.0011629   0.000109137
161  -2674.4837612845  -0.000001384164 0.00114499  0.00000399  0.0011636   0.000109025
162  -2674.4837643206  -0.000003036141 0.00178098  0.00000622  0.0011637   0.000109008
Warning: badly conditioned DIIS matrix, 1 vectors out of 4 destroyed
163  -2674.4837690082  -0.000004687584 0.00345874  0.00001213  0.0011636   0.000109014
Warning: badly conditioned DIIS matrix, 1 vectors out of 4 destroyed
164  -2674.4837781203  -0.000009112100 0.00026140  0.00000120  0.0011648   0.000109173
                          ***Energy convergence achieved***
                           ***RMSP convergence achieved***
165  -2674.4837774396   0.000000680659 0.00003797  0.00000008  0.0011645   0.000109122
166  -2674.4837776285  -0.000000188882 0.00316338  0.00000658  0.0011645   0.000109123
Warning: badly conditioned DIIS matrix, 1 vectors out of 5 destroyed
Warning: badly conditioned DIIS matrix, 1 vectors out of 4 destroyed
Warning: badly conditioned DIIS matrix, 1 vectors out of 3 destroyed
167  -2674.4837796376  -0.000002009115 0.00383020  0.00001371  0.0011648   0.000109242
168  -2674.4837910959  -0.000011458319 0.00086643  0.00000314  0.0011609   0.000110195
169  -2674.4837932963  -0.000002200313 0.00124636  0.00000450  0.0011644   0.000109219
170  -2674.4837897507   0.000003545601 0.01324410  0.00004701  0.0011658   0.000109534
171  -2674.4837539593   0.000035791402 0.00108602  0.00000424  0.0011635   0.000109105
172  -2674.4837566104  -0.000002651168 0.00027170  0.00000118  0.0011646   0.000109303
173  -2674.4837554893   0.000001121090 0.00290417  0.00001003  0.0011655   0.000108951
174  -2674.4837629345  -0.000007445150 0.00101400  0.00000354  0.0011645   0.000109307
175  -2674.4837656171  -0.000002682568 0.00442405  0.00001569  0.0011652   0.000108942
176  -2674.4837774661  -0.000011849094 0.00277505  0.00000979  0.0011650   0.000108940
177  -2674.4837700139   0.000007452250 0.00040364  0.00000148  0.0011665   0.000109017
178  -2674.4837689608   0.000001053087 0.00246625  0.00000887  0.0011654   0.000108932
179  -2674.4837622827   0.000006678084 0.00343667  0.00001202  0.0011656   0.000108893
               *** Restarting incremental Fock matrix formation ***
                             ****Resetting KDIIS****
180  -2674.4837524540   0.000009828739 0.00053664  0.00000188  0.0011661   0.000108952
181  -2674.4837538549  -0.000001400900 0.00118331  0.00000411  0.0011663   0.000108890
182  -2674.4837570253  -0.000003170401 0.00180872  0.00000629  0.0011662   0.000108873
183  -2674.4837618478  -0.000004822526 0.00454796  0.00001633  0.0011658   0.000108891
184  -2674.4837492808   0.000012566998 0.00157900  0.00000553  0.0011671   0.000108921
185  -2674.4837449180   0.000004362768 0.00126172  0.00000464  0.0011675   0.000109002
186  -2674.4837480983  -0.000003180278 0.01262197  0.00004371  0.0011682   0.000108975
187  -2674.4837815001  -0.000033401821 0.00026764  0.00000122  0.0011669   0.000109709
                          ***Energy convergence achieved***
188  -2674.4837814284   0.000000071767 0.00251419  0.00000886  0.0011677   0.000109556
189  -2674.4837879709  -0.000006542564 0.00067645  0.00000232  0.0011660   0.000108983
                           ***RMSP convergence achieved***
190  -2674.4837861790   0.000001791897 0.00008368  0.00000022  0.0011688   0.000108883
                          ***Energy convergence achieved***
191  -2674.4837862758  -0.000000096784 0.00525168  0.00001893  0.0011686   0.000108813
192  -2674.4838004716  -0.000014195814 0.00466705  0.00001695  0.0011676   0.000108826
193  -2674.4837877614   0.000012710218 0.00248619  0.00000897  0.0011684   0.000108870
194  -2674.4837809668   0.000006794581 0.00253767  0.00000873  0.0011678   0.000108897
195  -2674.4837875113  -0.000006544500 0.00608555  0.00002196  0.0011628   0.000110547
                           ***RMSP convergence achieved***
196  -2674.4837705640   0.000016947329 0.00027565  0.00000095  0.0011677   0.000108757
                          ***Energy convergence achieved***
197  -2674.4837710742  -0.000000510215 0.00073752  0.00000285  0.0011678   0.000108708
198  -2674.4837728223  -0.000001748029 0.00673691  0.00002412  0.0011683   0.000108674
199  -2674.4837909733  -0.000018151050 0.00054969  0.00000199  0.0011681   0.000108793
               *** Restarting incremental Fock matrix formation ***
                             ****Resetting KDIIS****

 WARNING: the maximum gradient error descreased on average only by a factor   1.0
          during the last 200 iterations

                      *** Initiating the TRAH-SCF procedure ***

                    *** KDIIS BlockDiag ( 3.924 sec) ***

TRAH GRID
---------

General Integration Accuracy     IntAcc      ... 3.467
Radial Grid Type                 RadialGrid  ... OptM3 with GC (2021)
Angular Grid (max. ang.)         AngularGrid ... 1 (Lebedev-50)
Angular grid pruning method      GridPruning ... 4 (adaptive)
Weight generation scheme         WeightScheme... Becke
Basis function cutoff            BFCut       ... 1.0000e-10
Integration weight cutoff        WCut        ... 1.0000e-14
Angular grids for H and He will be reduced by one unit
Partially contracted basis set               ... off
Rotationally invariant grid construction     ... off

Total number of grid points                  ...    62459
Total number of batches                      ...      982
Average number of points per batch           ...       63
Average number of grid points per atom       ...     4805

 --------------------------------------------------------------------------------------------
   Iter.        energy            ||Error||_2        Shift      TRadius  Mac/Mic        Rej.
 --------------------------------------------------------------------------------------------
WARNING: 3 diagonal Hessian elements are negative!
    0      -2674.483792720792     1.714811e-03                     0.400 (TRAH MAcro)   No
WARNING : small    HOMO - LUMO gap : (op = alpha) 0.019591
WARNING : negative HOMO - LUMO gap : (op =  beta) -0.067649
    0     dE    -5.057886e-07     4.638482e-03    -5.0579e-07      0.000 (TRAH MIcro)
    0     dE    -8.296108e-04     2.206076e-02    -1.5084e-03      0.400 (TRAH MIcro)
    0     dE    -9.717964e-04     1.779396e-02    -2.3649e-03      0.400 (TRAH MIcro)
    0     dE    -1.119519e-03     1.239861e-02    -3.2416e-03      0.400 (TRAH MIcro)
    0     dE    -1.246285e-03     9.448502e-03    -3.9734e-03      0.400 (TRAH MIcro)
    0     dE    -1.142535e-03     5.671271e-03    -4.7471e-03      0.355 (TRAH MIcro)
    0     dE    -1.188873e-03     4.695611e-03    -4.8495e-03      0.361 (TRAH MIcro)
    0     dE    -1.257768e-03     6.918832e-03    -4.9889e-03      0.371 (TRAH MIcro)
    0     dE    -1.562117e-03     1.838136e-02    -6.3485e-03      0.400 (TRAH MIcro)
    0     dE    -4.890427e-04     6.103727e-03    -1.4824e-02      0.142 (TRAH MIcro)
    0     dE    -3.317197e-03     3.014280e-02    -1.9477e-02      0.400 (TRAH MIcro)
    0     dE    -2.641184e-04     2.759759e-03    -2.6855e-02      0.079 (TRAH MIcro)
    0     dE    -4.866878e-03     2.065777e-02    -2.9775e-02      0.400 (TRAH MIcro)
    0     dE    -9.837805e-05     5.888286e-04    -5.0518e-02      0.031 (TRAH MIcro)
WARNING: 3 diagonal Hessian elements are negative!
    1      -2674.483869565680     1.685826e-03                     0.480 (TRAH MAcro)   No
WARNING : small    HOMO - LUMO gap : (op = alpha) 0.019770
WARNING : negative HOMO - LUMO gap : (op =  beta) -0.067489
    1     dE    -4.693526e-07     8.895294e-03    -4.6935e-07      0.000 (TRAH MIcro)
    1     dE    -7.939217e-04     3.662315e-02    -6.6040e-04      0.450 (TRAH MIcro)
    1     dE    -1.010215e-03     2.104786e-02    -1.3013e-03      0.480 (TRAH MIcro)
    1     dE    -1.293715e-03     1.593430e-02    -2.4926e-03      0.480 (TRAH MIcro)
    1     dE    -1.496331e-03     1.184067e-02    -3.3215e-03      0.480 (TRAH MIcro)
    1     dE    -1.574401e-03     8.527007e-03    -3.6402e-03      0.480 (TRAH MIcro)
    1     dE    -1.629990e-03     7.539648e-03    -3.8677e-03      0.480 (TRAH MIcro)
    1     dE    -1.739438e-03     1.472180e-02    -4.3571e-03      0.480 (TRAH MIcro)
    1     dE    -2.963177e-03     4.264291e-02    -1.1084e-02      0.480 (TRAH MIcro)
    1     dE    -4.684835e-03     3.889516e-02    -1.9259e-02      0.480 (TRAH MIcro)
    1     dE    -4.200836e-04     5.590708e-03    -2.7819e-02      0.107 (TRAH MIcro)
    1     dE    -2.214213e-03     1.162502e-02    -2.9949e-02      0.265 (TRAH MIcro)
    1     dE    -7.422304e-03     1.640402e-02    -3.1745e-02      0.480 (TRAH MIcro)
    1     dE    -9.866513e-05     1.498121e-03    -5.0606e-02      0.031 (TRAH MIcro)
WARNING: 3 diagonal Hessian elements are negative!
    2      -2674.483951068482     2.189657e-03                     0.576 (TRAH MAcro)   No
WARNING : small    HOMO - LUMO gap : (op = alpha) 0.019949
WARNING : negative HOMO - LUMO gap : (op =  beta) -0.067452
    2     dE    -7.169046e-08     3.138782e-03    -7.1793e-08      0.000 (TRAH MIcro)
    2     dE    -6.622595e-04     2.801006e-02    -5.7438e-04      0.391 (TRAH MIcro)
    2     dE    -1.056876e-03     2.438952e-02    -8.1249e-04      0.548 (TRAH MIcro)
    2     dE    -1.526352e-03     1.815552e-02    -1.9965e-03      0.576 (TRAH MIcro)
    2     dE    -1.857718e-03     1.488360e-02    -2.9495e-03      0.576 (TRAH MIcro)
    2     dE    -1.946909e-03     1.099259e-02    -3.3853e-03      0.565 (TRAH MIcro)
    2     dE    -2.125426e-03     1.273816e-02    -3.7314e-03      0.576 (TRAH MIcro)
    2     dE    -1.667780e-03     3.489129e-02    -9.9612e-03      0.355 (TRAH MIcro)
    2     dE    -7.697277e-03     4.589312e-02    -2.2397e-02      0.576 (TRAH MIcro)
    2     dE    -5.572925e-04     6.436748e-03    -2.9249e-02      0.124 (TRAH MIcro)
    2     dE    -1.520976e-03     7.384501e-03    -3.1189e-02      0.212 (TRAH MIcro)
    2     dE    -2.295869e-03     6.983903e-03    -3.1861e-02      0.262 (TRAH MIcro)
    2     dE    -3.851014e-03     9.327125e-03    -3.2457e-02      0.339 (TRAH MIcro)
    2     dE    -6.650836e-03     1.230725e-02    -3.2872e-02      0.446 (TRAH MIcro)
WARNING: 2 diagonal Hessian elements are negative!
    3      -2674.489338606255     2.488741e-02                     0.691 (TRAH MAcro)   No
WARNING : negative HOMO - LUMO gap : (op =  beta) -0.062450
    3     dE    -3.078974e-05     6.964955e-02    -3.0790e-05      0.001 (TRAH MIcro)
    3     dE    -5.791357e-03     1.250010e-01    -4.5863e-03      0.513 (TRAH MIcro)
    3     dE    -9.459488e-03     1.034985e-01    -7.0829e-03      0.691 (TRAH MIcro)
    3     dE    -1.190436e-02     5.712836e-02    -1.2389e-02      0.691 (TRAH MIcro)
    3     dE    -1.460945e-02     4.741850e-02    -1.8216e-02      0.691 (TRAH MIcro)
    3     dE    -1.513015e-02     2.348878e-02    -1.9186e-02      0.691 (TRAH MIcro)
    3     dE    -1.538895e-02     2.121899e-02    -1.9485e-02      0.691 (TRAH MIcro)
    3     dE    -1.567633e-02     2.483650e-02    -1.9822e-02      0.691 (TRAH MIcro)
    3     dE    -1.607130e-02     2.962194e-02    -2.0460e-02      0.691 (TRAH MIcro)
    3     dE    -1.644518e-02     4.696213e-02    -2.3514e-02      0.666 (TRAH MIcro)
    3     dE    -1.362440e-02     6.692048e-02    -3.6408e-02      0.509 (TRAH MIcro)
    3     dE    -2.906718e-02     8.186767e-02    -5.1256e-02      0.691 (TRAH MIcro)
    3     dE    -1.370553e-02     3.149325e-02    -7.0393e-02      0.391 (TRAH MIcro)
    3     dE    -1.604763e-02     2.131188e-02    -7.4193e-02      0.418 (TRAH MIcro)
WARNING: 2 diagonal Hessian elements are negative!
    4      -2674.503224333489     6.815524e-02                     0.829 (TRAH MAcro)   No
WARNING : negative HOMO - LUMO gap : (op =  beta) -0.025270
    4     dE    -6.937025e-04     2.739699e-01    -6.9363e-04      0.010 (TRAH MIcro)
    4     dE    -2.031966e-03     3.338676e-02    -2.0265e-03      0.052 (TRAH MIcro)
    4     dE    -5.953707e-03     7.234686e-02    -5.4007e-03      0.320 (TRAH MIcro)
    4     dE    -9.451268e-03     5.438968e-02    -7.5321e-03      0.505 (TRAH MIcro)
    4     dE    -1.336429e-02     7.817795e-02    -9.5120e-03      0.636 (TRAH MIcro)
    4     dE    -1.769297e-02     8.430688e-02    -1.1503e-02      0.734 (TRAH MIcro)
    4     dE    -2.114317e-02     9.138828e-02    -1.3120e-02      0.782 (TRAH MIcro)
    4     dE    -2.912638e-02     1.266326e-01    -1.8198e-02      0.829 (TRAH MIcro)
    4     dE    -4.148236e-02     1.194720e-01    -3.3739e-02      0.829 (TRAH MIcro)
    4     dE    -4.797601e-02     7.276866e-02    -4.2336e-02      0.829 (TRAH MIcro)
    4     dE    -5.216829e-02     5.928969e-02    -4.6533e-02      0.829 (TRAH MIcro)
    4     dE    -5.493441e-02     5.233405e-02    -4.9634e-02      0.829 (TRAH MIcro)
    4     dE    -5.594750e-02     1.714075e-02    -5.0920e-02      0.829 (TRAH MIcro)
    4     dE    -5.608891e-02     8.432357e-03    -5.1098e-02      0.829 (TRAH MIcro)
WARNING: 1 diagonal Hessian elements are negative!
    5      -2674.546529683198     9.467830e-02                     0.995 (TRAH MAcro)   No
WARNING : negative HOMO - LUMO gap : (op = alpha) -0.005339
WARNING : small    HOMO - LUMO gap : (op =  beta) 0.004209
    5     dE    -2.268955e-03     2.135849e-01    -2.2677e-03      0.024 (TRAH MIcro)
    5     dE    -1.201306e-02     2.068571e-01    -1.0321e-02      0.405 (TRAH MIcro)
    5     dE    -3.711721e-02     9.965752e-02    -2.0168e-02      0.917 (TRAH MIcro)
    5     dE    -4.497524e-02     1.117073e-01    -2.3390e-02      0.995 (TRAH MIcro)
    5     dE    -4.860191e-02     3.417221e-02    -2.5695e-02      0.995 (TRAH MIcro)
    5     dE    -4.907158e-02     1.634531e-02    -2.6089e-02      0.995 (TRAH MIcro)
    5     dE    -4.922496e-02     1.365395e-02    -2.6321e-02      0.995 (TRAH MIcro)
    5     dE    -4.927943e-02     1.026490e-02    -2.6477e-02      0.995 (TRAH MIcro)
    5     dE    -4.931269e-02     3.637901e-03    -2.6607e-02      0.995 (TRAH MIcro)
 ---------------------------------
          TRAH Step control 
 ---------------------------------
  predicted energy change = -0.049313
  actual energy  change   = 0.027051
  energy change ratio     = -0.548560
  old trust radius        = 0.995328
  new trust radius        = 0.696730
  reject step?            =  1
    6      -2674.546529683198     6.815524e-02                     0.697 (TRAH MAcro)  Yes
WARNING: 1 diagonal Hessian elements are negative!
    7      -2674.546529683195     9.467830e-02                     0.697 (TRAH MAcro)   No
WARNING : negative HOMO - LUMO gap : (op = alpha) -0.005339
WARNING : small    HOMO - LUMO gap : (op =  beta) 0.004209
    7     dE    -2.268966e-03     2.136499e-01    -2.2677e-03      0.024 (TRAH MIcro)
    7     dE    -1.201243e-02     2.070429e-01    -1.0321e-02      0.405 (TRAH MIcro)
    7     dE    -2.891588e-02     1.047556e-01    -2.6956e-02      0.697 (TRAH MIcro)
    7     dE    -3.183053e-02     1.089291e-01    -3.1985e-02      0.697 (TRAH MIcro)
    7     dE    -3.397591e-02     2.105371e-02    -3.3328e-02      0.697 (TRAH MIcro)
    7     dE    -3.418115e-02     1.172677e-02    -3.3631e-02      0.697 (TRAH MIcro)
    7     dE    -3.426245e-02     1.077296e-02    -3.3963e-02      0.697 (TRAH MIcro)
    7     dE    -3.429284e-02     6.766953e-03    -3.4209e-02      0.697 (TRAH MIcro)
WARNING: 4 diagonal Hessian elements are negative!
    8      -2674.555311008549     1.662144e-01                     0.697 (TRAH MAcro)   No
WARNING : negative HOMO - LUMO gap : (op = alpha) -0.018374
WARNING : small    HOMO - LUMO gap : (op =  beta) 0.001428
    8     dE    -6.180606e-03     3.779083e-01    -6.1721e-03      0.037 (TRAH MIcro)
    8     dE    -9.588336e-03     5.098181e-02    -9.4775e-03      0.108 (TRAH MIcro)
    8     dE    -1.146226e-02     3.191147e-02    -1.1006e-02      0.204 (TRAH MIcro)
    8     dE    -1.302482e-02     2.698201e-02    -1.1697e-02      0.337 (TRAH MIcro)
    8     dE    -1.756607e-02     5.301243e-02    -1.2518e-02      0.635 (TRAH MIcro)
    8     dE    -1.859973e-02     1.882223e-02    -1.8086e-02      0.618 (TRAH MIcro)
    8     dE    -2.065804e-02     9.947917e-03    -1.8312e-02      0.697 (TRAH MIcro)
 ---------------------------------
          TRAH Step control 
 ---------------------------------
  predicted energy change = -0.020658
  actual energy  change   = 0.010662
  energy change ratio     = -0.516132
  old trust radius        = 0.696730
  new trust radius        = 0.487711
  reject step?            =  1
    9      -2674.555311008549     9.467830e-02                     0.488 (TRAH MAcro)  Yes
WARNING: 4 diagonal Hessian elements are negative!
   10      -2674.555311008548     1.662144e-01                     0.488 (TRAH MAcro)   No
WARNING : negative HOMO - LUMO gap : (op = alpha) -0.018374
WARNING : small    HOMO - LUMO gap : (op =  beta) 0.001428
   10     dE    -6.180716e-03     3.777729e-01    -6.1722e-03      0.037 (TRAH MIcro)
   10     dE    -9.588360e-03     5.095825e-02    -9.4775e-03      0.108 (TRAH MIcro)
   10     dE    -1.146232e-02     3.191511e-02    -1.1006e-02      0.204 (TRAH MIcro)
   10     dE    -1.302528e-02     2.697992e-02    -1.1697e-02      0.337 (TRAH MIcro)
   10     dE    -1.535394e-02     3.294427e-02    -1.4524e-02      0.488 (TRAH MIcro)
   10     dE    -1.593344e-02     1.360921e-02    -1.9073e-02      0.488 (TRAH MIcro)
   10     dE    -1.601281e-02     8.011570e-03    -1.9644e-02      0.488 (TRAH MIcro)
WARNING: 1 diagonal Hessian elements are negative!
   11      -2674.558701492387     9.042199e-02                     0.341 (TRAH MAcro)   No
WARNING : negative HOMO - LUMO gap : (op = alpha) -0.008343
WARNING : small    HOMO - LUMO gap : (op =  beta) 0.002720
   11     dE    -1.767241e-03     3.406661e-01    -1.7666e-03      0.020 (TRAH MIcro)
   11     dE    -3.776666e-03     5.155992e-02    -3.7469e-03      0.089 (TRAH MIcro)
   11     dE    -6.545380e-03     1.770550e-02    -6.2363e-03      0.223 (TRAH MIcro)
   11     dE    -6.688879e-03     9.765550e-03    -6.3519e-03      0.230 (TRAH MIcro)
   11     dE    -6.784865e-03     9.765457e-03    -6.4243e-03      0.237 (TRAH MIcro)
   11     dE    -6.877500e-03     1.025971e-02    -6.4871e-03      0.245 (TRAH MIcro)
   11     dE    -6.896574e-03     5.940423e-03    -6.4963e-03      0.248 (TRAH MIcro)
   12      -2674.565738949620     1.276721e-02                     0.410 (TRAH MAcro)   No
WARNING : small    HOMO - LUMO gap : (op = alpha) 0.007908
WARNING : small    HOMO - LUMO gap : (op =  beta) 0.003985
   12     dE    -2.236054e-06     2.681288e-02    -2.2361e-06      0.000 (TRAH MIcro)
   12     dE    -4.391890e-04     2.998533e-02    -4.3661e-04      0.077 (TRAH MIcro)
   12     dE    -1.187500e-03     1.728418e-02    -1.1289e-03      0.228 (TRAH MIcro)
   12     dE    -1.486533e-03     1.654278e-02    -1.3648e-03      0.299 (TRAH MIcro)
   12     dE    -2.006245e-03     1.946175e-02    -2.9948e-03      0.410 (TRAH MIcro)
   12     dE    -2.290623e-03     1.052448e-02    -6.0821e-03      0.410 (TRAH MIcro)
   12     dE    -2.369622e-03     6.838667e-03    -6.7082e-03      0.410 (TRAH MIcro)
   12     dE    -2.413536e-03     4.362375e-03    -6.9228e-03      0.410 (TRAH MIcro)
   12     dE    -2.422906e-03     2.123369e-03    -6.9663e-03      0.410 (TRAH MIcro)
   12     dE    -2.426025e-03     1.397054e-03    -7.0019e-03      0.410 (TRAH MIcro)
   12     dE    -2.427586e-03     9.306194e-04    -7.0524e-03      0.410 (TRAH MIcro)
   13      -2674.567817736804     1.111788e-02                     0.492 (TRAH MAcro)   No
WARNING : small    HOMO - LUMO gap : (op = alpha) 0.012490
WARNING : small    HOMO - LUMO gap : (op =  beta) 0.004897
   13     dE    -2.800536e-05     1.719367e-02    -2.8005e-05      0.003 (TRAH MIcro)
   13     dE    -5.222034e-04     2.753301e-02    -4.9076e-04      0.253 (TRAH MIcro)
   13     dE    -8.638843e-04     2.322330e-02    -7.4167e-04      0.406 (TRAH MIcro)
   13     dE    -1.235393e-03     1.680714e-02    -1.5408e-03      0.492 (TRAH MIcro)
   13     dE    -1.457694e-03     1.233562e-02    -2.5175e-03      0.492 (TRAH MIcro)
   13     dE    -1.540710e-03     7.904072e-03    -2.8121e-03      0.492 (TRAH MIcro)
   13     dE    -1.570152e-03     4.540075e-03    -2.9437e-03      0.492 (TRAH MIcro)
   13     dE    -1.579959e-03     2.806518e-03    -2.9669e-03      0.491 (TRAH MIcro)
   13     dE    -1.585083e-03     1.428746e-03    -2.9606e-03      0.492 (TRAH MIcro)
   13     dE    -1.586535e-03     9.972609e-04    -2.9594e-03      0.492 (TRAH MIcro)
   14      -2674.568870002755     1.148086e-02                     0.492 (TRAH MAcro)   No
WARNING : small    HOMO - LUMO gap : (op = alpha) 0.016116
WARNING : small    HOMO - LUMO gap : (op =  beta) 0.006709
   14     dE    -3.137178e-05     1.617262e-02    -3.1372e-05      0.003 (TRAH MIcro)
   14     dE    -8.182157e-05     7.805330e-03    -8.1777e-05      0.023 (TRAH MIcro)
   14     dE    -1.344444e-04     5.401921e-03    -1.3404e-04      0.055 (TRAH MIcro)
   14     dE    -1.448350e-04     4.453335e-03    -1.4425e-04      0.064 (TRAH MIcro)
   14     dE    -1.531783e-04     2.813097e-03    -1.5234e-04      0.074 (TRAH MIcro)
   14     dE    -1.602084e-04     1.902194e-03    -1.5897e-04      0.088 (TRAH MIcro)
   14     dE    -1.627991e-04     1.409684e-03    -1.6133e-04      0.095 (TRAH MIcro)
   14     dE    -1.642802e-04     1.076460e-03    -1.6261e-04      0.101 (TRAH MIcro)
   15      -2674.569008445512     1.285310e-03                     0.590 (TRAH MAcro)   No
WARNING : small    HOMO - LUMO gap : (op = alpha) 0.015018
WARNING : small    HOMO - LUMO gap : (op =  beta) 0.006136
   15     dE    -1.924882e-07     5.635880e-03    -1.9249e-07      0.000 (TRAH MIcro)
   15     dE    -1.041652e-06     1.675253e-03    -1.0416e-06      0.003 (TRAH MIcro)
   15     dE    -2.126999e-06     1.158656e-03    -2.1267e-06      0.011 (TRAH MIcro)
   15     dE    -2.398214e-06     9.075336e-04    -2.3978e-06      0.014 (TRAH MIcro)
   15     dE    -2.554848e-06     8.161484e-04    -2.5542e-06      0.016 (TRAH MIcro)
   15     dE    -2.806930e-06     4.736269e-04    -2.8059e-06      0.019 (TRAH MIcro)
   15     dE    -2.979508e-06     3.614899e-04    -2.9780e-06      0.022 (TRAH MIcro)
   15     dE    -3.036744e-06     2.105824e-04    -3.0351e-06      0.024 (TRAH MIcro)
   15     dE    -3.057284e-06     1.813561e-04    -3.0555e-06      0.024 (TRAH MIcro)
   15     dE    -3.066688e-06     7.996859e-05    -3.0648e-06      0.025 (TRAH MIcro)
   16      -2674.569009929939     1.497889e-04                           (NR   MAcro)
WARNING : small    HOMO - LUMO gap : (op = alpha) 0.015124
WARNING : small    HOMO - LUMO gap : (op =  beta) 0.006071
   16     dE    -1.181126e-08     1.196563e-04                           (NR   MIcro)
   16     dE    -3.193784e-08     1.159608e-04                           (NR   MIcro)
   16     dE    -3.682131e-08     9.396373e-05                           (NR   MIcro)
   16     dE    -4.395160e-08     7.879160e-05                           (NR   MIcro)
   16     dE    -4.846993e-08     6.263491e-05                           (NR   MIcro)
   16     dE    -5.095164e-08     3.615333e-05                           (NR   MIcro)
   16     dE    -5.171872e-08     2.298039e-05                           (NR   MIcro)
   16     dE    -5.207764e-08     1.613966e-05                           (NR   MIcro)
   16     dE    -5.220800e-08     9.085306e-06                           (NR   MIcro)
   16     dE    -5.225426e-08     5.800551e-06                           (NR   MIcro)
   16     dE    -5.227640e-08     3.235367e-06                           (NR   MIcro)
   17      -2674.569010240484     1.583010e-05                           (NR   MAcro)
WARNING : small    HOMO - LUMO gap : (op = alpha) 0.015121
WARNING : small    HOMO - LUMO gap : (op =  beta) 0.006063

               *****************************************************
               *                     SUCCESS                       *
               *           SCF CONVERGED AFTER 374 CYCLES          *
               *****************************************************


----------------
TOTAL SCF ENERGY
----------------

Total Energy       :        -2674.56901024 Eh          -72778.72277 eV

Components:
Nuclear Repulsion  :         4267.08674086 Eh          116113.33331 eV
Electronic Energy  :        -6941.65575110 Eh         -188892.05607 eV
One Electron Energy:       -12828.36426348 Eh         -349077.53837 eV
Two Electron Energy:         5886.70851238 Eh          160185.48229 eV

Virial components:
Potential Energy   :        -4267.90423532 Eh         -116135.57846 eV
Kinetic Energy     :         1593.33522508 Eh           43356.85569 eV
Virial Ratio       :            2.67859780


DFT components:
N(Alpha)           :      127.999989659168 electrons
N(Beta)            :      123.999989800712 electrons
N(Total)           :      251.999979459880 electrons
E(X)               :     -193.312195793368 Eh       
E(C)               :      -10.421704442607 Eh       
E(XC)              :     -203.733900235975 Eh       
DFET-embed. en.    :        0.000000000000 Eh       

---------------
SCF CONVERGENCE
---------------

  Last Energy change         ...   -3.1055e-07  Tolerance :   1.0000e-06
  Last Orbital Gradient      ...    1.5830e-05  Tolerance :   5.0000e-05
  Last Orbital Rotation      ...    3.3817e-03

             **** THE GBW FILE WAS UPDATED (scan.gbw) ****
             **** DENSITY scan.scfp WAS UPDATED ****
             **** ENERGY FILE WAS UPDATED (scan.en.tmp) ****
----------------------
UHF SPIN CONTAMINATION
----------------------

Warning: in a DFT calculation there is little theoretical justification to 
         calculate <S**2> as in Hartree-Fock theory. We will do it anyways
         but you should keep in mind that the values have only limited relevance

Expectation value of <S**2>     :     6.393903
Ideal value S*(S+1) for S=2.0   :     6.000000
Deviation                       :     0.393903

             **** THE GBW FILE WAS UPDATED (scan.gbw) ****
             **** DENSITY scan.scfp WAS UPDATED ****
----------------
ORBITAL ENERGIES
----------------
                 SPIN UP ORBITALS
  NO   OCC          E(Eh)            E(eV) 
   0   1.0000    -215.300114     -5858.6140 
   1   1.0000     -24.604514      -669.5229 
   2   1.0000     -20.873068      -567.9851 
   3   1.0000     -20.870195      -567.9069 
   4   1.0000     -20.869576      -567.8900 
   5   1.0000      -4.122399      -112.1762 
   6   1.0000      -4.122351      -112.1749 
   7   1.0000      -4.116131      -112.0056 
   8   1.0000      -4.116045      -112.0033 
   9   1.0000      -4.115058      -111.9764 
  10   1.0000      -4.114866      -111.9712 
  11   1.0000      -4.114644      -111.9652 
  12   1.0000      -4.114619      -111.9645 
  13   1.0000      -4.112778      -111.9144 
  14   1.0000      -4.112622      -111.9101 
  15   1.0000      -4.110862      -111.8622 
  16   1.0000      -4.110840      -111.8616 
  17   1.0000      -2.917244       -79.3822 
  18   1.0000      -2.312482       -62.9258 
  19   1.0000      -2.312436       -62.9246 
  20   1.0000      -2.309433       -62.8429 
  21   1.0000      -2.309157       -62.8354 
  22   1.0000      -2.308057       -62.8054 
  23   1.0000      -2.307993       -62.8037 
  24   1.0000      -2.304978       -62.7216 
  25   1.0000      -2.304401       -62.7059 
  26   1.0000      -2.304373       -62.7052 
  27   1.0000      -2.303456       -62.6802 
  28   1.0000      -2.303348       -62.6773 
  29   1.0000      -2.302927       -62.6658 
  30   1.0000      -2.302922       -62.6657 
  31   1.0000      -2.302880       -62.6646 
  32   1.0000      -2.302861       -62.6640 
  33   1.0000      -2.302381       -62.6510 
  34   1.0000      -2.301882       -62.6374 
  35   1.0000      -2.300942       -62.6118 
  36   1.0000      -2.300886       -62.6103 
  37   1.0000      -2.300023       -62.5868 
  38   1.0000      -2.299994       -62.5860 
  39   1.0000      -2.298062       -62.5334 
  40   1.0000      -2.298024       -62.5324 
  41   1.0000      -2.297886       -62.5287 
  42   1.0000      -2.297568       -62.5200 
  43   1.0000      -2.297447       -62.5167 
  44   1.0000      -2.297435       -62.5164 
  45   1.0000      -2.297250       -62.5113 
  46   1.0000      -2.296845       -62.5003 
  47   1.0000      -2.296760       -62.4980 
  48   1.0000      -2.295818       -62.4724 
  49   1.0000      -2.295671       -62.4684 
  50   1.0000      -2.292917       -62.3934 
  51   1.0000      -2.292891       -62.3927 
  52   1.0000      -2.288932       -62.2850 
  53   1.0000      -2.288875       -62.2834 
  54   1.0000      -1.864683       -50.7406 
  55   1.0000      -1.864579       -50.7378 
  56   1.0000      -1.863175       -50.6996 
  57   1.0000      -0.416862       -11.3434 
  58   1.0000      -0.387583       -10.5467 
  59   1.0000      -0.379754       -10.3336 
  60   1.0000      -0.375598       -10.2206 
  61   1.0000      -0.375354       -10.2139 
  62   1.0000      -0.373171       -10.1545 
  63   1.0000      -0.370627       -10.0853 
  64   1.0000      -0.361512        -9.8372 
  65   1.0000      -0.359196        -9.7742 
  66   1.0000      -0.358393        -9.7524 
  67   1.0000      -0.351372        -9.5613 
  68   1.0000      -0.350737        -9.5440 
  69   1.0000      -0.350061        -9.5256 
  70   1.0000      -0.348461        -9.4821 
  71   1.0000      -0.346036        -9.4161 
  72   1.0000      -0.343388        -9.3441 
  73   1.0000      -0.337997        -9.1974 
  74   1.0000      -0.336248        -9.1498 
  75   1.0000      -0.335446        -9.1280 
  76   1.0000      -0.335246        -9.1225 
  77   1.0000      -0.334981        -9.1153 
  78   1.0000      -0.330912        -9.0046 
  79   1.0000      -0.327319        -8.9068 
  80   1.0000      -0.325659        -8.8616 
  81   1.0000      -0.325178        -8.8486 
  82   1.0000      -0.320083        -8.7099 
  83   1.0000      -0.314019        -8.5449 
  84   1.0000      -0.313492        -8.5306 
  85   1.0000      -0.312346        -8.4994 
  86   1.0000      -0.306873        -8.3505 
  87   1.0000      -0.298213        -8.1148 
  88   1.0000      -0.297559        -8.0970 
[...]

----------------------------------------------------
LOEWDIN REDUCED ORBITAL CHARGES AND SPIN POPULATIONS
----------------------------------------------------
CHARGE
  0 Aus       :     2.623904  s :     2.623904
      pz      :     2.087540  p :     6.387377
      px      :     2.106600
      py      :     2.193237
      dz2     :     1.978008  d :     9.849257
      dxz     :     1.942551
      dyz     :     1.987537
      dx2y2   :     1.966919
      dxy     :     1.974242
      f0      :     0.000711  f :     0.005303
      f+1     :     0.000608
      f-1     :     0.000566
      f+2     :     0.000651
      f-2     :     0.000740
      f+3     :     0.001110
      f-3     :     0.000917
  1 Aus       :     2.582879  s :     2.582879
      pz      :     2.146682  p :     6.470559
      px      :     2.210821
      py      :     2.113056
      dz2     :     2.001888  d :     9.864913
      dxz     :     1.984464
      dyz     :     1.948025
      dx2y2   :     1.957861
      dxy     :     1.972674
      f0      :     0.000609  f :     0.005503
      f+1     :     0.000883
      f-1     :     0.000679
      f+2     :     0.000621
      f-2     :     0.000714
      f+3     :     0.001157
      f-3     :     0.000840
  2 Aus       :     2.629145  s :     2.629145
      pz      :     2.119350  p :     6.373918
      px      :     2.107701
      py      :     2.146867
      dz2     :     1.979497  d :     9.918166
      dxz     :     1.990885
      dyz     :     1.979101
      dx2y2   :     1.977271
      dxy     :     1.991412
      f0      :     0.000580  f :     0.004949
      f+1     :     0.000676
      f-1     :     0.000809
      f+2     :     0.000597
      f-2     :     0.000646
      f+3     :     0.000955
      f-3     :     0.000687
  3 Aus       :     2.623556  s :     2.623556
      pz      :     2.076750  p :     6.387886
      px      :     2.105145
      py      :     2.205991
      dz2     :     1.983958  d :     9.849357
      dxz     :     1.954622
      dyz     :     1.982829
      dx2y2   :     1.968801
      dxy     :     1.959146
      f0      :     0.000556  f :     0.005305
      f+1     :     0.000565
      f-1     :     0.000725
      f+2     :     0.000552
      f-2     :     0.000699
      f+3     :     0.001153
      f-3     :     0.001055
  4 Aus       :     2.582074  s :     2.582074
      pz      :     2.122267  p :     6.471560
      px      :     2.207194
      py      :     2.142098
      dz2     :     1.994910  d :     9.865281
      dxz     :     1.984081
      dyz     :     1.941200
      dx2y2   :     1.969424
      dxy     :     1.975666
      f0      :     0.000600  f :     0.005509
      f+1     :     0.000740
      f-1     :     0.000831
      f+2     :     0.000619
      f-2     :     0.000774
      f+3     :     0.001165
      f-3     :     0.000779
  5 Aus       :     2.582460  s :     2.582460
      pz      :     2.149026  p :     6.471038
      px      :     2.105614
      py      :     2.216398
      dz2     :     2.003535  d :     9.865240
      dxz     :     1.947591
      dyz     :     1.974332
      dx2y2   :     1.954749
      dxy     :     1.985033
      f0      :     0.000697  f :     0.005501
      f+1     :     0.000561
      f-1     :     0.000953
      f+2     :     0.000734
      f-2     :     0.000747
      f+3     :     0.001036
      f-3     :     0.000773
  6 Aus       :     2.628278  s :     2.628278
      pz      :     2.126673  p :     6.374994
      px      :     2.146118
      py      :     2.102202
      dz2     :     1.980892  d :     9.918514
      dxz     :     1.968520
      dyz     :     1.994587
      dx2y2   :     1.983061
      dxy     :     1.991454
      f0      :     0.000555  f :     0.004963
      f+1     :     0.000587
      f-1     :     0.000696
      f+2     :     0.000556
      f-2     :     0.001060
      f+3     :     0.000772
      f-3     :     0.000737
  7 Aus       :     2.628552  s :     2.628552
      pz      :     2.140120  p :     6.374589
      px      :     2.106099
      py      :     2.128371
      dz2     :     1.983243  d :     9.918417
      dxz     :     1.992867
      dyz     :     1.966244
      dx2y2   :     1.987218
      dxy     :     1.988846
      f0      :     0.000527  f :     0.004957
      f+1     :     0.000756
      f-1     :     0.000757
      f+2     :     0.000849
      f-2     :     0.000656
      f+3     :     0.000868
      f-3     :     0.000545
  8 Aus       :     2.582092  s :     2.582092
      pz      :     2.126287  p :     6.471499
      px      :     2.101321
      py      :     2.243891
      dz2     :     1.999456  d :     9.865288
      dxz     :     1.947688
      dyz     :     1.981783
      dx2y2   :     1.948543
      dxy     :     1.987817
      f0      :     0.000595  f :     0.005507
      f+1     :     0.000514
      f-1     :     0.000974
      f+2     :     0.000788
      f-2     :     0.000562
      f+3     :     0.001211
      f-3     :     0.000864
  9 Aus       :     2.628683  s :     2.628683
      pz      :     2.131488  p :     6.374546
      px      :     2.140529
      py      :     2.102529
      dz2     :     1.984600  d :     9.918316
      dxz     :     1.974262
      dyz     :     1.989695
      dx2y2   :     1.987103
      dxy     :     1.982656
      f0      :     0.000550  f :     0.004955
      f+1     :     0.000935
      f-1     :     0.000751
      f+2     :     0.000459
      f-2     :     0.000732
      f+3     :     0.000805
      f-3     :     0.000723
 10 Aus       :     2.624185  s :     2.624185
      pz      :     2.085044  p :     6.387166
      px      :     2.148871
      py      :     2.153251
      dz2     :     1.990005  d :     9.849047
      dxz     :     1.983114
      dyz     :     1.951950
      dx2y2   :     1.984457
      dxy     :     1.939521
      f0      :     0.000617  f :     0.005306
      f+1     :     0.000468
      f-1     :     0.000726
      f+2     :     0.000486
      f-2     :     0.000783
      f+3     :     0.001139
      f-3     :     0.001087
 11 Aus       :     2.624060  s :     2.624060
      pz      :     2.076519  p :     6.387248
      px      :     2.147439
      py      :     2.163290
      dz2     :     1.967035  d :     9.849176
      dxz     :     1.970526
      dyz     :     1.966680
      dx2y2   :     1.986097
      dxy     :     1.958839
      f0      :     0.000669  f :     0.005297
      f+1     :     0.000499
      f-1     :     0.000779
      f+2     :     0.000512
      f-2     :     0.000817
      f+3     :     0.001059
      f-3     :     0.000963
 12 Crs       :     6.281451  s :     6.281451
      pz      :     4.230552  p :    12.622508
      px      :     4.208549
      py      :     4.183407
      dz2     :     1.193283  d :     6.227150
      dxz     :     1.277952
      dyz     :     1.232904
      dx2y2   :     1.213429
      dxy     :     1.309584
      f0      :     0.000333  f :     0.002616
      f+1     :     0.000367
      f-1     :     0.000324
      f+2     :     0.000599
      f-2     :     0.000413
      f+3     :     0.000278
      f-3     :     0.000301

SPIN
  0 Aus       :    -0.039776  s :    -0.039776
      pz      :    -0.003914  p :    -0.041439
      px      :    -0.011673
      py      :    -0.025852
      dz2     :     0.007154  d :     0.012531
      dxz     :    -0.002210
      dyz     :     0.003953
      dx2y2   :     0.000239
      dxy     :     0.003394
      f0      :     0.000078  f :     0.000584
      f+1     :     0.000211
      f-1     :     0.000012
      f+2     :     0.000138
      f-2     :     0.000086
      f+3     :     0.000030
      f-3     :     0.000030
  1 Aus       :    -0.069020  s :    -0.069020
      pz      :    -0.009501  p :    -0.018078
      px      :    -0.008812
      py      :     0.000235
      dz2     :    -0.002769  d :     0.007305
      dxz     :    -0.002990
      dyz     :     0.005322
      dx2y2   :    -0.001739
      dxy     :     0.009481
      f0      :     0.000078  f :     0.000693
      f+1     :    -0.000013
      f-1     :     0.000117
      f+2     :     0.000172
      f-2     :     0.000076
      f+3     :     0.000133
      f-3     :     0.000130
  2 Aus       :    -0.058413  s :    -0.058413
      pz      :    -0.018973  p :    -0.038650
      px      :    -0.014485
      py      :    -0.005192
      dz2     :    -0.004024  d :    -0.010121
      dxz     :    -0.003671
      dyz     :     0.000233
      dx2y2   :    -0.002317
      dxy     :    -0.000342
      f0      :     0.000002  f :    -0.000002
      f+1     :     0.000001
      f-1     :    -0.000005
      f+2     :    -0.000010
      f-2     :     0.000003
      f+3     :     0.000002
      f-3     :     0.000005
  3 Aus       :    -0.039749  s :    -0.039749
      pz      :    -0.002229  p :    -0.041237
      px      :    -0.011705
      py      :    -0.027303
      dz2     :     0.009032  d :     0.012517
      dxz     :     0.000123
      dyz     :    -0.000605
      dx2y2   :     0.001725
      dxy     :     0.002242
      f0      :     0.000057  f :     0.000586
      f+1     :     0.000189
      f-1     :    -0.000007
      f+2     :     0.000131
      f-2     :     0.000106
      f+3     :     0.000040
      f-3     :     0.000070
  4 Aus       :    -0.069320  s :    -0.069320
      pz      :    -0.008940  p :    -0.018179
      px      :    -0.008532
      py      :    -0.000707
      dz2     :     0.005452  d :     0.007410
      dxz     :     0.001402
      dyz     :     0.001168
      dx2y2   :    -0.006870
      dxy     :     0.006258
      f0      :     0.000059  f :     0.000692
      f+1     :     0.000008
      f-1     :     0.000232
      f+2     :     0.000160
      f-2     :     0.000120
      f+3     :     0.000052
      f-3     :     0.000062
  5 Aus       :    -0.069242  s :    -0.069242
      pz      :    -0.010244  p :    -0.018119
      px      :    -0.003755
      py      :    -0.004120
      dz2     :    -0.000666  d :     0.007388
      dxz     :     0.003170
      dyz     :     0.001213
      dx2y2   :     0.002610
      dxy     :     0.001061
      f0      :     0.000062  f :     0.000691
      f+1     :     0.000149
      f-1     :     0.000009
      f+2     :     0.000161
      f-2     :     0.000123
      f+3     :     0.000108
      f-3     :     0.000078
  6 Aus       :    -0.058886  s :    -0.058886
      pz      :    -0.018516  p :    -0.038624
      px      :    -0.012367
      py      :    -0.007741
      dz2     :    -0.001974  d :    -0.010158
      dxz     :    -0.000323
      dyz     :    -0.004707
      dx2y2   :     0.001057
      dxy     :    -0.004211
      f0      :    -0.000001  f :    -0.000002
      f+1     :    -0.000006
      f-1     :    -0.000004
      f+2     :    -0.000010
      f-2     :     0.000012
      f+3     :    -0.000005
      f-3     :     0.000011
  7 Aus       :    -0.058701  s :    -0.058701
      pz      :    -0.020296  p :    -0.038650
      px      :    -0.013920
      py      :    -0.004433
      dz2     :    -0.002725  d :    -0.010112
      dxz     :    -0.003971
      dyz     :    -0.000646
      dx2y2   :    -0.003307
      dxy     :     0.000537
      f0      :     0.000001  f :    -0.000002
      f+1     :    -0.000001
      f-1     :    -0.000006
      f+2     :    -0.000006
      f-2     :     0.000008
      f+3     :    -0.000002
      f-3     :     0.000004
  8 Aus       :    -0.069407  s :    -0.069407
      pz      :    -0.008613  p :    -0.018230
      px      :    -0.003764
      py      :    -0.005853
      dz2     :     0.003906  d :     0.007368
      dxz     :     0.005284
      dyz     :    -0.006921
      dx2y2   :     0.004209
      dxy     :     0.000889
      f0      :     0.000059  f :     0.000691
      f+1     :     0.000164
      f-1     :    -0.000004
      f+2     :     0.000194
      f-2     :     0.000089
      f+3     :     0.000117
      f-3     :     0.000071
  9 Aus       :    -0.058719  s :    -0.058719
      pz      :    -0.020951  p :    -0.038624
      px      :    -0.011863
      py      :    -0.005809
      dz2     :    -0.005034  d :    -0.010081
      dxz     :    -0.001683
      dyz     :    -0.001445
      dx2y2   :     0.000733
      dxy     :    -0.002652
      f0      :     0.000002  f :    -0.000002
      f+1     :     0.000004
      f-1     :    -0.000003
      f+2     :    -0.000010
      f-2     :     0.000003
      f+3     :    -0.000004
      f-3     :     0.000006
 10 Aus       :    -0.039698  s :    -0.039698
      pz      :    -0.002893  p :    -0.041523
      px      :    -0.015129
      py      :    -0.023501
      dz2     :     0.006303  d :     0.012543
      dxz     :     0.000842
      dyz     :     0.000329
      dx2y2   :     0.002411
      dxy     :     0.002659
      f0      :     0.000046  f :     0.000584
      f+1     :     0.000022
      f-1     :     0.000156
      f+2     :     0.000099
      f-2     :     0.000108
      f+3     :     0.000101
      f-3     :     0.000052
 11 Aus       :    -0.039735  s :    -0.039735
      pz      :    -0.002993  p :    -0.041360
      px      :    -0.014824
      py      :    -0.023543
      dz2     :     0.008474  d :     0.012680
      dxz     :     0.002930
      dyz     :    -0.000190
      dx2y2   :    -0.000800
      dxy     :     0.002266
      f0      :     0.000128  f :     0.000586
      f+1     :     0.000055
      f-1     :     0.000158
      f+2     :     0.000084
      f-2     :     0.000138
      f+3     :     0.000018
      f-3     :     0.000005
 12 Crs       :     0.021621  s :     0.021621
      pz      :     0.013383  p :     0.039194
      px      :     0.013088
      py      :     0.012723
      dz2     :     0.865430  d :     2.958142
      dxz     :     0.346570
      dyz     :     0.425223
      dx2y2   :     0.497623
      dxy     :     0.823295
      f0      :     0.000002  f :     0.000054
      f+1     :     0.000009
      f-1     :     0.000009
      f+2     :     0.000014
      f-2     :     0.000010
      f+3     :     0.000007
      f-3     :     0.000003


                      *****************************
                      * MAYER POPULATION ANALYSIS *
                      *****************************

  NA   - Mulliken gross atomic population
  ZA   - Total nuclear charge
  QA   - Mulliken gross atomic charge
  VA   - Mayer's total valence
  BVA  - Mayer's bonded valence
  FA   - Mayer's free valence

  ATOM       NA         ZA         QA         VA         BVA        FA
  0 Au    18.7324    19.0000     0.2676     1.7152     1.7071     0.0081
  1 Au    18.8622    19.0000     0.1378     1.7004     1.6818     0.0186
  2 Au    18.6794    19.0000     0.3206     1.4301     1.4115     0.0186
  3 Au    18.7354    19.0000     0.2646     1.7167     1.7086     0.0081
  4 Au    18.8586    19.0000     0.1414     1.7027     1.6840     0.0188
  5 Au    18.8608    19.0000     0.1392     1.7009     1.6822     0.0187
  6 Au    18.6806    19.0000     0.3194     1.4317     1.4129     0.0188
  7 Au    18.6800    19.0000     0.3200     1.4311     1.4123     0.0187
  8 Au    18.8566    19.0000     0.1434     1.7033     1.6846     0.0187
  9 Au    18.6795    19.0000     0.3205     1.4308     1.4120     0.0187
 10 Au    18.7309    19.0000     0.2691     1.7145     1.7064     0.0081
 11 Au    18.7347    19.0000     0.2653     1.7159     1.7078     0.0081
 12 Cr    26.9088    24.0000    -2.9088     9.4692     6.9061     2.5631

  Mayer bond orders larger than 0.100000
B(  0-Au,  4-Au) :   0.4775 B(  0-Au,  7-Au) :   0.2512 B(  0-Au, 12-Cr) :   0.8493 
B(  1-Au,  3-Au) :   0.4810 B(  1-Au,  7-Au) :   0.2059 B(  1-Au,  9-Au) :   0.2064 
B(  1-Au, 12-Cr) :   0.5464 B(  2-Au,  3-Au) :   0.2500 B(  2-Au,  4-Au) :   0.2069 
B(  2-Au,  5-Au) :   0.2068 B(  2-Au,  6-Au) :   0.2190 B(  2-Au, 12-Cr) :   0.3296 
B(  3-Au, 12-Cr) :   0.8461 B(  4-Au,  6-Au) :   0.2063 B(  4-Au, 12-Cr) :   0.5483 
B(  5-Au,  6-Au) :   0.2060 B(  5-Au, 11-Au) :   0.4796 B(  5-Au, 12-Cr) :   0.5469 
B(  6-Au, 10-Au) :   0.2513 B(  6-Au, 12-Cr) :   0.3315 B(  7-Au,  8-Au) :   0.2065 
B(  7-Au,  9-Au) :   0.2193 B(  7-Au, 12-Cr) :   0.3304 B(  8-Au,  9-Au) :   0.2064 
B(  8-Au, 10-Au) :   0.4764 B(  8-Au, 12-Cr) :   0.5493 B(  9-Au, 11-Au) :   0.2506 
B(  9-Au, 12-Cr) :   0.3302 B( 10-Au, 12-Cr) :   0.8503 B( 11-Au, 12-Cr) :   0.8479 


-------
TIMINGS
-------

Total SCF time: 0 days 0 hours 7 min 48 sec 

Total time                  ....     468.068 sec
Sum of individual times     ....     449.183 sec  ( 96.0%)

Fock matrix formation       ....     281.400 sec  ( 60.1%)
  Split-RI-J                ....      68.507 sec  ( 24.3% of F)
  XC integration            ....     180.616 sec  ( 64.2% of F)
    Basis function eval.    ....       9.309 sec  (  5.2% of XC)
    Density eval.           ....      67.265 sec  ( 37.2% of XC)
    XC-Functional eval.     ....       6.127 sec  (  3.4% of XC)
    XC-Potential eval.      ....      65.458 sec  ( 36.2% of XC)
Diagonalization             ....     159.661 sec  ( 34.1%)
Density matrix formation    ....       1.794 sec  (  0.4%)
Population analysis         ....       1.427 sec  (  0.3%)
Initial guess               ....       0.412 sec  (  0.1%)
Orbital Transformation      ....       0.000 sec  (  0.0%)
Orbital Orthonormalization  ....       0.223 sec  (  0.0%)
DIIS solution               ....       0.000 sec  (  0.0%)
Grid generation             ....       4.488 sec  (  1.0%)

Maximum memory used throughout the entire SCF-calculation: 82.1 MB

-------------------------   --------------------
FINAL SINGLE POINT ENERGY     -2674.585914716676
-------------------------   --------------------


                            ***************************************
                            *     ORCA property calculations      *
                            ***************************************

                                    ---------------------
                                    Active property flags
                                    ---------------------
   (+) Dipole Moment


------------------------------------------------------------------------------
                       ORCA ELECTRIC PROPERTIES CALCULATION
------------------------------------------------------------------------------

Dipole Moment Calculation                       ... on
Quadrupole Moment Calculation                   ... off
Polarizability Calculation                      ... off
GBWName                                         ... scan_job2.gbw
Electron density                                ... scan_job2.scfp
The origin for moment calculation is the CENTER OF MASS  = (15.843683, 13.057996 15.555792)

-------------
DIPOLE MOMENT
-------------
                                X             Y             Z
Electronic contribution:      0.01696      -0.02396      -0.02906
Nuclear contribution   :     -0.01501       0.02495       0.02751
                        -----------------------------------------
Total Dipole Moment    :      0.00195       0.00099      -0.00156
                        -----------------------------------------
Magnitude (a.u.)       :      0.00268
Magnitude (Debye)      :      0.00682



--------------------
Rotational spectrum 
--------------------
 
Rotational constants in cm-1:     0.001825     0.001029     0.001029 
Rotational constants in MHz :    54.712874    30.842859    30.839811 

 Dipole components along the rotational axes: 
x,y,z [a.u.] :    -0.000459    -0.002238    -0.001407 
x,y,z [Debye]:    -0.001166    -0.005688    -0.003577 

 

Timings for individual modules:

Sum of individual times         ...      483.983 sec (=   8.066 min)
GTO integral calculation        ...       15.065 sec (=   0.251 min)   3.1 %
SCF iterations                  ...      468.918 sec (=   7.815 min)  96.9 %



                             ****ORCA TERMINATED NORMALLY****
TOTAL RUN TIME: 0 days 1 hours 14 minutes 45 seconds 884 msec
