
                                 *****************
                                 * O   R   C   A *
                                 *****************

                                            #,                                       
                                            ###                                      
                                            ####                                     
                                            #####                                    
                                            ######                                   
                                           ########,                                 
                                     ,,################,,,,,                         
                               ,,#################################,,                 
                          ,,##########################################,,             
                       ,#########################################, ''#####,          
                    ,#############################################,,   '####,        
                  ,##################################################,,,,####,       
                ,###########''''           ''''###############################       
              ,#####''   ,,,,##########,,,,          '''####'''          '####       
            ,##' ,,,,###########################,,,                        '##       
           ' ,,###''''                  '''############,,,                           
         ,,##''                                '''############,,,,        ,,,,,,###''
      ,#''                                            '''#######################'''  
     '                                                          ''''####''''         
             ,#######,   #######,   ,#######,      ##                                
            ,#'     '#,  ##    ##  ,#'     '#,    #''#        ######   ,####,        
            ##       ##  ##   ,#'  ##            #'  '#       #        #'  '#        
            ##       ##  #######   ##           ,######,      #####,   #    #        
            '#,     ,#'  ##    ##  '#,     ,#' ,#      #,         ##   #,  ,#        
             '#######'   ##     ##  '#######'  #'      '#     #####' # '####'        



                  #######################################################
                  #                        -***-                        #
                  #          Department of theory and spectroscopy      #
                  #    Directorship and core code : Frank Neese         #
                  #        Max Planck Institute fuer Kohlenforschung    #
                  #                Kaiser Wilhelm Platz 1               #
                  #                 D-45470 Muelheim/Ruhr               #
                  #                      Germany                        #
                  #                                                     #
                  #                  All rights reserved                #
                  #                        -***-                        #
                  #######################################################


                         Program Version 5.0.3 -  RELEASE  -


 With contributions from (in alphabetic order):
   Daniel Aravena         : Magnetic Suceptibility
   Michael Atanasov       : Ab Initio Ligand Field Theory (pilot matlab implementation)
   Alexander A. Auer      : GIAO ZORA, VPT2 properties, NMR spectrum
   Ute Becker             : Parallelization
   Giovanni Bistoni       : ED, misc. LED, open-shell LED, HFLD
   Martin Brehm           : Molecular dynamics
   Dmytro Bykov           : SCF Hessian
   Vijay G. Chilkuri      : MRCI spin determinant printing, contributions to CSF-ICE
   Dipayan Datta          : RHF DLPNO-CCSD density
   Achintya Kumar Dutta   : EOM-CC, STEOM-CC
   Dmitry Ganyushin       : Spin-Orbit,Spin-Spin,Magnetic field MRCI
   Miquel Garcia          : C-PCM and meta-GGA Hessian, CC/C-PCM, Gaussian charge scheme
   Yang Guo               : DLPNO-NEVPT2, F12-NEVPT2, CIM, IAO-localization
   Andreas Hansen         : Spin unrestricted coupled pair/coupled cluster methods
   Benjamin Helmich-Paris : MC-RPA, TRAH-SCF, COSX integrals
   Lee Huntington         : MR-EOM, pCC
   Robert Izsak           : Overlap fitted RIJCOSX, COSX-SCS-MP3, EOM
   Marcus Kettner         : VPT2
   Christian Kollmar      : KDIIS, OOCD, Brueckner-CCSD(T), CCSD density, CASPT2, CASPT2-K
   Simone Kossmann        : Meta GGA functionals, TD-DFT gradient, OOMP2, MP2 Hessian
   Martin Krupicka        : Initial AUTO-CI
   Lucas Lang             : DCDCAS
   Marvin Lechner         : AUTO-CI (C++ implementation), FIC-MRCC
   Dagmar Lenk            : GEPOL surface, SMD
   Dimitrios Liakos       : Extrapolation schemes; Compound Job, initial MDCI parallelization
   Dimitrios Manganas     : Further ROCIS development; embedding schemes
   Dimitrios Pantazis     : SARC Basis sets
   Anastasios Papadopoulos: AUTO-CI, single reference methods and gradients
   Taras Petrenko         : DFT Hessian,TD-DFT gradient, ASA, ECA, R-Raman, ABS, FL, XAS/XES, NRVS
   Peter Pinski           : DLPNO-MP2, DLPNO-MP2 Gradient
   Christoph Reimann      : Effective Core Potentials
   Marius Retegan         : Local ZFS, SOC
   Christoph Riplinger    : Optimizer, TS searches, QM/MM, DLPNO-CCSD(T), (RO)-DLPNO pert. Triples
   Tobias Risthaus        : Range-separated hybrids, TD-DFT gradient, RPA, STAB
   Michael Roemelt        : Original ROCIS implementation
   Masaaki Saitow         : Open-shell DLPNO-CCSD energy and density
   Barbara Sandhoefer     : DKH picture change effects
   Avijit Sen             : IP-ROCIS
   Kantharuban Sivalingam : CASSCF convergence, NEVPT2, FIC-MRCI
   Bernardo de Souza      : ESD, SOC TD-DFT
   Georgi Stoychev        : AutoAux, RI-MP2 NMR, DLPNO-MP2 response
   Willem Van den Heuvel  : Paramagnetic NMR
   Boris Wezisla          : Elementary symmetry handling
   Frank Wennmohs         : Technical directorship


 We gratefully acknowledge several colleagues who have allowed us to
 interface, adapt or use parts of their codes:
   Stefan Grimme, W. Hujo, H. Kruse, P. Pracht,  : VdW corrections, initial TS optimization,
                  C. Bannwarth, S. Ehlert          DFT functionals, gCP, sTDA/sTD-DF
   Ed Valeev, F. Pavosevic, A. Kumar             : LibInt (2-el integral package), F12 methods
   Garnet Chan, S. Sharma, J. Yang, R. Olivares  : DMRG
   Ulf Ekstrom                                   : XCFun DFT Library
   Mihaly Kallay                                 : mrcc  (arbitrary order and MRCC methods)
   Jiri Pittner, Ondrej Demel                    : Mk-CCSD
   Frank Weinhold                                : gennbo (NPA and NBO analysis)
   Christopher J. Cramer and Donald G. Truhlar   : smd solvation model
   Lars Goerigk                                  : TD-DFT with DH, B97 family of functionals
   V. Asgeirsson, H. Jonsson                     : NEB implementation
   FAccTs GmbH                                   : IRC, NEB, NEB-TS, DLPNO-Multilevel, CI-OPT
                                                   MM, QMMM, 2- and 3-layer-ONIOM, Crystal-QMMM,
                                                   LR-CPCM, SF, NACMEs, symmetry and pop. for TD-DFT,
                                                   nearIR, NL-DFT gradient (VV10), updates on ESD,
                                                   ML-optimized integration grids
   S Lehtola, MJT Oliveira, MAL Marques          : LibXC Library
   Liviu Ungur et al                             : ANISO software


 Your calculation uses the libint2 library for the computation of 2-el integrals
 For citations please refer to: http://libint.valeyev.net

 Your ORCA version has been built with support for libXC version: 5.1.0
 For citations please refer to: https://tddft.org/programs/libxc/

 This ORCA versions uses:
   CBLAS   interface :  Fast vector & matrix operations
   LAPACKE interface :  Fast linear algebra routines
   SCALAPACK package :  Parallel linear algebra routines
   Shared memory     :  Shared parallel matrices
   BLAS/LAPACK       :  OpenBLAS 0.3.15  USE64BITINT DYNAMIC_ARCH NO_AFFINITY Haswell SINGLE_THREADED
        Core in use  :  Haswell
   Copyright (c) 2011-2014, The OpenBLAS Project




***************************************
The coordinates will be read from file: 6.xyz
***************************************


================================================================================

cite the ECPs for Au [Def2-ECP] as follows:
Ce-Yb(ecp-28): M. Dolg, H. Stoll, H.Preuss, J. Chem. Phys., 1989, 90, 1730-1734.
Y-Cd(ecp-28), Hf-Hg(ecp-46): D. Andrae,U. Haeussermann, M. Dolg, H. Stoll, H. Preuss, Theor. Chim. Acta, 1990, 77, 123-141.
In-Sb(ecp-28), Tl-Bi(ecp-46): B. Metz, H. Stoll, M. Dolg, J. Chem. Phys., 2000, 113, 2563-2569.
Te-Xe(ecp-28), Po-Rn(ecp-46): K. A. Peterson, D. Figgen, E. Goll, H. Stoll, M. Dolg, J. Chem. Phys., 2003, 119, 11113-11123.
Rb(ecp-28), Cs(ecp-46): T. Leininger, A. Nicklass, W. Kuechle, H. Stoll, M. Dolg, A. Bergner, Chem. Phys. Lett., 1996, 255, 274-280.
Sr(ecp-28), Ba(ecp-46): M. Kaupp, P. V. Schleyer, H. Stoll and H. Preuss, J. Chem. Phys., 1991, 94, 1360-1366.
La(ecp-46): M. Dolg, H. Stoll, A. Savin, H. Preuss, Theor. Chim. Acta, 1989, 75, 173-194.
Lu(ecp-28): X. Cao, M. Dolg, J. Chem. Phys., 2001, 115, 7348-7355.

ECP parameters for Au [Def2-ECP] have been obtained from:
TURBOMOLE (7.0.2)

----- Orbital basis set information -----
Your calculation utilizes the basis: def2-TZVP
   F. Weigend and R. Ahlrichs, Phys. Chem. Chem. Phys. 7, 3297 (2005).

----- AuxJ basis set information -----
Your calculation utilizes the auxiliary basis: def2/J
   F. Weigend, Phys. Chem. Chem. Phys. 8, 1057 (2006).

================================================================================
                                        WARNINGS
                       Please study these warnings very carefully!
================================================================================


WARNING: your system is open-shell and RHF/RKS was chosen
  ===> : WILL SWITCH to UHF/UKS


WARNING: Geometry Optimization
  ===> : Switching off AutoStart
         For restart on a previous wavefunction, please use MOREAD

INFO   : the flag for use of the SHARK integral package has been found!

================================================================================
                                       INPUT FILE
================================================================================
NAME = pbe.inp
|  1> %pal nprocs 1 end 
|  2> 
|  3> !PBE def2-TZVP OPT UNO
|  4> !SLOWCONV KDIIS 
|  5> 
|  6> %geom maxiter 300 end
|  7> 
|  8> *xyzfile 0 3 6.xyz                           ****END OF INPUT****
================================================================================

                       *****************************
                       * Geometry Optimization Run *
                       *****************************

Geometry optimization settings:
Update method            Update   .... BFGS
Choice of coordinates    CoordSys .... Z-matrix Internals
Initial Hessian          InHess   .... Almoef's Model

Convergence Tolerances:
Energy Change            TolE     ....  5.0000e-06 Eh
Max. Gradient            TolMAXG  ....  3.0000e-04 Eh/bohr
RMS Gradient             TolRMSG  ....  1.0000e-04 Eh/bohr
Max. Displacement        TolMAXD  ....  4.0000e-03 bohr
RMS Displacement         TolRMSD  ....  2.0000e-03 bohr
Strict Convergence                ....  False
------------------------------------------------------------------------------
                        ORCA OPTIMIZATION COORDINATE SETUP
------------------------------------------------------------------------------

The optimization will be done in new redundant internal coordinates
Making redundant internal coordinates   ...  (new redundants) done
Evaluating the initial hessian          ...  (Almloef) done
Evaluating the coordinates              ...  done
Calculating the B-matrix                .... done
Calculating the G-matrix                .... done
Diagonalizing the G-matrix              .... done
The first mode is                       ....  143
The number of degrees of freedom        ....   27

    -----------------------------------------------------------------
                    Redundant Internal Coordinates


    -----------------------------------------------------------------
         Definition                    Initial Value    Approx d2E/dq
    -----------------------------------------------------------------
      1. B(Au  1,Au  0)                  2.8037         0.006721   
      2. B(Au  2,Au  1)                  2.6773         0.010693   
      3. B(Au  3,Au  1)                  2.8033         0.006731   
      4. B(Au  8,Au  6)                  2.9151         0.004463   
      5. B(Au  8,Au  4)                  2.9149         0.004467   
      6. B(Au  8,Au  7)                  2.7833         0.007243   
      7. B(Au  9,Au  8)                  2.7835         0.007240   
      8. B(Cr 10,Au  7)                  2.5622         0.118655   
      9. B(Cr 10,Au  6)                  2.6005         0.103074   
     10. B(Cr 10,Au  3)                  2.6159         0.097414   
     11. B(Cr 10,Au  5)                  2.5233         0.136860   
     12. B(Cr 10,Au  9)                  2.5624         0.118571   
     13. B(Cr 10,Au  4)                  2.6004         0.103120   
     14. B(Cr 10,Au  2)                  2.5173         0.139916   
     15. B(Cr 10,Au  8)                  3.4055         0.005356   
     16. B(Cr 10,Au  0)                  2.6157         0.097495   
     17. A(Au  1,Au  0,Cr 10)           97.2099         0.189334   
     18. A(Au  0,Au  1,Au  2)           65.9260         0.143248   
     19. A(Au  0,Au  1,Au  3)           65.1536         0.137853   
     20. A(Au  2,Au  1,Au  3)           65.9313         0.143267   
     21. A(Au  1,Au  2,Cr 10)          103.0266         0.209947   
     22. A(Au  1,Au  3,Cr 10)           97.2151         0.189350   
     23. A(Au  8,Au  4,Cr 10)           76.0237         0.181641   
     24. A(Au  8,Au  6,Cr 10)           76.0180         0.181615   
     25. A(Au  8,Au  7,Cr 10)           79.0286         0.195686   
     26. A(Au  4,Au  8,Au  6)           60.6143         0.129584   
     27. A(Au  6,Au  8,Au  7)           95.1779         0.134275   
     28. A(Au  4,Au  8,Au  7)           61.1565         0.134283   
     29. A(Au  6,Au  8,Au  9)           61.1676         0.134271   
     30. A(Au  7,Au  8,Cr 10)           47.6141         0.141916   
     31. A(Au  9,Au  8,Cr 10)           47.6177         0.141911   
     32. A(Au  6,Au  8,Cr 10)           47.8167         0.136424   
     33. A(Au  4,Au  8,Cr 10)           47.8153         0.136433   
     34. A(Au  7,Au  8,Au  9)           69.1313         0.139514   
     35. A(Au  4,Au  8,Au  9)           95.1810         0.134279   
     36. A(Au  8,Au  9,Cr 10)           79.0232         0.195659   
     37. A(Au  5,Cr 10,Au  6)           67.6750         0.314404   
     38. A(Au  4,Cr 10,Au  6)           68.8988         0.300415   
     39. A(Au  0,Cr 10,Au  5)          121.0394         0.311582   
     40. A(Au  6,Cr 10,Au  9)           68.3863         0.307203   
     41. A(Au  5,Cr 10,Au  9)          133.4443         0.321664   
     42. A(Au  3,Cr 10,Au  6)          109.4586         0.297709   
     43. A(Au  7,Cr 10,Au  9)           76.0942         0.314267   
     44. A(Au  4,Cr 10,Au  9)          109.1962         0.307225   
     45. A(Au  3,Cr 10,Au  9)           62.1604         0.304431   
     46. A(Au  2,Cr 10,Au  6)          118.3381         0.315533   
     47. A(Au  3,Cr 10,Au  4)          170.3513         0.297730   
     48. A(Au  2,Cr 10,Au  3)           71.0579         0.312655   
     49. A(Au  2,Cr 10,Au  9)          131.1124         0.322830   
     50. A(Au  0,Cr 10,Au  9)          104.1343         0.304472   
     51. A(Au  0,Cr 10,Au  6)          170.3494         0.297748   
     52. A(Au  6,Cr 10,Au  7)          109.1975         0.307238   
     53. A(Au  5,Cr 10,Au  7)          133.4378         0.321701   
     54. A(Au  4,Cr 10,Au  5)           67.6814         0.314426   
     55. A(Au  2,Cr 10,Au  4)          118.3368         0.315556   
     56. A(Au  4,Cr 10,Au  7)           68.3736         0.307259   
     57. A(Au  3,Cr 10,Au  7)          104.1387         0.304465   
     58. A(Au  3,Cr 10,Au  5)          121.0384         0.311541   
     59. A(Au  2,Cr 10,Au  7)          131.1057         0.322867   
     60. A(Au  0,Cr 10,Au  8)          114.6747         0.195891   
     61. A(Au  2,Cr 10,Au  8)          172.6687         0.204998   
     62. A(Au  3,Cr 10,Au  8)          114.6858         0.195871   
     63. A(Au  4,Cr 10,Au  8)           56.1610         0.197257   
     64. A(Au  5,Cr 10,Au  8)          110.1016         0.204420   
     65. A(Au  6,Cr 10,Au  8)           56.1653         0.197246   
     66. A(Au  7,Cr 10,Au  8)           53.3573         0.200750   
     67. A(Au  8,Cr 10,Au  9)           53.3591         0.200733   
     68. A(Au  0,Cr 10,Au  7)           62.1506         0.304506   
     69. A(Au  2,Cr 10,Au  5)           62.5671         0.330546   
     70. A(Au  0,Cr 10,Au  4)          109.4409         0.297769   
     71. A(Au  0,Cr 10,Au  3)           70.4894         0.295096   
     72. A(Au  0,Cr 10,Au  2)           71.0624         0.312698   
     73. D(Au  3,Au  1,Au  0,Cr 10)     39.5460         0.001501   
     74. D(Au  2,Au  1,Au  0,Cr 10)    -33.8731         0.001501   
     75. D(Cr 10,Au  2,Au  1,Au  0)     36.1374         0.001503   
     76. D(Cr 10,Au  2,Au  1,Au  3)    -36.1358         0.001503   
     77. D(Cr 10,Au  3,Au  1,Au  2)     33.8687         0.001501   
     78. D(Cr 10,Au  3,Au  1,Au  0)    -39.5425         0.001501   
     79. D(Au  4,Au  8,Au  7,Cr 10)     57.6378         0.001502   
     80. D(Au  7,Au  8,Au  4,Cr 10)    -57.3506         0.001501   
     81. D(Au  9,Au  8,Au  4,Cr 10)      5.3729         0.001501   
     82. D(Au  9,Au  8,Au  6,Cr 10)     57.3473         0.001501   
     83. D(Au  6,Au  8,Au  7,Cr 10)      5.4000         0.001502   
     84. D(Au  9,Au  8,Au  7,Cr 10)    -51.0429         0.001502   
     85. D(Au  4,Au  8,Au  6,Cr 10)    -58.0130         0.001501   
     86. D(Au  7,Au  8,Au  6,Cr 10)     -5.3826         0.001501   
     87. D(Au  6,Au  8,Au  4,Cr 10)     58.0150         0.001501   
     88. D(Cr 10,Au  9,Au  8,Au  7)     51.0389         0.001502   
     89. D(Cr 10,Au  9,Au  8,Au  6)    -57.6312         0.001502   
     90. D(Cr 10,Au  9,Au  8,Au  4)     -5.3898         0.001502   
     91. D(Au  5,Cr 10,Au  2,Au  1)    179.9976         0.001581   
     92. D(Au  9,Cr 10,Au  6,Au  8)    -59.5206         0.001545   
     93. D(Au  3,Cr 10,Au  2,Au  1)     37.5922         0.001581   
     94. D(Au  8,Cr 10,Au  0,Au  1)   -150.0165         0.001541   
     95. D(Au  9,Cr 10,Au  0,Au  1)    -94.1817         0.001541   
     96. D(Au  6,Cr 10,Au  9,Au  8)     63.1460         0.001559   
     97. D(Au  3,Cr 10,Au  6,Au  8)   -107.2428         0.001545   
     98. D(Au  0,Cr 10,Au  2,Au  1)    -37.6014         0.001581   
     99. D(Au  0,Cr 10,Au  7,Au  8)    168.9424         0.001559   
    100. D(Au  4,Cr 10,Au  2,Au  1)   -140.0026         0.001581   
    101. D(Au  4,Cr 10,Au  7,Au  8)    -63.1488         0.001559   
    102. D(Au  6,Cr 10,Au  2,Au  1)    140.0114         0.001581   
    103. D(Au  5,Cr 10,Au  9,Au  8)     83.4254         0.001559   
    104. D(Au  7,Cr 10,Au  4,Au  8)     59.5257         0.001545   
    105. D(Au  7,Cr 10,Au  0,Au  1)   -159.7668         0.001541   
    106. D(Au  6,Cr 10,Au  0,Au  1)   -132.4650         0.001541   
    107. D(Au  2,Cr 10,Au  4,Au  8)   -174.3373         0.001545   
    108. D(Au  5,Cr 10,Au  0,Au  1)     74.1022         0.001541   
    109. D(Au  4,Cr 10,Au  0,Au  1)    149.1739         0.001541   
    110. D(Au  9,Cr 10,Au  3,Au  1)    159.7623         0.001541   
    111. D(Au  5,Cr 10,Au  8,Au  7)    129.8126         0.001500   
    112. D(Au  5,Cr 10,Au  8,Au  6)    -42.9210         0.001500   
    113. D(Au  8,Cr 10,Au  3,Au  1)    150.0097         0.001541   
    114. D(Au  0,Cr 10,Au  4,Au  8)    107.2390         0.001545   
    115. D(Au  7,Cr 10,Au  8,Au  9)    100.3669         0.001500   
    116. D(Au  3,Cr 10,Au  4,Au  8)     19.3621         0.001545   
    117. D(Au  5,Cr 10,Au  4,Au  8)   -136.2615         0.001545   
    118. D(Au  6,Cr 10,Au  4,Au  8)    -62.6244         0.001545   
    119. D(Au  7,Cr 10,Au  3,Au  1)     94.1752         0.001541   
    120. D(Au  9,Cr 10,Au  4,Au  8)     -6.1576         0.001545   
    121. D(Au  0,Cr 10,Au  6,Au  8)    -19.2625         0.001545   
    122. D(Au  2,Cr 10,Au  6,Au  8)    174.3300         0.001545   
    123. D(Au  3,Cr 10,Au  0,Au  1)    -41.0616         0.001541   
    124. D(Au  4,Cr 10,Au  6,Au  8)     62.6189         0.001545   
    125. D(Au  5,Cr 10,Au  6,Au  8)    136.2649         0.001545   
    126. D(Au  7,Cr 10,Au  6,Au  8)      6.1691         0.001545   
    127. D(Au  6,Cr 10,Au  3,Au  1)   -149.1685         0.001541   
    128. D(Au  5,Cr 10,Au  3,Au  1)    -74.0952         0.001541   
    129. D(Au  2,Cr 10,Au  7,Au  8)   -172.5214         0.001559   
    130. D(Au  3,Cr 10,Au  7,Au  8)    110.4506         0.001559   
    131. D(Au  2,Cr 10,Au  0,Au  1)     34.9029         0.001541   
    132. D(Au  5,Cr 10,Au  7,Au  8)    -83.4292         0.001559   
    133. D(Au  6,Cr 10,Au  7,Au  8)     -6.3873         0.001559   
    134. D(Au  9,Cr 10,Au  7,Au  8)     54.4023         0.001559   
    135. D(Au  4,Cr 10,Au  3,Au  1)    132.3674         0.001541   
    136. D(Au  3,Cr 10,Au  8,Au  6)     97.6585         0.001500   
    137. D(Au  3,Cr 10,Au  8,Au  4)   -176.4938         0.001500   
    138. D(Au  2,Cr 10,Au  3,Au  1)    -34.9011         0.001541   
    139. D(Au  2,Cr 10,Au  8,Au  9)   -129.8569         0.001500   
    140. D(Au  2,Cr 10,Au  8,Au  7)    129.7761         0.001500   
    141. D(Au  0,Cr 10,Au  3,Au  1)     41.0697         0.001541   
    142. D(Au  2,Cr 10,Au  8,Au  6)    -42.9575         0.001500   
    143. D(Au  2,Cr 10,Au  8,Au  4)     42.8903         0.001500   
    144. D(Au  8,Cr 10,Au  2,Au  1)   -179.9638         0.001581   
    145. D(Au  3,Cr 10,Au  8,Au  7)    -89.6079         0.001500   
    146. D(Au  3,Cr 10,Au  8,Au  9)     10.7590         0.001500   
    147. D(Au  4,Cr 10,Au  8,Au  6)    -85.8477         0.001500   
    148. D(Au  4,Cr 10,Au  8,Au  7)     86.8858         0.001500   
    149. D(Au  4,Cr 10,Au  8,Au  9)   -172.7472         0.001500   
    150. D(Au  5,Cr 10,Au  8,Au  4)     42.9267         0.001500   
    151. D(Au  0,Cr 10,Au  8,Au  9)     89.6113         0.001500   
    152. D(Au  0,Cr 10,Au  8,Au  7)    -10.7557         0.001500   
    153. D(Au  5,Cr 10,Au  8,Au  9)   -129.8205         0.001500   
    154. D(Au  6,Cr 10,Au  8,Au  4)     85.8477         0.001500   
    155. D(Au  6,Cr 10,Au  8,Au  7)    172.7336         0.001500   
    156. D(Au  6,Cr 10,Au  8,Au  9)    -86.8995         0.001500   
    157. D(Au  7,Cr 10,Au  8,Au  4)    -86.8858         0.001500   
    158. D(Au  7,Cr 10,Au  8,Au  6)   -172.7336         0.001500   
    159. D(Au  9,Cr 10,Au  2,Au  1)     54.8757         0.001581   
    160. D(Au  9,Cr 10,Au  8,Au  4)    172.7472         0.001500   
    161. D(Au  9,Cr 10,Au  8,Au  6)     86.8995         0.001500   
    162. D(Au  9,Cr 10,Au  8,Au  7)   -100.3669         0.001500   
    163. D(Au  0,Cr 10,Au  9,Au  8)   -110.4397         0.001559   
    164. D(Au  2,Cr 10,Au  9,Au  8)    172.5295         0.001559   
    165. D(Au  3,Cr 10,Au  9,Au  8)   -168.9410         0.001559   
    166. D(Au  4,Cr 10,Au  9,Au  8)      6.3750         0.001559   
    167. D(Au  0,Cr 10,Au  8,Au  6)    176.5108         0.001500   
    168. D(Au  0,Cr 10,Au  8,Au  4)    -97.6415         0.001500   
    169. D(Au  7,Cr 10,Au  9,Au  8)    -54.4004         0.001559   
    170. D(Au  7,Cr 10,Au  2,Au  1)    -54.8890         0.001581   
    -----------------------------------------------------------------

Number of atoms                         .... 11
Number of degrees of freedom            .... 170

         *************************************************************
         *                GEOMETRY OPTIMIZATION CYCLE   1            *
         *************************************************************
---------------------------------
CARTESIAN COORDINATES (ANGSTROEM)
---------------------------------
  Au    10.928582    5.789711    8.560117
  Au    12.255846    4.886571    6.261531
  Au     9.763844    3.943964    6.525065
  Au    10.256294    6.794849    5.793905
  Au     6.769801    5.406569    9.390329
  Au     7.212422    3.781307    7.086368
  Au     6.113929    6.386038    6.694760
  Au     8.982233    7.265506    9.645841
  Au     6.496986    8.265259    8.890158
  Au     8.278567    8.317511    6.752196
  Cr     8.524932    5.889567    7.533371

----------------------------
CARTESIAN COORDINATES (A.U.)
----------------------------
  NO LB      ZA    FRAG     MASS         X           Y           Z
   0 Au   19.0000*   0   196.966   20.652026   10.940969   16.176276
   1 Au   19.0000*   0   196.966   23.160193    9.234281   11.832579
   2 Au   19.0000*   0   196.966   18.450992    7.453011   12.330585
   3 Au   19.0000*   0   196.966   19.381588   12.840403   10.948894
   4 Au   19.0000*   0   196.966   12.793070   10.216935   17.745150
   5 Au   19.0000*   0   196.966   13.629503    7.145635   13.391294
   6 Au   19.0000*   0   196.966   11.553651   12.067862   12.651264
   7 Au   19.0000*   0   196.966   16.973960   13.729817   18.227998
   8 Au   19.0000*   0   196.966   12.277524   15.619077   16.799964
   9 Au   19.0000*   0   196.966   15.644224   15.717819   12.759800
  10 Cr   24.0000    0    52.000   16.109787   11.129669   14.236008
* core charge reduced due to ECP

--------------------------------
INTERNAL COORDINATES (ANGSTROEM)
--------------------------------
 Au     0   0   0     0.000000000000     0.00000000     0.00000000
 Au     1   0   0     2.803710133732     0.00000000     0.00000000
 Au     2   1   0     2.677318204975    65.92598040     0.00000000
 Au     2   1   3     2.803284883753    65.15361488    73.41907139
 Au     1   2   3     4.258110351133   126.38539521   347.63054306
 Au     3   2   1     2.617493818006   161.85551666    36.14405247
 Au     6   3   2     2.853885913879   106.80127469    32.56466393
 Au     1   2   3     2.673020989987   148.82036045   291.64482729
 Au     8   1   2     2.783345695636   137.57784450    25.30036274
 Au     4   2   1     2.673616982720   148.81819426   354.94325134
 Cr     3   2   1     2.517331578540   103.02662457    36.13742442

---------------------------
INTERNAL COORDINATES (A.U.)
---------------------------
 Au     0   0   0     0.000000000000     0.00000000     0.00000000
 Au     1   0   0     5.298244311654     0.00000000     0.00000000
 Au     2   1   0     5.059398180764    65.92598040     0.00000000
 Au     2   1   3     5.297440705655    65.15361488    73.41907139
 Au     1   2   3     8.046662411656   126.38539521   347.63054306
 Au     3   2   1     4.946346473262   161.85551666    36.14405247
 Au     6   3   2     5.393062794687   106.80127469    32.56466393
 Au     1   2   3     5.051277621299   148.82036045   291.64482729
 Au     8   1   2     5.259761100781   137.57784450    25.30036274
 Au     4   2   1     5.052403884342   148.81819426   354.94325134
 Cr     3   2   1     4.757067271711   103.02662457    36.13742442

---------------------
BASIS SET INFORMATION
---------------------
There are 2 groups of distinct atoms

 Group   1 Type Au  : 8s7p6d1f contracted to 6s4p3d1f pattern {311111/4111/411/1}
 Group   2 Type Cr  : 17s11p7d1f contracted to 6s4p4d1f pattern {842111/6311/4111/1}

Atom   0Au   basis set group =>   1
Atom   1Au   basis set group =>   1
Atom   2Au   basis set group =>   1
Atom   3Au   basis set group =>   1
Atom   4Au   basis set group =>   1
Atom   5Au   basis set group =>   1
Atom   6Au   basis set group =>   1
Atom   7Au   basis set group =>   1
Atom   8Au   basis set group =>   1
Atom   9Au   basis set group =>   1
Atom  10Cr   basis set group =>   2
---------------------------------
AUXILIARY/J BASIS SET INFORMATION
---------------------------------
There are 2 groups of distinct atoms

 Group   1 Type Au  : 11s5p5d3f3g contracted to 8s5p5d2f3g pattern {41111111/11111/11111/21/111}
 Group   2 Type Cr  : 19s5p5d3f3g contracted to 8s5p5d2f3g pattern {121111111/11111/11111/21/111}

Atom   0Au   basis set group =>   1
Atom   1Au   basis set group =>   1
Atom   2Au   basis set group =>   1
Atom   3Au   basis set group =>   1
Atom   4Au   basis set group =>   1
Atom   5Au   basis set group =>   1
Atom   6Au   basis set group =>   1
Atom   7Au   basis set group =>   1
Atom   8Au   basis set group =>   1
Atom   9Au   basis set group =>   1
Atom  10Cr   basis set group =>   2
-------------------------
ECP PARAMETER INFORMATION
-------------------------

 Group 1, Type Au ECP Def2-ECP (replacing 60 core electrons, lmax=3)

Atom   0Au   ECP group =>   1
Atom   1Au   ECP group =>   1
Atom   2Au   ECP group =>   1
Atom   3Au   ECP group =>   1
Atom   4Au   ECP group =>   1
Atom   5Au   ECP group =>   1
Atom   6Au   ECP group =>   1
Atom   7Au   ECP group =>   1
Atom   8Au   ECP group =>   1
Atom   9Au   ECP group =>   1

------------------------------------------------------------------------------
                           ORCA GTO INTEGRAL CALCULATION
                           -- RI-GTO INTEGRALS CHOSEN --
------------------------------------------------------------------------------
------------------------------------------------------------------------------
                   ___                                                        
                  /   \      - P O W E R E D   B Y -                         
                 /     \                                                     
                 |  |  |   _    _      __       _____    __    __             
                 |  |  |  | |  | |    /  \     |  _  \  |  |  /  |          
                  \  \/   | |  | |   /    \    | | | |  |  | /  /          
                 / \  \   | |__| |  /  /\  \   | |_| |  |  |/  /          
                |  |  |   |  __  | /  /__\  \  |    /   |      \           
                |  |  |   | |  | | |   __   |  |    \   |  |\   \          
                \     /   | |  | | |  |  |  |  | |\  \  |  | \   \       
                 \___/    |_|  |_| |__|  |__|  |_| \__\ |__|  \__/        
                                                                              
                      - O R C A' S   B I G   F R I E N D -                    
                                      &                                       
                       - I N T E G R A L  F E E D E R -                       
                                                                              
 v1 FN, 2020, v2 2021                                                         
------------------------------------------------------------------------------


Reading SHARK input file pbe.SHARKINP.tmp ... ok
----------------------
SHARK INTEGRAL PACKAGE
----------------------

Number of atoms                             ...     11
Number of basis functions                   ...    445
Number of shells                            ...    155
Maximum angular momentum                    ...      3
Integral batch strategy                     ... SHARK/LIBINT Hybrid
RI-J (if used) integral strategy            ... SPLIT-RIJ (Revised 2003 algorithm where possible)
Printlevel                                  ...      1
Contraction scheme used                     ... SEGMENTED contraction
Coulomb Range Separation                    ... NOT USED
Exchange Range Separation                   ... NOT USED
Finite Nucleus Model                        ... NOT USED
Auxiliary Coulomb fitting basis             ... AVAILABLE
   # of basis functions in Aux-J            ...    979
   # of shells in Aux-J                     ...    253
   Maximum angular momentum in Aux-J        ...      4
Auxiliary J/K fitting basis                 ... NOT available
Auxiliary Correlation fitting basis         ... NOT available
Auxiliary 'external' fitting basis          ... NOT available
Integral threshold                          ...     2.500000e-11
Primitive cut-off                           ...     2.500000e-12
Primitive pair pre-selection threshold      ...     2.500000e-12

Calculating pre-screening integrals         ... done (  0.2 sec) Dimension = 155
Organizing shell pair data                  ... done (  0.8 sec)
Shell pair information
Total number of shell pairs                 ...     12090
Shell pairs after pre-screening             ...     10112
Total number of primitive shell pairs       ...     33105
Primitive shell pairs kept                  ...     20584
          la=0 lb=0:   1578 shell pairs
          la=1 lb=0:   2323 shell pairs
          la=1 lb=1:    867 shell pairs
          la=2 lb=0:   1991 shell pairs
          la=2 lb=1:   1397 shell pairs
          la=2 lb=2:    577 shell pairs
          la=3 lb=0:    555 shell pairs
          la=3 lb=1:    414 shell pairs
          la=3 lb=2:    350 shell pairs
          la=3 lb=3:     60 shell pairs

Calculating one electron integrals          ... done (  0.0 sec)
Calculating ECP integrals                   ... done (  4.8 sec)
Calculating RI/J V-Matrix + Cholesky decomp.... done (  0.0 sec)
Calculating Nuclear repulsion               ... done (  0.0 sec) ENN=   3180.960489433754 Eh

SHARK setup successfully completed in   6.2 seconds

Maximum memory used throughout the entire GTOINT-calculation: 307.0 MB
-------------------------------------------------------------------------------
                                 ORCA SCF
-------------------------------------------------------------------------------

------------
SCF SETTINGS
------------
Hamiltonian:
 Density Functional     Method          .... DFT(GTOs)
 Exchange Functional    Exchange        .... PBE
   PBE kappa parameter   XKappa         ....  0.804000
   PBE mue parameter    XMuePBE         ....  0.219520
 Correlation Functional Correlation     .... PBE
   PBE beta parameter  CBetaPBE         ....  0.066725
 LDA part of GGA corr.  LDAOpt          .... PW91-LDA
 Gradients option       PostSCFGGA      .... off
   Density functional embedding theory  .... OFF
   NL short-range parameter             ....  6.400000
 RI-approximation to the Coulomb term is turned on
   Number of AuxJ basis functions       .... 979


General Settings:
 Integral files         IntName         .... pbe
 Hartree-Fock type      HFTyp           .... UHF
 Total Charge           Charge          ....    0
 Multiplicity           Mult            ....    3
 Number of Electrons    NEL             ....  214
 Basis Dimension        Dim             ....  445
 Nuclear Repulsion      ENuc            ....   3180.9604894338 Eh

Convergence Acceleration:
 DIIS                   CNVDIIS         .... off
 Trust-Rad. Augm. Hess. CNVTRAH         .... auto
   Auto Start mean grad. ratio tolernc. ....  1.125000
   Auto Start start iteration           ....    20
   Auto Start num. interpolation iter.  ....    10
   Max. Number of Micro iterations      ....    16
   Max. Number of Macro iterations      .... Maxiter - #DIIS iter
   Number of Davidson start vectors     ....     2
   Converg. threshold I  (grad. norm)   ....   1.000e-05
   Converg. threshold II (energy diff.) ....   1.000e-08
   Grad. Scal. Fac. for Micro threshold ....   0.100
   Minimum threshold for Micro iter.    ....   0.010
   NR start threshold (gradient norm)   ....   0.001
   Initial trust radius                 ....   0.400
   Minimum AH scaling param. (alpha)    ....   1.000
   Maximum AH scaling param. (alpha)    .... 1000.000
   Orbital update algorithm             .... Taylor
   White noise on init. David. guess    .... on
   Maximum white noise                  ....   0.010
   Quad. conv. algorithm                .... NR
 SOSCF                  CNVSOSCF        .... off
 Level Shifting         CNVShift        .... off
 Zerner damping         CNVZerner       .... off
 Static damping         CNVDamp         .... off
 Fernandez-Rico         CNVRico         .... off

SCF Procedure:
 Maximum # iterations   MaxIter         ....   125
 SCF integral mode      SCFMode         .... Direct
   Integral package                     .... SHARK and LIBINT hybrid scheme
 Reset frequency        DirectResetFreq ....    20
 Integral Threshold     Thresh          ....  2.500e-11 Eh
 Primitive CutOff       TCut            ....  2.500e-12 Eh

Convergence Tolerance:
 Convergence Check Mode ConvCheckMode   .... Total+1el-Energy
 Convergence forced     ConvForced      .... 0
 Energy Change          TolE            ....  1.000e-08 Eh
 1-El. energy change                    ....  1.000e-05 Eh


Diagonalization of the overlap matrix:
Smallest eigenvalue                        ... 2.479e-04
Time for diagonalization                   ...    0.031 sec
Threshold for overlap eigenvalues          ... 1.000e-08
Number of eigenvalues below threshold      ... 0
Time for construction of square roots      ...    0.010 sec
Total time needed                          ...    0.041 sec

Time for model grid setup =    0.791 sec

------------------------------
INITIAL GUESS: MODEL POTENTIAL
------------------------------
Loading Hartree-Fock densities                     ... done
  calling /media/Programs/ORCA501/orca pbe_atom79.inp > pbe_atom79.out in order to generate an atomic fitting density for atom 0 (Au with ECP) on-the-fly... 
    atom 0 (Au), assumed electronic state with S=2: 1s2 2s2 2p6 3s2 3p6 4s2 3d10 4p6 5s2 4d10 5p6 6s1 4f14 5d10           ... done
Calculating cut-offs                               ... done
Initializing the effective Hamiltonian             ... done
Setting up the integral package (SHARK)            ... done
Starting the Coulomb interaction                   ... done (   1.1 sec)
Reading the grid                                   ... done
Mapping shells                                     ... done
Starting the XC term evaluation                    ... done (   2.0 sec)
  promolecular density results
     # of electrons  =    814.011634398
     EX              =  -3705.479026953
     EC              =    -49.446768850
     EX+EC           =  -3754.925795803
Transforming the Hamiltonian                       ... done (   0.0 sec)
Diagonalizing the Hamiltonian                      ... done (   0.0 sec)
Back transforming the eigenvectors                 ... done (   0.0 sec)
Now organizing SCF variables                       ... done
                      ------------------
                      INITIAL GUESS DONE (   4.7 sec)
                      ------------------
-------------------
DFT GRID GENERATION
-------------------

General Integration Accuracy     IntAcc      ... 4.388
Radial Grid Type                 RadialGrid  ... OptM3 with GC (2021)
Angular Grid (max. ang.)         AngularGrid ... 4 (Lebedev-302)
Angular grid pruning method      GridPruning ... 4 (adaptive)
Weight generation scheme         WeightScheme... Becke
Basis function cutoff            BFCut       ... 1.0000e-11
Integration weight cutoff        WCut        ... 1.0000e-14
Angular grids for H and He will be reduced by one unit
Partially contracted basis set               ... off
Rotationally invariant grid construction     ... off

Total number of grid points                  ...   123342
Total number of batches                      ...     1933
Average number of points per batch           ...       63
Average number of grid points per atom       ...    11213
Time for grid setup =    2.035 sec

--------------
SCF ITERATIONS
--------------
ITER       Energy         Delta-E        Max-DP      RMS-DP      [F,P]   Gradient Norm
               ***  Starting incremental Fock matrix formation  ***
                             ****Resetting KDIIS****
                             ****Turning on KDIIS(Cayley)****
  0  -2401.0295840812   0.000000000000 0.31516120  0.00176873  0.3771952   0.213696622
  1  -2401.8386832000  -0.809099118827 0.37092457  0.00144264  0.3372339   0.165015137
  2  -2402.2027393210  -0.364056120987 0.09759391  0.00121570  0.2661909   0.123361064
  3  -2402.3714543480  -0.168715026997 0.12745319  0.00150394  0.1550753   0.070448482
  4  -2402.4387563544  -0.067302006431 0.03777619  0.00047671  0.0130832   0.009175557
  5  -2402.4448216129  -0.006065258513 0.13586344  0.00055950  0.0087144   0.008158086
  6  -2402.4518921057  -0.007070492735 0.07521265  0.00034520  0.0232707   0.006329351
  7  -2402.4562481036  -0.004355997942 0.11055360  0.00039553  0.0065785   0.004506745
  8  -2402.4556718454   0.000576258259 0.08059125  0.00027413  0.0081971   0.007250511
  9  -2402.4605260032  -0.004854157893 0.02036964  0.00022311  0.0069244   0.001407469
 10  -2402.4626620684  -0.002136065186 0.00711891  0.00009798  0.0047795   0.002012040
 11  -2402.4633936042  -0.000731535735 0.02904205  0.00012368  0.0050600   0.001587673
 12  -2402.4635891281  -0.000195523937 0.02266288  0.00008914  0.0077441   0.002752253
 13  -2402.4642870122  -0.000697884067 0.01548695  0.00020891  0.0058890   0.001749473
 14  -2402.4657857918  -0.001498779617 0.01830818  0.00008881  0.0027620   0.000849841
 15  -2402.4660951268  -0.000309335056 0.01093948  0.00007136  0.0024174   0.001288035
 16  -2402.4664211452  -0.000326018316 0.00851685  0.00005096  0.0019034   0.000884142
 17  -2402.4665375821  -0.000116436912 0.00620395  0.00009007  0.0019267   0.000929370
 18  -2402.4668442877  -0.000306705663 0.00416416  0.00004063  0.0024705   0.000985310
 19  -2402.4668647612  -0.000020473462 0.00533609  0.00006165  0.0035333   0.001371451
               *** Restarting incremental Fock matrix formation ***
                             ****Resetting KDIIS****
 20  -2402.4668397424   0.000025018804 0.00124511  0.00000705  0.0015872   0.000612801
 21  -2402.4668652268  -0.000025484376 0.00101643  0.00000711  0.0013770   0.000432422

 WARNING: the maximum gradient error descreased on average only by a factor   1.1
          during the last 20 iterations

                      *** Initiating the TRAH-SCF procedure ***

                    *** KDIIS BlockDiag ( 0.051 sec) ***

TRAH GRID
---------

General Integration Accuracy     IntAcc      ... 3.467
Radial Grid Type                 RadialGrid  ... OptM3 with GC (2021)
Angular Grid (max. ang.)         AngularGrid ... 1 (Lebedev-50)
Angular grid pruning method      GridPruning ... 4 (adaptive)
Weight generation scheme         WeightScheme... Becke
Basis function cutoff            BFCut       ... 1.0000e-11
Integration weight cutoff        WCut        ... 1.0000e-14
Angular grids for H and He will be reduced by one unit
Partially contracted basis set               ... off
Rotationally invariant grid construction     ... off

Total number of grid points                  ...    53239
Total number of batches                      ...      837
Average number of points per batch           ...       63
Average number of grid points per atom       ...     4840

 --------------------------------------------------------------------------------------------
   Iter.        energy            ||Error||_2        Shift      TRadius  Mac/Mic        Rej.
 --------------------------------------------------------------------------------------------
    0      -2402.466889791354     5.412277e-03                     0.400 (TRAH MAcro)   No
WARNING : small    HOMO - LUMO gap : (op = alpha) 0.006952
    0     dE    -6.663725e-06     1.262916e-02    -6.6637e-06      0.001 (TRAH MIcro)
    0     dE    -9.898315e-05     1.485942e-02    -9.8894e-05      0.030 (TRAH MIcro)
    0     dE    -3.145734e-04     1.332751e-02    -3.1148e-04      0.100 (TRAH MIcro)
    0     dE    -3.909774e-04     5.517964e-03    -3.8505e-04      0.124 (TRAH MIcro)
    0     dE    -4.174075e-04     5.379387e-03    -4.1021e-04      0.132 (TRAH MIcro)
    0     dE    -4.320846e-04     2.147816e-03    -4.2420e-04      0.136 (TRAH MIcro)
    0     dE    -4.345527e-04     1.183603e-03    -4.2654e-04      0.137 (TRAH MIcro)
    0     dE    -4.352011e-04     5.711522e-04    -4.2713e-04      0.137 (TRAH MIcro)
    0     dE    -4.353433e-04     2.307531e-04    -4.2726e-04      0.138 (TRAH MIcro)
    1      -2402.467285156199     3.047767e-03                     0.480 (TRAH MAcro)   No
WARNING : small    HOMO - LUMO gap : (op = alpha) 0.007115
    1     dE    -2.169237e-06     1.995167e-03    -2.1692e-06      0.001 (TRAH MIcro)
    1     dE    -4.132426e-06     1.084628e-03    -4.1324e-06      0.003 (TRAH MIcro)
    1     dE    -6.069135e-06     1.181786e-03    -6.0688e-06      0.007 (TRAH MIcro)
    1     dE    -7.279484e-06     7.886459e-04    -7.2787e-06      0.010 (TRAH MIcro)
    1     dE    -7.584199e-06     3.637945e-04    -7.5832e-06      0.011 (TRAH MIcro)
    1     dE    -7.699180e-06     2.444373e-04    -7.6981e-06      0.012 (TRAH MIcro)
    2      -2402.467292950304     2.448137e-04                           (NR   MAcro)
WARNING : small    HOMO - LUMO gap : (op = alpha) 0.007157
    2     dE    -2.422394e-08     1.635336e-04                           (NR   MIcro)
    2     dE    -3.264700e-08     1.039114e-04                           (NR   MIcro)
    2     dE    -4.414720e-08     9.346282e-05                           (NR   MIcro)
    2     dE    -4.978600e-08     3.788961e-05                           (NR   MIcro)
    2     dE    -5.089369e-08     2.143677e-05                           (NR   MIcro)
    2     dE    -5.149716e-08     1.750955e-05                           (NR   MIcro)
    2     dE    -5.165472e-08     8.701819e-06                           (NR   MIcro)
    2     dE    -5.169039e-08     3.132900e-06                           (NR   MIcro)
    2     dE    -5.169475e-08     1.044409e-06                           (NR   MIcro)
    2     dE    -5.169544e-08     6.028325e-07                           (NR   MIcro)
    3      -2402.467293001995     6.646453e-07                           (NR   MAcro)
WARNING : small    HOMO - LUMO gap : (op = alpha) 0.007162
    3     dE    -3.492140e-13     4.687757e-07                           (NR   MIcro)
    4      -2402.467293001995     4.686665e-07                           (NR   MAcro)
WARNING : small    HOMO - LUMO gap : (op = alpha) 0.007162

               *****************************************************
               *                     SUCCESS                       *
               *           SCF CONVERGED AFTER  53 CYCLES          *
               *****************************************************


----------------
TOTAL SCF ENERGY
----------------

Total Energy       :        -2402.46729300 Eh          -65374.45862 eV

Components:
Nuclear Repulsion  :         3180.96048943 Eh           86558.33546 eV
Electronic Energy  :        -5583.42778244 Eh         -151932.79407 eV
One Electron Energy:       -10177.38540678 Eh         -276940.73631 eV
Two Electron Energy:         4593.95762434 Eh          125007.94224 eV

Virial components:
Potential Energy   :        -3903.12098978 Eh         -106209.32171 eV
Kinetic Energy     :         1500.65369678 Eh           40834.86309 eV
Virial Ratio       :            2.60094717


DFT components:
N(Alpha)           :      108.000006857579 electrons
N(Beta)            :      106.000001971855 electrons
N(Total)           :      214.000008829434 electrons
E(X)               :     -167.911967367773 Eh       
E(C)               :       -9.294074477115 Eh       
E(XC)              :     -177.206041844888 Eh       
DFET-embed. en.    :        0.000000000000 Eh       

---------------
SCF CONVERGENCE
---------------

  Last Energy change         ...    0.0000e+00  Tolerance :   1.0000e-08
  Last Orbital Gradient      ...    4.6867e-07  Tolerance :   1.0000e-05
  Last Orbital Rotation      ...    1.6310e-06

             **** THE GBW FILE WAS UPDATED (pbe.gbw) ****
             **** DENSITY pbe.scfp WAS UPDATED ****
             **** ENERGY FILE WAS UPDATED (pbe.en.tmp) ****
----------------------
UHF SPIN CONTAMINATION
----------------------

Warning: in a DFT calculation there is little theoretical justification to 
         calculate <S**2> as in Hartree-Fock theory. We will do it anyways
         but you should keep in mind that the values have only limited relevance

Expectation value of <S**2>     :     2.787903
Ideal value S*(S+1) for S=1.0   :     2.000000
Deviation                       :     0.787903

             **** THE GBW FILE WAS UPDATED (pbe.gbw) ****
             **** DENSITY pbe.scfp WAS UPDATED ****
----------------
ORBITAL ENERGIES
----------------
                 SPIN UP ORBITALS
  NO   OCC          E(Eh)            E(eV) 
   0   1.0000    -214.506434     -5837.0168 
   1   1.0000     -24.312207      -661.5688 
   2   1.0000     -20.679626      -562.7212 
   3   1.0000     -20.677361      -562.6596 
   4   1.0000     -20.671417      -562.4978 
   5   1.0000      -4.037129      -109.8559 
   6   1.0000      -4.027254      -109.5872 
   7   1.0000      -4.021480      -109.4300 
   8   1.0000      -4.021223      -109.4230 
   9   1.0000      -4.021194      -109.4223 
  10   1.0000      -4.020691      -109.4086 
  11   1.0000      -4.020661      -109.4078 
  12   1.0000      -4.017072      -109.3101 
  13   1.0000      -4.017015      -109.3085 
  14   1.0000      -4.011081      -109.1471 
  15   1.0000      -2.805037       -76.3289 
  16   1.0000      -2.257776       -61.4372 
  17   1.0000      -2.251887       -61.2770 
  18   1.0000      -2.246542       -61.1315 
  19   1.0000      -2.241341       -60.9900 
  20   1.0000      -2.241084       -60.9830 
  21   1.0000      -2.240515       -60.9675 
  22   1.0000      -2.239691       -60.9451 
  23   1.0000      -2.238700       -60.9181 
  24   1.0000      -2.238112       -60.9021 
  25   1.0000      -2.237885       -60.8959 
  26   1.0000      -2.236135       -60.8483 
  27   1.0000      -2.235716       -60.8369 
  28   1.0000      -2.235510       -60.8313 
  29   1.0000      -2.235214       -60.8233 
  30   1.0000      -2.233978       -60.7896 
  31   1.0000      -2.233872       -60.7868 
  32   1.0000      -2.233654       -60.7808 
  33   1.0000      -2.232102       -60.7386 
  34   1.0000      -2.231708       -60.7279 
  35   1.0000      -2.229613       -60.6709 
  36   1.0000      -2.229337       -60.6634 
  37   1.0000      -2.228186       -60.6320 
  38   1.0000      -2.227818       -60.6220 
  39   1.0000      -2.226356       -60.5822 
  40   1.0000      -2.225774       -60.5664 
  41   1.0000      -2.225504       -60.5590 
  42   1.0000      -2.225199       -60.5507 
  43   1.0000      -2.224365       -60.5281 
  44   1.0000      -2.223778       -60.5121 
  45   1.0000      -2.222643       -60.4812 
  46   1.0000      -1.799300       -48.9614 
  47   1.0000      -1.795950       -48.8703 
  48   1.0000      -1.787822       -48.6491 
  49   1.0000      -0.411064       -11.1856 
  50   1.0000      -0.382734       -10.4147 
  51   1.0000      -0.374932       -10.2024 
  52   1.0000      -0.367910       -10.0114 
  53   1.0000      -0.360734        -9.8161 
  54   1.0000      -0.359015        -9.7693 
  55   1.0000      -0.357523        -9.7287 
  56   1.0000      -0.342732        -9.3262 
  57   1.0000      -0.339661        -9.2426 
  58   1.0000      -0.337916        -9.1952 
  59   1.0000      -0.335481        -9.1289 
  60   1.0000      -0.332923        -9.0593 
  61   1.0000      -0.327152        -8.9023 
  62   1.0000      -0.325382        -8.8541 
  63   1.0000      -0.324321        -8.8252 
  64   1.0000      -0.322813        -8.7842 
  65   1.0000      -0.318953        -8.6792 
  66   1.0000      -0.317674        -8.6443 
  67   1.0000      -0.317325        -8.6349 
  68   1.0000      -0.310831        -8.4581 
  69   1.0000      -0.309446        -8.4205 
  70   1.0000      -0.302626        -8.2349 
  71   1.0000      -0.300665        -8.1815 
  72   1.0000      -0.299736        -8.1562 
  73   1.0000      -0.293789        -7.9944 
  74   1.0000      -0.293488        -7.9862 
  75   1.0000      -0.290406        -7.9024 
  76   1.0000      -0.285321        -7.7640 
  77   1.0000      -0.285153        -7.7594 
  78   1.0000      -0.281874        -7.6702 
  79   1.0000      -0.281011        -7.6467 
  80   1.0000      -0.278306        -7.5731 
  81   1.0000      -0.277002        -7.5376 
  82   1.0000      -0.272786        -7.4229 
  83   1.0000      -0.272323        -7.4103 
  84   1.0000      -0.269066        -7.3217 
  85   1.0000      -0.268604        -7.3091 
  86   1.0000      -0.267524        -7.2797 
  87   1.0000      -0.265582        -7.2269 
  88   1.0000      -0.261777        -7.1233 
  89   1.0000      -0.261667        -7.1203 
  90   1.0000      -0.260165        -7.0794 
  91   1.0000      -0.257582        -7.0092 
  92   1.0000      -0.253781        -6.9057 
  93   1.0000      -0.252157        -6.8615 
  94   1.0000      -0.251670        -6.8483 
  95   1.0000      -0.249377        -6.7859 
  96   1.0000      -0.246682        -6.7126 
  97   1.0000      -0.244925        -6.6647 
  98   1.0000      -0.242538        -6.5998 
  99   1.0000      -0.240468        -6.5435 
 100   1.0000      -0.237096        -6.4517 
 101   1.0000      -0.234660        -6.3854 
 102   1.0000      -0.222879        -6.0648 
 103   1.0000      -0.215529        -5.8648 
 104   1.0000      -0.208837        -5.6827 
 105   1.0000      -0.202799        -5.5184 
 106   1.0000      -0.199954        -5.4410 
 107   1.0000      -0.195249        -5.3130 
 108   0.0000      -0.188087        -5.1181 
 109   0.0000      -0.165183        -4.4949 
 110   0.0000      -0.152611        -4.1528 
 111   0.0000      -0.134108        -3.6493 
 112   0.0000      -0.129853        -3.5335 
 113   0.0000      -0.122178        -3.3246 
 114   0.0000      -0.094205        -2.5634 
 115   0.0000      -0.065428        -1.7804 
 116   0.0000      -0.061617        -1.6767 
 117   0.0000      -0.050538        -1.3752 
 118   0.0000      -0.040301        -1.0966 
 119   0.0000      -0.039289        -1.0691 
 120   0.0000      -0.034577        -0.9409 
 121   0.0000      -0.031809        -0.8656 
 122   0.0000      -0.018564        -0.5052 
 123   0.0000      -0.004717        -0.1284 
 124   0.0000       0.010280         0.2797 
 125   0.0000       0.022684         0.6173 
 126   0.0000       0.026294         0.7155 
 127   0.0000       0.041766         1.1365 
 128   0.0000       0.045825         1.2470 
 129   0.0000       0.050281         1.3682 
 130   0.0000       0.052859         1.4384 
 131   0.0000       0.054433         1.4812 
 132   0.0000       0.058304         1.5865 
 133   0.0000       0.060857         1.6560 
 134   0.0000       0.064834         1.7642 
 135   0.0000       0.068266         1.8576 
 136   0.0000       0.077722         2.1149 
 137   0.0000       0.079418         2.1611 
 138   0.0000       0.090269         2.4563 
 139   0.0000       0.091932         2.5016 
 140   0.0000       0.097882         2.6635 
 141   0.0000       0.104649         2.8477 
 142   0.0000       0.113451         3.0872 
 143   0.0000       0.115927         3.1545 
 144   0.0000       0.125716         3.4209 
 145   0.0000       0.132273         3.5993 
 146   0.0000       0.136976         3.7273 
 147   0.0000       0.141949         3.8626 
 148   0.0000       0.146501         3.9865 
 149   0.0000       0.150792         4.1033 
 150   0.0000       0.154516         4.2046 
 151   0.0000       0.162146         4.4122 
 152   0.0000       0.168879         4.5954 
 153   0.0000       0.168939         4.5971 
 154   0.0000       0.209082         5.6894 
 155   0.0000       0.222787         6.0623 
 156   0.0000       0.225046         6.1238 
 157   0.0000       0.230155         6.2628 
 158   0.0000       0.240140         6.5345 
 159   0.0000       0.241681         6.5765 
 160   0.0000       0.248860         6.7718 
 161   0.0000       0.252061         6.8589 
 162   0.0000       0.256524         6.9804 
 163   0.0000       0.264844         7.2068 
 164   0.0000       0.267224         7.2715 
 165   0.0000       0.273049         7.4300 
 166   0.0000       0.276985         7.5371 
 167   0.0000       0.278503         7.5784 
 168   0.0000       0.281258         7.6534 
 169   0.0000       0.285029         7.7560 
 170   0.0000       0.291238         7.9250 
 171   0.0000       0.291668         7.9367 
 172   0.0000       0.301949         8.2164 
 173   0.0000       0.309014         8.4087 
 174   0.0000       0.311696         8.4817 
 175   0.0000       0.317341         8.6353 
 176   0.0000       0.326640         8.8883 
 177   0.0000       0.328251         8.9322 
 178   0.0000       0.338767         9.2183 
 179   0.0000       0.343722         9.3532 
 180   0.0000       0.350458         9.5364 
 181   0.0000       0.355299         9.6682 
 182   0.0000       0.357312         9.7230 
 183   0.0000       0.361892         9.8476 
 184   0.0000       0.362337         9.8597 
 185   0.0000       0.371432        10.1072 
 186   0.0000       0.374585        10.1930 
 187   0.0000       0.374846        10.2001 
 188   0.0000       0.381774        10.3886 
 189   0.0000       0.386165        10.5081 
 190   0.0000       0.395885        10.7726 
 191   0.0000       0.400352        10.8941 
 192   0.0000       0.405278        11.0282 
 193   0.0000       0.421480        11.4691 
 194   0.0000       0.422289        11.4911 
 195   0.0000       0.432729        11.7752 
 196   0.0000       0.440279        11.9806 
 197   0.0000       0.444110        12.0849 
 198   0.0000       0.450301        12.2533 
 199   0.0000       0.458792        12.4844 
 200   0.0000       0.464790        12.6476 
 201   0.0000       0.468983        12.7617 
 202   0.0000       0.476502        12.9663 
 203   0.0000       0.478270        13.0144 
 204   0.0000       0.488843        13.3021 
 205   0.0000       0.493108        13.4182 
 206   0.0000       0.501400        13.6438 
 207   0.0000       0.506542        13.7837 
 208   0.0000       0.509251        13.8574 
 209   0.0000       0.514052        13.9881 
 210   0.0000       0.514781        14.0079 
 211   0.0000       0.526237        14.3196 
 212   0.0000       0.530397        14.4328 
 213   0.0000       0.534733        14.5508 
 214   0.0000       0.539114        14.6700 
 215   0.0000       0.547734        14.9046 
 216   0.0000       0.563142        15.3239 
 217   0.0000       0.563182        15.3250 
 218   0.0000       0.572587        15.5809 
 219   0.0000       0.621694        16.9172 
 220   0.0000       0.653133        17.7727 
 221   0.0000       0.679910        18.5013 
 222   0.0000       0.683832        18.6080 
 223   0.0000       0.709838        19.3157 
 224   0.0000       0.722158        19.6509 
 225   0.0000       0.735782        20.0216 
 226   0.0000       0.744120        20.2485 
 227   0.0000       0.746381        20.3101 
 228   0.0000       0.773432        21.0461 
 229   0.0000       0.775240        21.0954 
 230   0.0000       0.787285        21.4231 
 231   0.0000       0.789183        21.4748 
 232   0.0000       0.800663        21.7871 
 233   0.0000       0.823814        22.4171 
 234   0.0000       0.830408        22.5966 
 235   0.0000       0.839312        22.8389 
 236   0.0000       0.845872        23.0173 
 237   0.0000       0.857081        23.3223 
 238   0.0000       0.859173        23.3793 
 239   0.0000       0.890347        24.2276 
 240   0.0000       0.922772        25.1099 
 241   0.0000       0.928403        25.2631 
 242   0.0000       0.950261        25.8579 
 243   0.0000       0.950647        25.8684 
 244   0.0000       0.976125        26.5617 
 245   0.0000       1.030669        28.0459 
 246   0.0000       1.063967        28.9520 
 247   0.0000       1.086471        29.5644 
 248   0.0000       1.157119        31.4868 
 249   0.0000       1.198241        32.6058 
 250   0.0000       1.222109        33.2553 
 251   0.0000       1.251497        34.0550 
 252   0.0000       1.269401        34.5422 
 253   0.0000       1.271253        34.5925 
 254   0.0000       1.278352        34.7857 
 255   0.0000       1.288263        35.0554 
 256   0.0000       1.293732        35.2042 
 257   0.0000       1.297050        35.2945 
 258   0.0000       1.317986        35.8642 
 259   0.0000       1.324785        36.0492 
 260   0.0000       1.338829        36.4314 
 261   0.0000       1.351132        36.7662 
 262   0.0000       1.358246        36.9598 
 263   0.0000       1.360592        37.0236 
 264   0.0000       1.366635        37.1880 
 265   0.0000       1.372733        37.3540 
 266   0.0000       1.384258        37.6676 
 267   0.0000       1.394782        37.9540 
 268   0.0000       1.395844        37.9828 
 269   0.0000       1.401049        38.1245 
 270   0.0000       1.410239        38.3745 
 271   0.0000       1.411228        38.4015 
 272   0.0000       1.413599        38.4660 
 273   0.0000       1.428076        38.8599 
 274   0.0000       1.433522        39.0081 
 275   0.0000       1.437763        39.1235 
 276   0.0000       1.440079        39.1866 
 277   0.0000       1.440817        39.2066 
 278   0.0000       1.445103        39.3233 
 279   0.0000       1.448300        39.4103 
 280   0.0000       1.450323        39.4653 
 281   0.0000       1.456753        39.6403 
 282   0.0000       1.460273        39.7360 
 283   0.0000       1.465245        39.8713 
 284   0.0000       1.467890        39.9433 
 285   0.0000       1.473751        40.1028 
 286   0.0000       1.477233        40.1976 
 287   0.0000       1.477430        40.2029 
 288   0.0000       1.480248        40.2796 
 289   0.0000       1.482145        40.3312 
 290   0.0000       1.486635        40.4534 
 291   0.0000       1.489147        40.5218 
 292   0.0000       1.493196        40.6319 
 293   0.0000       1.493232        40.6329 
 294   0.0000       1.494959        40.6799 
 295   0.0000       1.498336        40.7718 
 296   0.0000       1.499510        40.8037 
 297   0.0000       1.500774        40.8381 
 298   0.0000       1.501871        40.8680 
 299   0.0000       1.504547        40.9408 
 300   0.0000       1.505111        40.9562 
 301   0.0000       1.508136        41.0385 
 302   0.0000       1.508368        41.0448 
 303   0.0000       1.509472        41.0748 
 304   0.0000       1.510233        41.0955 
 305   0.0000       1.513892        41.1951 
 306   0.0000       1.516028        41.2532 
 307   0.0000       1.520171        41.3660 
 308   0.0000       1.521380        41.3988 
 309   0.0000       1.523721        41.4626 
 310   0.0000       1.525010        41.4976 
 311   0.0000       1.527073        41.5538 
 312   0.0000       1.530084        41.6357 
 313   0.0000       1.531026        41.6613 
 314   0.0000       1.535097        41.7721 
 315   0.0000       1.536910        41.8214 
 316   0.0000       1.538612        41.8678 
 317   0.0000       1.541208        41.9384 
 318   0.0000       1.547719        42.1156 
 319   0.0000       1.552588        42.2481 
 320   0.0000       1.553730        42.2791 
 321   0.0000       1.555288        42.3215 
 322   0.0000       1.557959        42.3942 
 323   0.0000       1.560955        42.4757 
 324   0.0000       1.561163        42.4814 
 325   0.0000       1.565568        42.6013 
 326   0.0000       1.567732        42.6601 
 327   0.0000       1.568573        42.6830 
 328   0.0000       1.569538        42.7093 
 329   0.0000       1.570682        42.7404 
 330   0.0000       1.573190        42.8087 
 331   0.0000       1.577708        42.9316 
 332   0.0000       1.579416        42.9781 
 333   0.0000       1.587184        43.1895 
 334   0.0000       1.591975        43.3198 
 335   0.0000       1.592277        43.3281 
 336   0.0000       1.595908        43.4269 
 337   0.0000       1.598674        43.5021 
 338   0.0000       1.600682        43.5568 
 339   0.0000       1.604163        43.6515 
 340   0.0000       1.610290        43.8182 
 341   0.0000       1.619122        44.0585 
 342   0.0000       1.620800        44.1042 
 343   0.0000       1.621405        44.1207 
 344   0.0000       1.625085        44.2208 
 345   0.0000       1.634258        44.4704 
 346   0.0000       1.641878        44.6778 
 347   0.0000       1.649307        44.8799 
 348   0.0000       1.657317        45.0979 
 349   0.0000       1.663233        45.2589 
 350   0.0000       1.672133        45.5011 
 351   0.0000       1.678935        45.6861 
 352   0.0000       1.683788        45.8182 
 353   0.0000       1.704891        46.3924 
 354   0.0000       1.720779        46.8248 
 355   0.0000       1.721286        46.8386 
 356   0.0000       1.736907        47.2636 
 357   0.0000       1.752666        47.6925 
 358   0.0000       1.756918        47.8082 
 359   0.0000       1.771027        48.1921 
 360   0.0000       1.794408        48.8283 
 361   0.0000       1.796555        48.8868 
 362   0.0000       1.803612        49.0788 
 363   0.0000       1.826746        49.7083 
 364   0.0000       1.850232        50.3474 
 365   0.0000       1.870747        50.9056 
 366   0.0000       1.875019        51.0219 
 367   0.0000       1.895751        51.5860 
 368   0.0000       1.927715        52.4558 
 369   0.0000       1.947416        52.9919 
 370   0.0000       1.974507        53.7291 
 371   0.0000       2.095968        57.0342 
 372   0.0000       2.166150        58.9439 
 373   0.0000       2.190674        59.6113 
 374   0.0000       2.196145        59.7601 
 375   0.0000       2.232206        60.7414 
 376   0.0000       2.286255        62.2121 
 377   0.0000       2.311173        62.8902 
 378   0.0000       2.338554        63.6353 
 379   0.0000       2.345632        63.8279 
 380   0.0000       2.353233        64.0347 
 381   0.0000       2.371124        64.5216 
 382   0.0000       2.415716        65.7350 
 383   0.0000       2.492757        67.8314 
 384   0.0000       2.521263        68.6071 
 385   0.0000       2.544720        69.2454 
 386   0.0000       2.564859        69.7934 
 387   0.0000       2.769252        75.3552 
 388   0.0000       2.835668        77.1625 
 389   0.0000       2.836033        77.1724 
 390   0.0000       2.860914        77.8494 
 391   0.0000       2.877542        78.3019 
 392   0.0000       2.941459        80.0412 
 393   0.0000       2.949601        80.2627 
 394   0.0000       2.954261        80.3895 
 395   0.0000      23.590025       641.9172 
 396   0.0000      23.774723       646.9431 
 397   0.0000      24.009934       653.3435 
 398   0.0000      24.401341       663.9942 
 399   0.0000      24.509178       666.9286 
 400   0.0000      24.661106       671.0628 
 401   0.0000      24.804038       674.9522 
 402   0.0000      25.034457       681.2222 
 403   0.0000      25.130029       683.8229 
 404   0.0000      25.497027       693.8094 
 405   0.0000      25.611632       696.9279 
 406   0.0000      25.856835       703.6002 
 407   0.0000      25.893821       704.6067 
 408   0.0000      26.002686       707.5691 
 409   0.0000      26.058240       709.0808 
 410   0.0000      26.119972       710.7606 
 411   0.0000      26.305650       715.8131 
 412   0.0000      26.351063       717.0489 
 413   0.0000      26.369684       717.5556 
 414   0.0000      26.788037       728.9395 
 415   0.0000      27.033668       735.6235 
 416   0.0000      27.068501       736.5714 
 417   0.0000      27.419290       746.1168 
 418   0.0000      27.569813       750.2127 
 419   0.0000      27.586403       750.6642 
 420   0.0000      27.890763       758.9463 
 421   0.0000      28.114279       765.0284 
 422   0.0000      28.540133       776.6165 
 423   0.0000      29.431690       800.8770 
 424   0.0000      29.713232       808.5382 
 425   0.0000      43.901598      1194.6232 
 426   0.0000      43.950594      1195.9565 
 427   0.0000      44.006921      1197.4892 
 428   0.0000      44.007216      1197.4972 
 429   0.0000      44.055803      1198.8194 
 430   0.0000      44.078831      1199.4460 
 431   0.0000      44.121302      1200.6017 
 432   0.0000      44.135999      1201.0016 
 433   0.0000      44.143619      1201.2089 
 434   0.0000      44.189841      1202.4667 
 435   0.0000     205.094832      5580.9141 
 436   0.0000     205.112907      5581.4060 
 437   0.0000     205.130958      5581.8971 
 438   0.0000     205.138318      5582.0974 
 439   0.0000     205.156443      5582.5906 
 440   0.0000     205.171577      5583.0024 
 441   0.0000     205.183580      5583.3291 
 442   0.0000     205.184639      5583.3579 
 443   0.0000     205.191060      5583.5326 
 444   0.0000     205.214846      5584.1798 

                 SPIN DOWN ORBITALS
  NO   OCC          E(Eh)            E(eV) 
   0   1.0000    -214.506023     -5837.0056 
   1   1.0000     -24.272993      -660.5017 
   2   1.0000     -20.653329      -562.0057 
   3   1.0000     -20.648250      -561.8675 
   4   1.0000     -20.636855      -561.5574 
   5   1.0000      -4.036973      -109.8516 
   6   1.0000      -4.026740      -109.5732 
   7   1.0000      -4.021911      -109.4418 
   8   1.0000      -4.020415      -109.4010 
   9   1.0000      -4.020382      -109.4001 
  10   1.0000      -4.020035      -109.3907 
  11   1.0000      -4.020007      -109.3899 
  12   1.0000      -4.017122      -109.3115 
  13   1.0000      -4.017066      -109.3099 
  14   1.0000      -4.011675      -109.1632 
  15   1.0000      -2.700183       -73.4757 
  16   1.0000      -2.257523       -61.4303 
  17   1.0000      -2.252095       -61.2826 
  18   1.0000      -2.245563       -61.1049 
  19   1.0000      -2.240568       -60.9690 
  20   1.0000      -2.240113       -60.9566 
  21   1.0000      -2.240018       -60.9540 
  22   1.0000      -2.239709       -60.9456 
  23   1.0000      -2.238730       -60.9189 
  24   1.0000      -2.236586       -60.8606 
  25   1.0000      -2.236239       -60.8512 
  26   1.0000      -2.235744       -60.8377 
  27   1.0000      -2.235272       -60.8248 
  28   1.0000      -2.235165       -60.8219 
  29   1.0000      -2.234809       -60.8122 
  30   1.0000      -2.233890       -60.7872 
  31   1.0000      -2.233546       -60.7779 
  32   1.0000      -2.233141       -60.7669 
  33   1.0000      -2.232460       -60.7483 
  34   1.0000      -2.232010       -60.7361 
  35   1.0000      -2.229845       -60.6772 
  36   1.0000      -2.229549       -60.6691 
  37   1.0000      -2.227501       -60.6134 
  38   1.0000      -2.227078       -60.6019 
  39   1.0000      -2.225941       -60.5709 
  40   1.0000      -2.225787       -60.5667 
  41   1.0000      -2.225362       -60.5552 
  42   1.0000      -2.225356       -60.5550 
  43   1.0000      -2.224737       -60.5382 
  44   1.0000      -2.224048       -60.5194 
  45   1.0000      -2.223314       -60.4994 
  46   1.0000      -1.708035       -46.4780 
  47   1.0000      -1.695902       -46.1478 
  48   1.0000      -1.669413       -45.4270 
  49   1.0000      -0.405958       -11.0467 
  50   1.0000      -0.382587       -10.4107 
  51   1.0000      -0.372459       -10.1351 
  52   1.0000      -0.362611        -9.8671 
  53   1.0000      -0.358477        -9.7546 
  54   1.0000      -0.358050        -9.7430 
  55   1.0000      -0.354935        -9.6583 
  56   1.0000      -0.339502        -9.2383 
  57   1.0000      -0.336189        -9.1482 
  58   1.0000      -0.334165        -9.0931 
  59   1.0000      -0.330772        -9.0008 
  60   1.0000      -0.328934        -8.9507 
  61   1.0000      -0.326296        -8.8790 
  62   1.0000      -0.324505        -8.8302 
  63   1.0000      -0.323612        -8.8059 
  64   1.0000      -0.319584        -8.6963 
  65   1.0000      -0.319356        -8.6901 
  66   1.0000      -0.316692        -8.6176 
  67   1.0000      -0.315620        -8.5885 
  68   1.0000      -0.310133        -8.4392 
  69   1.0000      -0.305974        -8.3260 
  70   1.0000      -0.303701        -8.2641 
  71   1.0000      -0.300843        -8.1864 
  72   1.0000      -0.299698        -8.1552 
  73   1.0000      -0.293592        -7.9890 
  74   1.0000      -0.293224        -7.9790 
  75   1.0000      -0.290841        -7.9142 
  76   1.0000      -0.285213        -7.7611 
  77   1.0000      -0.285195        -7.7605 
  78   1.0000      -0.282093        -7.6762 
  79   1.0000      -0.281116        -7.6495 
  80   1.0000      -0.278074        -7.5668 
  81   1.0000      -0.277830        -7.5601 
  82   1.0000      -0.273007        -7.4289 
  83   1.0000      -0.271991        -7.4012 
  84   1.0000      -0.270222        -7.3531 
  85   1.0000      -0.269661        -7.3378 
  86   1.0000      -0.268331        -7.3017 
  87   1.0000      -0.266334        -7.2473 
  88   1.0000      -0.262157        -7.1337 
  89   1.0000      -0.261872        -7.1259 
  90   1.0000      -0.260553        -7.0900 
  91   1.0000      -0.258262        -7.0277 
  92   1.0000      -0.253957        -6.9105 
  93   1.0000      -0.252640        -6.8747 
  94   1.0000      -0.252097        -6.8599 
  95   1.0000      -0.250192        -6.8081 
  96   1.0000      -0.246698        -6.7130 
  97   1.0000      -0.245465        -6.6794 
  98   1.0000      -0.243612        -6.6290 
  99   1.0000      -0.240785        -6.5521 
 100   1.0000      -0.238355        -6.4860 
 101   1.0000      -0.234756        -6.3880 
 102   1.0000      -0.222026        -6.0416 
 103   1.0000      -0.212284        -5.7765 
 104   1.0000      -0.193409        -5.2629 
 105   1.0000      -0.183334        -4.9888 
 106   0.0000      -0.151548        -4.1238 
 107   0.0000      -0.146185        -3.9779 
 108   0.0000      -0.131826        -3.5872 
 109   0.0000      -0.122771        -3.3408 
 110   0.0000      -0.119501        -3.2518 
 111   0.0000      -0.114415        -3.1134 
 112   0.0000      -0.110033        -2.9942 
 113   0.0000      -0.101827        -2.7708 
 114   0.0000      -0.089629        -2.4389 
 115   0.0000      -0.061112        -1.6629 
 116   0.0000      -0.061019        -1.6604 
 117   0.0000      -0.052562        -1.4303 
 118   0.0000      -0.040802        -1.1103 
 119   0.0000      -0.038669        -1.0522 
 120   0.0000      -0.035995        -0.9795 
 121   0.0000      -0.029616        -0.8059 
 122   0.0000      -0.014640        -0.3984 
 123   0.0000      -0.006090        -0.1657 
 124   0.0000       0.010324         0.2809 
 125   0.0000       0.022301         0.6069 
 126   0.0000       0.025419         0.6917 
 127   0.0000       0.041544         1.1305 
 128   0.0000       0.043340         1.1793 
 129   0.0000       0.047727         1.2987 
 130   0.0000       0.051287         1.3956 
 131   0.0000       0.053508         1.4560 
 132   0.0000       0.055200         1.5021 
 133   0.0000       0.058212         1.5840 
 134   0.0000       0.064473         1.7544 
 135   0.0000       0.065718         1.7883 
 136   0.0000       0.074546         2.0285 
 137   0.0000       0.077133         2.0989 
 138   0.0000       0.089578         2.4375 
 139   0.0000       0.091243         2.4829 
 140   0.0000       0.096133         2.6159 
 141   0.0000       0.103687         2.8215 
 142   0.0000       0.111551         3.0354 
 143   0.0000       0.115906         3.1540 
 144   0.0000       0.124386         3.3847 
 145   0.0000       0.129245         3.5169 
 146   0.0000       0.135604         3.6900 
 147   0.0000       0.140681         3.8281 
 148   0.0000       0.147233         4.0064 
 149   0.0000       0.153326         4.1722 
 150   0.0000       0.155823         4.2402 
 151   0.0000       0.163077         4.4375 
 152   0.0000       0.167516         4.5583 
 153   0.0000       0.170445         4.6381 
 154   0.0000       0.208651         5.6777 
 155   0.0000       0.221157         6.0180 
 156   0.0000       0.223773         6.0892 
 157   0.0000       0.229711         6.2507 
 158   0.0000       0.239725         6.5233 
 159   0.0000       0.243543         6.6271 
 160   0.0000       0.246706         6.7132 
 161   0.0000       0.249940         6.8012 
 162   0.0000       0.255045         6.9401 
 163   0.0000       0.262930         7.1547 
 164   0.0000       0.264894         7.2081 
 165   0.0000       0.270376         7.3573 
 166   0.0000       0.273397         7.4395 
 167   0.0000       0.276028         7.5111 
 168   0.0000       0.282525         7.6879 
 169   0.0000       0.283957         7.7269 
 170   0.0000       0.288196         7.8422 
 171   0.0000       0.290761         7.9120 
 172   0.0000       0.301169         8.1952 
 173   0.0000       0.308109         8.3841 
 174   0.0000       0.308683         8.3997 
 175   0.0000       0.314845         8.5674 
 176   0.0000       0.323350         8.7988 
 177   0.0000       0.326204         8.8764 
 178   0.0000       0.336635         9.1603 
 179   0.0000       0.341912         9.3039 
 180   0.0000       0.347575         9.4580 
 181   0.0000       0.353223         9.6117 
 182   0.0000       0.355456         9.6724 
 183   0.0000       0.359518         9.7830 
 184   0.0000       0.362435         9.8624 
 185   0.0000       0.370263        10.0754 
 186   0.0000       0.372519        10.1367 
 187   0.0000       0.376943        10.2571 
 188   0.0000       0.380446        10.3525 
 189   0.0000       0.386034        10.5045 
 190   0.0000       0.397990        10.8299 
 191   0.0000       0.398457        10.8426 
 192   0.0000       0.406034        11.0487 
 193   0.0000       0.420885        11.4529 
 194   0.0000       0.423656        11.5283 
 195   0.0000       0.430998        11.7281 
 196   0.0000       0.440299        11.9811 
 197   0.0000       0.442215        12.0333 
 198   0.0000       0.446728        12.1561 
 199   0.0000       0.458645        12.4804 
 200   0.0000       0.462405        12.5827 
 201   0.0000       0.469082        12.7644 
 202   0.0000       0.474662        12.9162 
 203   0.0000       0.479189        13.0394 
 204   0.0000       0.487887        13.2761 
 205   0.0000       0.491705        13.3800 
 206   0.0000       0.499296        13.5865 
 207   0.0000       0.507968        13.8225 
 208   0.0000       0.509690        13.8694 
 209   0.0000       0.512578        13.9480 
 210   0.0000       0.520733        14.1699 
 211   0.0000       0.526753        14.3337 
 212   0.0000       0.533060        14.5053 
 213   0.0000       0.535533        14.5726 
 214   0.0000       0.538623        14.6567 
 215   0.0000       0.551533        15.0080 
 216   0.0000       0.563049        15.3213 
 217   0.0000       0.570161        15.5149 
 218   0.0000       0.571403        15.5487 
 219   0.0000       0.621861        16.9217 
 220   0.0000       0.654074        17.7983 
 221   0.0000       0.682142        18.5620 
 222   0.0000       0.682551        18.5732 
 223   0.0000       0.710006        19.3202 
 224   0.0000       0.722006        19.6468 
 225   0.0000       0.733872        19.9697 
 226   0.0000       0.745024        20.2731 
 227   0.0000       0.750337        20.4177 
 228   0.0000       0.771701        20.9990 
 229   0.0000       0.773084        21.0367 
 230   0.0000       0.786340        21.3974 
 231   0.0000       0.787663        21.4334 
 232   0.0000       0.802397        21.8343 
 233   0.0000       0.823253        22.4019 
 234   0.0000       0.828694        22.5499 
 235   0.0000       0.837087        22.7783 
 236   0.0000       0.845341        23.0029 
 237   0.0000       0.856192        23.2982 
 238   0.0000       0.857434        23.3320 
[...]
  61( 2) :    -0.322157 a.u.    -8.766 eV
  62( 2) :    -0.321147 a.u.    -8.739 eV
  63( 2) :    -0.316375 a.u.    -8.609 eV
  64( 2) :    -0.316337 a.u.    -8.608 eV
  65( 2) :    -0.315745 a.u.    -8.592 eV
  66( 2) :    -0.313890 a.u.    -8.541 eV
  67( 2) :    -0.313823 a.u.    -8.540 eV
  68( 2) :    -0.304522 a.u.    -8.286 eV
  69( 2) :    -0.304215 a.u.    -8.278 eV
  70( 2) :    -0.304179 a.u.    -8.277 eV
  71( 2) :    -0.301081 a.u.    -8.193 eV
  72( 2) :    -0.300971 a.u.    -8.190 eV
  73( 2) :    -0.298760 a.u.    -8.130 eV
  74( 2) :    -0.289961 a.u.    -7.890 eV
  75( 2) :    -0.289921 a.u.    -7.889 eV
  76( 2) :    -0.286375 a.u.    -7.793 eV
  77( 2) :    -0.278061 a.u.    -7.566 eV
  78( 2) :    -0.278046 a.u.    -7.566 eV
  79( 2) :    -0.277711 a.u.    -7.557 eV
  80( 2) :    -0.275109 a.u.    -7.486 eV
  81( 2) :    -0.275043 a.u.    -7.484 eV
  82( 2) :    -0.273147 a.u.    -7.433 eV
  83( 2) :    -0.268950 a.u.    -7.318 eV
  84( 2) :    -0.268922 a.u.    -7.318 eV
  85( 2) :    -0.266033 a.u.    -7.239 eV
  86( 2) :    -0.265972 a.u.    -7.237 eV
  87( 2) :    -0.264606 a.u.    -7.200 eV
  88( 2) :    -0.263405 a.u.    -7.168 eV
  89( 2) :    -0.258575 a.u.    -7.036 eV
  90( 2) :    -0.258562 a.u.    -7.036 eV
  91( 2) :    -0.255316 a.u.    -6.948 eV
  92( 2) :    -0.253870 a.u.    -6.908 eV
  93( 2) :    -0.253845 a.u.    -6.907 eV
  94( 2) :    -0.250651 a.u.    -6.821 eV
  95( 2) :    -0.250186 a.u.    -6.808 eV
  96( 2) :    -0.244270 a.u.    -6.647 eV
  97( 2) :    -0.244209 a.u.    -6.645 eV
  98( 2) :    -0.237493 a.u.    -6.463 eV
  99( 2) :    -0.237405 a.u.    -6.460 eV
 100( 2) :    -0.234614 a.u.    -6.384 eV
 101( 2) :    -0.233866 a.u.    -6.364 eV
 102( 2) :    -0.233828 a.u.    -6.363 eV
 103( 2) :    -0.196652 a.u.    -5.351 eV
 104( 2) :    -0.180905 a.u.    -4.923 eV
 105( 2) :    -0.180877 a.u.    -4.922 eV
 106( 1) :    -0.156362 a.u.    -4.255 eV alpha=   -5.648 beta=   -2.861
 107( 1) :    -0.156350 a.u.    -4.255 eV alpha=   -5.648 beta=   -2.861
 108( 0) :    -0.189385 a.u.    -5.153 eV
 109( 0) :    -0.165425 a.u.    -4.501 eV
 110( 0) :    -0.165342 a.u.    -4.499 eV
 111( 0) :    -0.129067 a.u.    -3.512 eV
 112( 0) :    -0.128957 a.u.    -3.509 eV
 113( 0) :    -0.127532 a.u.    -3.470 eV
 114( 0) :    -0.097154 a.u.    -2.644 eV
 115( 0) :    -0.060634 a.u.    -1.650 eV
 116( 0) :    -0.060562 a.u.    -1.648 eV
 117( 0) :    -0.050449 a.u.    -1.373 eV
 118( 0) :    -0.039932 a.u.    -1.087 eV
 119( 0) :    -0.039847 a.u.    -1.084 eV
 120( 0) :    -0.027433 a.u.    -0.746 eV
 121( 0) :    -0.027368 a.u.    -0.745 eV
 122( 0) :    -0.018654 a.u.    -0.508 eV
 123( 0) :    -0.010543 a.u.    -0.287 eV
 124( 0) :    -0.004479 a.u.    -0.122 eV
 125( 0) :     0.025002 a.u.     0.680 eV
 126( 0) :     0.025066 a.u.     0.682 eV
 127( 0) :     0.049132 a.u.     1.337 eV
 128( 0) :     0.049474 a.u.     1.346 eV
 129( 0) :     0.049561 a.u.     1.349 eV
 130( 0) :     0.052998 a.u.     1.442 eV
 131( 0) :     0.053063 a.u.     1.444 eV
 132( 0) :     0.059170 a.u.     1.610 eV
 133( 0) :     0.064090 a.u.     1.744 eV
 134( 0) :     0.064151 a.u.     1.746 eV
 135( 0) :     0.065800 a.u.     1.791 eV
 136( 0) :     0.077473 a.u.     2.108 eV
 137( 0) :     0.088890 a.u.     2.419 eV
 138( 0) :     0.088896 a.u.     2.419 eV
 139( 0) :     0.100213 a.u.     2.727 eV
 140( 0) :     0.100653 a.u.     2.739 eV
 141( 0) :     0.100812 a.u.     2.743 eV
 142( 0) :     0.116129 a.u.     3.160 eV
 143( 0) :     0.116177 a.u.     3.161 eV
 144( 0) :     0.135147 a.u.     3.678 eV
 145( 0) :     0.135662 a.u.     3.692 eV
 146( 0) :     0.141974 a.u.     3.863 eV
 147( 0) :     0.142796 a.u.     3.886 eV
 148( 0) :     0.142828 a.u.     3.887 eV
 149( 0) :     0.148383 a.u.     4.038 eV
 150( 0) :     0.148413 a.u.     4.039 eV
 151( 0) :     0.159890 a.u.     4.351 eV
 152( 0) :     0.163801 a.u.     4.457 eV
 153( 0) :     0.163844 a.u.     4.458 eV
 154( 0) :     0.218272 a.u.     5.939 eV
 155( 0) :     0.218352 a.u.     5.942 eV
 156( 0) :     0.229947 a.u.     6.257 eV
 157( 0) :     0.233903 a.u.     6.365 eV
 158( 0) :     0.234301 a.u.     6.376 eV
 159( 0) :     0.247334 a.u.     6.730 eV
 160( 0) :     0.255286 a.u.     6.947 eV
 161( 0) :     0.255445 a.u.     6.951 eV
 162( 0) :     0.255520 a.u.     6.953 eV
 163( 0) :     0.265913 a.u.     7.236 eV
 164( 0) :     0.267643 a.u.     7.283 eV
 165( 0) :     0.268035 a.u.     7.294 eV
 166( 0) :     0.268242 a.u.     7.299 eV
 167( 0) :     0.285629 a.u.     7.772 eV
 168( 0) :     0.285710 a.u.     7.775 eV
 169( 0) :     0.289187 a.u.     7.869 eV
 170( 0) :     0.289990 a.u.     7.891 eV
 171( 0) :     0.300165 a.u.     8.168 eV
 172( 0) :     0.300249 a.u.     8.170 eV
 173( 0) :     0.301178 a.u.     8.195 eV
 174( 0) :     0.301355 a.u.     8.200 eV
 175( 0) :     0.326262 a.u.     8.878 eV
 176( 0) :     0.326363 a.u.     8.881 eV
 177( 0) :     0.336132 a.u.     9.147 eV
 178( 0) :     0.341458 a.u.     9.292 eV
 179( 0) :     0.344037 a.u.     9.362 eV
 180( 0) :     0.344171 a.u.     9.365 eV
 181( 0) :     0.351067 a.u.     9.553 eV
 182( 0) :     0.351100 a.u.     9.554 eV
 183( 0) :     0.351118 a.u.     9.554 eV
 184( 0) :     0.365146 a.u.     9.936 eV
 185( 0) :     0.365284 a.u.     9.940 eV
 186( 0) :     0.372136 a.u.    10.126 eV
 187( 0) :     0.378146 a.u.    10.290 eV
 188( 0) :     0.378198 a.u.    10.291 eV
 189( 0) :     0.397680 a.u.    10.821 eV
 190( 0) :     0.397817 a.u.    10.825 eV
 191( 0) :     0.401259 a.u.    10.919 eV
 192( 0) :     0.412884 a.u.    11.235 eV
 193( 0) :     0.419264 a.u.    11.409 eV
 194( 0) :     0.435498 a.u.    11.851 eV
 195( 0) :     0.435588 a.u.    11.853 eV
 196( 0) :     0.444897 a.u.    12.106 eV
 197( 0) :     0.445843 a.u.    12.132 eV
 198( 0) :     0.448696 a.u.    12.210 eV
 199( 0) :     0.448747 a.u.    12.211 eV
 200( 0) :     0.456008 a.u.    12.409 eV
 201( 0) :     0.457727 a.u.    12.455 eV
 202( 0) :     0.457857 a.u.    12.459 eV
 203( 0) :     0.466333 a.u.    12.690 eV
 204( 0) :     0.466342 a.u.    12.690 eV
 205( 0) :     0.491562 a.u.    13.376 eV
 206( 0) :     0.491648 a.u.    13.378 eV
 207( 0) :     0.513581 a.u.    13.975 eV
 208( 0) :     0.517536 a.u.    14.083 eV
 209( 0) :     0.517603 a.u.    14.085 eV
 210( 0) :     0.525091 a.u.    14.288 eV
 211( 0) :     0.527634 a.u.    14.358 eV
 212( 0) :     0.527776 a.u.    14.362 eV
 213( 0) :     0.535684 a.u.    14.577 eV
 214( 0) :     0.535757 a.u.    14.579 eV
 215( 0) :     0.537561 a.u.    14.628 eV
 216( 0) :     0.553884 a.u.    15.072 eV
 217( 0) :     0.554006 a.u.    15.075 eV
 218( 0) :     0.566435 a.u.    15.413 eV
 219( 0) :     0.653693 a.u.    17.788 eV
 220( 0) :     0.657549 a.u.    17.893 eV
 221( 0) :     0.657875 a.u.    17.902 eV
 222( 0) :     0.664755 a.u.    18.089 eV
 223( 0) :     0.698291 a.u.    19.001 eV
 224( 0) :     0.707554 a.u.    19.254 eV
 225( 0) :     0.718402 a.u.    19.549 eV
 226( 0) :     0.718498 a.u.    19.551 eV
 227( 0) :     0.735564 a.u.    20.016 eV
 228( 0) :     0.735765 a.u.    20.021 eV
 229( 0) :     0.767107 a.u.    20.874 eV
 230( 0) :     0.767303 a.u.    20.879 eV
 231( 0) :     0.776894 a.u.    21.140 eV
 232( 0) :     0.777844 a.u.    21.166 eV
 233( 0) :     0.813059 a.u.    22.124 eV
 234( 0) :     0.824619 a.u.    22.439 eV
 235( 0) :     0.832931 a.u.    22.665 eV
 236( 0) :     0.834174 a.u.    22.699 eV
 237( 0) :     0.834301 a.u.    22.702 eV
 238( 0) :     0.882313 a.u.    24.009 eV
 239( 0) :     0.882473 a.u.    24.013 eV
 240( 0) :     0.902083 a.u.    24.547 eV
 241( 0) :     0.920097 a.u.    25.037 eV
 242( 0) :     0.920142 a.u.    25.038 eV
 243( 0) :     0.935905 a.u.    25.467 eV
 244( 0) :     0.936041 a.u.    25.471 eV
 245( 0) :     1.001748 a.u.    27.259 eV
 246( 0) :     1.038777 a.u.    28.267 eV
 247( 0) :     1.039021 a.u.    28.273 eV
 248( 0) :     1.117801 a.u.    30.417 eV
 249( 0) :     1.215823 a.u.    33.084 eV
 250( 0) :     1.216125 a.u.    33.092 eV
 251( 0) :     1.261850 a.u.    34.337 eV
 252( 0) :     1.270338 a.u.    34.568 eV
 253( 0) :     1.270966 a.u.    34.585 eV
 254( 0) :     1.274197 a.u.    34.673 eV
 255( 0) :     1.285663 a.u.    34.985 eV
 256( 0) :     1.287255 a.u.    35.028 eV
 257( 0) :     1.311381 a.u.    35.684 eV
 258( 0) :     1.314402 a.u.    35.767 eV
 259( 0) :     1.314420 a.u.    35.767 eV
 260( 0) :     1.346223 a.u.    36.633 eV
 261( 0) :     1.346973 a.u.    36.653 eV
 262( 0) :     1.384130 a.u.    37.664 eV
 263( 0) :     1.386085 a.u.    37.717 eV
 264( 0) :     1.386193 a.u.    37.720 eV
 265( 0) :     1.392827 a.u.    37.901 eV
 266( 0) :     1.399744 a.u.    38.089 eV
 267( 0) :     1.403082 a.u.    38.180 eV
 268( 0) :     1.403448 a.u.    38.190 eV
 269( 0) :     1.411966 a.u.    38.422 eV
 270( 0) :     1.413746 a.u.    38.470 eV
 271( 0) :     1.414178 a.u.    38.482 eV
 272( 0) :     1.431814 a.u.    38.962 eV
 273( 0) :     1.432745 a.u.    38.987 eV
 274( 0) :     1.432944 a.u.    38.992 eV
 275( 0) :     1.436563 a.u.    39.091 eV
 276( 0) :     1.442764 a.u.    39.260 eV
 277( 0) :     1.443093 a.u.    39.269 eV
 278( 0) :     1.443855 a.u.    39.289 eV
 279( 0) :     1.449162 a.u.    39.434 eV
 280( 0) :     1.451463 a.u.    39.496 eV
 281( 0) :     1.456297 a.u.    39.628 eV
 282( 0) :     1.456665 a.u.    39.638 eV
 283( 0) :     1.467917 a.u.    39.944 eV
 284( 0) :     1.468095 a.u.    39.949 eV
 285( 0) :     1.476237 a.u.    40.170 eV
 286( 0) :     1.476327 a.u.    40.173 eV
 287( 0) :     1.481301 a.u.    40.308 eV
 288( 0) :     1.481844 a.u.    40.323 eV
 289( 0) :     1.485956 a.u.    40.435 eV
 290( 0) :     1.486162 a.u.    40.441 eV
 291( 0) :     1.492239 a.u.    40.606 eV
 292( 0) :     1.493774 a.u.    40.648 eV
 293( 0) :     1.493814 a.u.    40.649 eV
 294( 0) :     1.495558 a.u.    40.696 eV
 295( 0) :     1.498889 a.u.    40.787 eV
 296( 0) :     1.499148 a.u.    40.794 eV
 297( 0) :     1.503166 a.u.    40.903 eV
 298( 0) :     1.503194 a.u.    40.904 eV
 299( 0) :     1.506299 a.u.    40.988 eV
 300( 0) :     1.510315 a.u.    41.098 eV
 301( 0) :     1.510617 a.u.    41.106 eV
 302( 0) :     1.514156 a.u.    41.202 eV
 303( 0) :     1.514310 a.u.    41.206 eV
 304( 0) :     1.516597 a.u.    41.269 eV
 305( 0) :     1.516666 a.u.    41.271 eV
 306( 0) :     1.522816 a.u.    41.438 eV
 307( 0) :     1.522869 a.u.    41.439 eV
 308( 0) :     1.523256 a.u.    41.450 eV
 309( 0) :     1.523510 a.u.    41.457 eV
 310( 0) :     1.526243 a.u.    41.531 eV
 311( 0) :     1.526367 a.u.    41.535 eV
 312( 0) :     1.530611 a.u.    41.650 eV
 313( 0) :     1.530655 a.u.    41.651 eV
 314( 0) :     1.530804 a.u.    41.655 eV
 315( 0) :     1.535669 a.u.    41.788 eV
 316( 0) :     1.543426 a.u.    41.999 eV
 317( 0) :     1.543807 a.u.    42.009 eV
 318( 0) :     1.545348 a.u.    42.051 eV
 319( 0) :     1.548207 a.u.    42.129 eV
 320( 0) :     1.548310 a.u.    42.132 eV
 321( 0) :     1.550574 a.u.    42.193 eV
 322( 0) :     1.550753 a.u.    42.198 eV
 323( 0) :     1.554112 a.u.    42.290 eV
 324( 0) :     1.555828 a.u.    42.336 eV
 325( 0) :     1.557245 a.u.    42.375 eV
 326( 0) :     1.557505 a.u.    42.382 eV
 327( 0) :     1.563450 a.u.    42.544 eV
 328( 0) :     1.563631 a.u.    42.549 eV
 329( 0) :     1.566218 a.u.    42.619 eV
 330( 0) :     1.578470 a.u.    42.952 eV
 331( 0) :     1.578503 a.u.    42.953 eV
 332( 0) :     1.581319 a.u.    43.030 eV
 333( 0) :     1.581344 a.u.    43.031 eV
 334( 0) :     1.581529 a.u.    43.036 eV
 335( 0) :     1.588132 a.u.    43.215 eV
 336( 0) :     1.592188 a.u.    43.326 eV
 337( 0) :     1.592220 a.u.    43.327 eV
 338( 0) :     1.592830 a.u.    43.343 eV
 339( 0) :     1.600079 a.u.    43.540 eV
 340( 0) :     1.605172 a.u.    43.679 eV
 341( 0) :     1.605222 a.u.    43.680 eV
 342( 0) :     1.607153 a.u.    43.733 eV
 343( 0) :     1.611477 a.u.    43.851 eV
 344( 0) :     1.611581 a.u.    43.853 eV
 345( 0) :     1.622361 a.u.    44.147 eV
 346( 0) :     1.622504 a.u.    44.151 eV
 347( 0) :     1.624477 a.u.    44.204 eV
 348( 0) :     1.635290 a.u.    44.499 eV
 349( 0) :     1.635673 a.u.    44.509 eV
 350( 0) :     1.656744 a.u.    45.082 eV
 351( 0) :     1.661462 a.u.    45.211 eV
 352( 0) :     1.661806 a.u.    45.220 eV
 353( 0) :     1.669878 a.u.    45.440 eV
 354( 0) :     1.698140 a.u.    46.209 eV
 355( 0) :     1.698355 a.u.    46.215 eV
 356( 0) :     1.737737 a.u.    47.286 eV
 357( 0) :     1.756688 a.u.    47.802 eV
 358( 0) :     1.774855 a.u.    48.296 eV
 359( 0) :     1.775051 a.u.    48.302 eV
 360( 0) :     1.800630 a.u.    48.998 eV
 361( 0) :     1.800949 a.u.    49.006 eV
 362( 0) :     1.830797 a.u.    49.819 eV
 363( 0) :     1.843527 a.u.    50.165 eV
 364( 0) :     1.843565 a.u.    50.166 eV
 365( 0) :     1.865091 a.u.    50.752 eV
 366( 0) :     1.884468 a.u.    51.279 eV
 367( 0) :     1.894112 a.u.    51.541 eV
 368( 0) :     1.894630 a.u.    51.556 eV
 369( 0) :     1.937933 a.u.    52.734 eV
 370( 0) :     1.938404 a.u.    52.747 eV
 371( 0) :     2.046937 a.u.    55.700 eV
 372( 0) :     2.206676 a.u.    60.047 eV
 373( 0) :     2.211926 a.u.    60.190 eV
 374( 0) :     2.299328 a.u.    62.568 eV
 375( 0) :     2.299669 a.u.    62.577 eV
 376( 0) :     2.305927 a.u.    62.747 eV
 377( 0) :     2.355099 a.u.    64.086 eV
 378( 0) :     2.356873 a.u.    64.134 eV
 379( 0) :     2.403177 a.u.    65.394 eV
 380( 0) :     2.403630 a.u.    65.406 eV
 381( 0) :     2.404176 a.u.    65.421 eV
 382( 0) :     2.430789 a.u.    66.145 eV
 383( 0) :     2.430996 a.u.    66.151 eV
 384( 0) :     2.475393 a.u.    67.359 eV
 385( 0) :     2.530784 a.u.    68.866 eV
 386( 0) :     2.531688 a.u.    68.891 eV
 387( 0) :     2.810852 a.u.    76.487 eV
 388( 0) :     2.819947 a.u.    76.735 eV
 389( 0) :     2.833627 a.u.    77.107 eV
 390( 0) :     2.833810 a.u.    77.112 eV
 391( 0) :     2.843730 a.u.    77.382 eV
 392( 0) :     2.897073 a.u.    78.833 eV
 393( 0) :     2.900287 a.u.    78.921 eV
 394( 0) :     2.900382 a.u.    78.923 eV
 395( 0) :    23.854416 a.u.   649.112 eV
 396( 0) :    23.855783 a.u.   649.149 eV
 397( 0) :    23.874450 a.u.   649.657 eV
 398( 0) :    24.044325 a.u.   654.279 eV
 399( 0) :    24.443255 a.u.   665.135 eV
 400( 0) :    24.488899 a.u.   666.377 eV
 401( 0) :    24.490510 a.u.   666.421 eV
 402( 0) :    24.777108 a.u.   674.219 eV
 403( 0) :    24.866744 a.u.   676.659 eV
 404( 0) :    24.871061 a.u.   676.776 eV
 405( 0) :    25.384827 a.u.   690.756 eV
 406( 0) :    25.392547 a.u.   690.966 eV
 407( 0) :    25.639393 a.u.   697.683 eV
 408( 0) :    25.641438 a.u.   697.739 eV
 409( 0) :    26.329858 a.u.   716.472 eV
 410( 0) :    26.333992 a.u.   716.584 eV
 411( 0) :    26.345425 a.u.   716.895 eV
 412( 0) :    26.465403 a.u.   720.160 eV
 413( 0) :    26.467696 a.u.   720.223 eV
 414( 0) :    26.549395 a.u.   722.446 eV
 415( 0) :    26.857818 a.u.   730.838 eV
 416( 0) :    27.193314 a.u.   739.968 eV
 417( 0) :    27.196127 a.u.   740.044 eV
 418( 0) :    27.199801 a.u.   740.144 eV
 419( 0) :    27.995911 a.u.   761.807 eV
 420( 0) :    27.998913 a.u.   761.889 eV
 421( 0) :    28.145878 a.u.   765.888 eV
 422( 0) :    28.150567 a.u.   766.016 eV
 423( 0) :    28.720796 a.u.   781.533 eV
 424( 0) :    29.175807 a.u.   793.914 eV
 425( 0) :    43.900744 a.u.  1194.600 eV
 426( 0) :    43.959241 a.u.  1196.192 eV
 427( 0) :    44.019446 a.u.  1197.830 eV
 428( 0) :    44.020194 a.u.  1197.850 eV
 429( 0) :    44.102389 a.u.  1200.087 eV
 430( 0) :    44.109578 a.u.  1200.283 eV
 431( 0) :    44.109679 a.u.  1200.285 eV
 432( 0) :    44.130462 a.u.  1200.851 eV
 433( 0) :    44.130721 a.u.  1200.858 eV
 434( 0) :    44.143096 a.u.  1201.195 eV
 435( 0) :   205.095261 a.u.  5580.926 eV
 436( 0) :   205.115227 a.u.  5581.469 eV
 437( 0) :   205.141404 a.u.  5582.181 eV
 438( 0) :   205.141710 a.u.  5582.190 eV
 439( 0) :   205.175988 a.u.  5583.122 eV
 440( 0) :   205.182123 a.u.  5583.289 eV
 441( 0) :   205.182151 a.u.  5583.290 eV
 442( 0) :   205.187760 a.u.  5583.443 eV
 443( 0) :   205.187911 a.u.  5583.447 eV
 444( 0) :   205.191890 a.u.  5583.555 eV
-------
TIMINGS
-------

Total SCF time: 0 days 0 hours 3 min 0 sec 

Total time                  ....     180.016 sec
Sum of individual times     ....     170.618 sec  ( 94.8%)

Fock matrix formation       ....     166.664 sec  ( 92.6%)
  Split-RI-J                ....      51.338 sec  ( 30.8% of F)
  XC integration            ....     105.907 sec  ( 63.5% of F)
    Basis function eval.    ....      17.664 sec  ( 16.7% of XC)
    Density eval.           ....      41.202 sec  ( 38.9% of XC)
    XC-Functional eval.     ....       2.743 sec  (  2.6% of XC)
    XC-Potential eval.      ....      34.743 sec  ( 32.8% of XC)
Diagonalization             ....       1.233 sec  (  0.7%)
Density matrix formation    ....       0.246 sec  (  0.1%)
Population analysis         ....       0.317 sec  (  0.2%)
Initial guess               ....       0.080 sec  (  0.0%)
Orbital Transformation      ....       0.259 sec  (  0.1%)
Orbital Orthonormalization  ....       0.066 sec  (  0.0%)
DIIS solution               ....       0.000 sec  (  0.0%)
Grid generation             ....       1.815 sec  (  1.0%)

Maximum memory used throughout the entire SCF-calculation: 364.6 MB

-------------------------   --------------------
FINAL SINGLE POINT ENERGY     -2402.483615293954
-------------------------   --------------------

                                *** OPTIMIZATION RUN DONE ***

                            ***************************************
                            *     ORCA property calculations      *
                            ***************************************

                                    ---------------------
                                    Active property flags
                                    ---------------------
   (+) Dipole Moment


------------------------------------------------------------------------------
                       ORCA ELECTRIC PROPERTIES CALCULATION
------------------------------------------------------------------------------

Dipole Moment Calculation                       ... on
Quadrupole Moment Calculation                   ... off
Polarizability Calculation                      ... off
GBWName                                         ... pbe.gbw
Electron density                                ... pbe.scfp
The origin for moment calculation is the CENTER OF MASS  = (16.438615, 11.458273 14.275768)

-------------
DIPOLE MOMENT
-------------
                                X             Y             Z
Electronic contribution:      5.29421      -1.45651      -1.77428
Nuclear contribution   :     -5.11346       1.40502       1.71165
                        -----------------------------------------
Total Dipole Moment    :      0.18075      -0.05150      -0.06263
                        -----------------------------------------
Magnitude (a.u.)       :      0.19810
Magnitude (Debye)      :      0.50353



--------------------
Rotational spectrum 
--------------------
 
Rotational constants in cm-1:     0.002194     0.001393     0.001392 
Rotational constants in MHz :    65.764059    41.766412    41.744833 

 Dipole components along the rotational axes: 
x,y,z [a.u.] :     0.198100    -0.000444     0.000032 
x,y,z [Debye]:     0.503530    -0.001129     0.000082 

 

Timings for individual modules:

Sum of individual times         ...    12565.573 sec (= 209.426 min)
GTO integral calculation        ...      262.997 sec (=   4.383 min)   2.1 %
SCF iterations                  ...    10250.808 sec (= 170.847 min)  81.6 %
SCF Gradient evaluation         ...     2032.654 sec (=  33.878 min)  16.2 %
Geometry relaxation             ...       19.114 sec (=   0.319 min)   0.2 %
                             ****ORCA TERMINATED NORMALLY****
TOTAL RUN TIME: 0 days 3 hours 29 minutes 48 seconds 155 msec
