
                                 *****************
                                 * O   R   C   A *
                                 *****************

                                            #,                                       
                                            ###                                      
                                            ####                                     
                                            #####                                    
                                            ######                                   
                                           ########,                                 
                                     ,,################,,,,,                         
                               ,,#################################,,                 
                          ,,##########################################,,             
                       ,#########################################, ''#####,          
                    ,#############################################,,   '####,        
                  ,##################################################,,,,####,       
                ,###########''''           ''''###############################       
              ,#####''   ,,,,##########,,,,          '''####'''          '####       
            ,##' ,,,,###########################,,,                        '##       
           ' ,,###''''                  '''############,,,                           
         ,,##''                                '''############,,,,        ,,,,,,###''
      ,#''                                            '''#######################'''  
     '                                                          ''''####''''         
             ,#######,   #######,   ,#######,      ##                                
            ,#'     '#,  ##    ##  ,#'     '#,    #''#        ######   ,####,        
            ##       ##  ##   ,#'  ##            #'  '#       #        #'  '#        
            ##       ##  #######   ##           ,######,      #####,   #    #        
            '#,     ,#'  ##    ##  '#,     ,#' ,#      #,         ##   #,  ,#        
             '#######'   ##     ##  '#######'  #'      '#     #####' # '####'        



                  #######################################################
                  #                        -***-                        #
                  #          Department of theory and spectroscopy      #
                  #    Directorship and core code : Frank Neese         #
                  #        Max Planck Institute fuer Kohlenforschung    #
                  #                Kaiser Wilhelm Platz 1               #
                  #                 D-45470 Muelheim/Ruhr               #
                  #                      Germany                        #
                  #                                                     #
                  #                  All rights reserved                #
                  #                        -***-                        #
                  #######################################################


                         Program Version 5.0.3 -  RELEASE  -


 With contributions from (in alphabetic order):
   Daniel Aravena         : Magnetic Suceptibility
   Michael Atanasov       : Ab Initio Ligand Field Theory (pilot matlab implementation)
   Alexander A. Auer      : GIAO ZORA, VPT2 properties, NMR spectrum
   Ute Becker             : Parallelization
   Giovanni Bistoni       : ED, misc. LED, open-shell LED, HFLD
   Martin Brehm           : Molecular dynamics
   Dmytro Bykov           : SCF Hessian
   Vijay G. Chilkuri      : MRCI spin determinant printing, contributions to CSF-ICE
   Dipayan Datta          : RHF DLPNO-CCSD density
   Achintya Kumar Dutta   : EOM-CC, STEOM-CC
   Dmitry Ganyushin       : Spin-Orbit,Spin-Spin,Magnetic field MRCI
   Miquel Garcia          : C-PCM and meta-GGA Hessian, CC/C-PCM, Gaussian charge scheme
   Yang Guo               : DLPNO-NEVPT2, F12-NEVPT2, CIM, IAO-localization
   Andreas Hansen         : Spin unrestricted coupled pair/coupled cluster methods
   Benjamin Helmich-Paris : MC-RPA, TRAH-SCF, COSX integrals
   Lee Huntington         : MR-EOM, pCC
   Robert Izsak           : Overlap fitted RIJCOSX, COSX-SCS-MP3, EOM
   Marcus Kettner         : VPT2
   Christian Kollmar      : KDIIS, OOCD, Brueckner-CCSD(T), CCSD density, CASPT2, CASPT2-K
   Simone Kossmann        : Meta GGA functionals, TD-DFT gradient, OOMP2, MP2 Hessian
   Martin Krupicka        : Initial AUTO-CI
   Lucas Lang             : DCDCAS
   Marvin Lechner         : AUTO-CI (C++ implementation), FIC-MRCC
   Dagmar Lenk            : GEPOL surface, SMD
   Dimitrios Liakos       : Extrapolation schemes; Compound Job, initial MDCI parallelization
   Dimitrios Manganas     : Further ROCIS development; embedding schemes
   Dimitrios Pantazis     : SARC Basis sets
   Anastasios Papadopoulos: AUTO-CI, single reference methods and gradients
   Taras Petrenko         : DFT Hessian,TD-DFT gradient, ASA, ECA, R-Raman, ABS, FL, XAS/XES, NRVS
   Peter Pinski           : DLPNO-MP2, DLPNO-MP2 Gradient
   Christoph Reimann      : Effective Core Potentials
   Marius Retegan         : Local ZFS, SOC
   Christoph Riplinger    : Optimizer, TS searches, QM/MM, DLPNO-CCSD(T), (RO)-DLPNO pert. Triples
   Tobias Risthaus        : Range-separated hybrids, TD-DFT gradient, RPA, STAB
   Michael Roemelt        : Original ROCIS implementation
   Masaaki Saitow         : Open-shell DLPNO-CCSD energy and density
   Barbara Sandhoefer     : DKH picture change effects
   Avijit Sen             : IP-ROCIS
   Kantharuban Sivalingam : CASSCF convergence, NEVPT2, FIC-MRCI
   Bernardo de Souza      : ESD, SOC TD-DFT
   Georgi Stoychev        : AutoAux, RI-MP2 NMR, DLPNO-MP2 response
   Willem Van den Heuvel  : Paramagnetic NMR
   Boris Wezisla          : Elementary symmetry handling
   Frank Wennmohs         : Technical directorship


 We gratefully acknowledge several colleagues who have allowed us to
 interface, adapt or use parts of their codes:
   Stefan Grimme, W. Hujo, H. Kruse, P. Pracht,  : VdW corrections, initial TS optimization,
                  C. Bannwarth, S. Ehlert          DFT functionals, gCP, sTDA/sTD-DF
   Ed Valeev, F. Pavosevic, A. Kumar             : LibInt (2-el integral package), F12 methods
   Garnet Chan, S. Sharma, J. Yang, R. Olivares  : DMRG
   Ulf Ekstrom                                   : XCFun DFT Library
   Mihaly Kallay                                 : mrcc  (arbitrary order and MRCC methods)
   Jiri Pittner, Ondrej Demel                    : Mk-CCSD
   Frank Weinhold                                : gennbo (NPA and NBO analysis)
   Christopher J. Cramer and Donald G. Truhlar   : smd solvation model
   Lars Goerigk                                  : TD-DFT with DH, B97 family of functionals
   V. Asgeirsson, H. Jonsson                     : NEB implementation
   FAccTs GmbH                                   : IRC, NEB, NEB-TS, DLPNO-Multilevel, CI-OPT
                                                   MM, QMMM, 2- and 3-layer-ONIOM, Crystal-QMMM,
                                                   LR-CPCM, SF, NACMEs, symmetry and pop. for TD-DFT,
                                                   nearIR, NL-DFT gradient (VV10), updates on ESD,
                                                   ML-optimized integration grids
   S Lehtola, MJT Oliveira, MAL Marques          : LibXC Library
   Liviu Ungur et al                             : ANISO software


 Your calculation uses the libint2 library for the computation of 2-el integrals
 For citations please refer to: http://libint.valeyev.net

 Your ORCA version has been built with support for libXC version: 5.1.0
 For citations please refer to: https://tddft.org/programs/libxc/

 This ORCA versions uses:
   CBLAS   interface :  Fast vector & matrix operations
   LAPACKE interface :  Fast linear algebra routines
   SCALAPACK package :  Parallel linear algebra routines
   Shared memory     :  Shared parallel matrices
   BLAS/LAPACK       :  OpenBLAS 0.3.15  USE64BITINT DYNAMIC_ARCH NO_AFFINITY Sandybridge SINGLE_THREADED
        Core in use  :  Sandybridge
   Copyright (c) 2011-2014, The OpenBLAS Project




***************************************
The coordinates will be read from file: 1.xyz
***************************************


================================================================================

cite the ECPs for Au [Def2-ECP] as follows:
Ce-Yb(ecp-28): M. Dolg, H. Stoll, H.Preuss, J. Chem. Phys., 1989, 90, 1730-1734.
Y-Cd(ecp-28), Hf-Hg(ecp-46): D. Andrae,U. Haeussermann, M. Dolg, H. Stoll, H. Preuss, Theor. Chim. Acta, 1990, 77, 123-141.
In-Sb(ecp-28), Tl-Bi(ecp-46): B. Metz, H. Stoll, M. Dolg, J. Chem. Phys., 2000, 113, 2563-2569.
Te-Xe(ecp-28), Po-Rn(ecp-46): K. A. Peterson, D. Figgen, E. Goll, H. Stoll, M. Dolg, J. Chem. Phys., 2003, 119, 11113-11123.
Rb(ecp-28), Cs(ecp-46): T. Leininger, A. Nicklass, W. Kuechle, H. Stoll, M. Dolg, A. Bergner, Chem. Phys. Lett., 1996, 255, 274-280.
Sr(ecp-28), Ba(ecp-46): M. Kaupp, P. V. Schleyer, H. Stoll and H. Preuss, J. Chem. Phys., 1991, 94, 1360-1366.
La(ecp-46): M. Dolg, H. Stoll, A. Savin, H. Preuss, Theor. Chim. Acta, 1989, 75, 173-194.
Lu(ecp-28): X. Cao, M. Dolg, J. Chem. Phys., 2001, 115, 7348-7355.

ECP parameters for Au [Def2-ECP] have been obtained from:
TURBOMOLE (7.0.2)

----- Orbital basis set information -----
Your calculation utilizes the basis: def2-TZVP
   F. Weigend and R. Ahlrichs, Phys. Chem. Chem. Phys. 7, 3297 (2005).

----- AuxJ basis set information -----
Your calculation utilizes the auxiliary basis: def2/J
   F. Weigend, Phys. Chem. Chem. Phys. 8, 1057 (2006).

================================================================================
                                        WARNINGS
                       Please study these warnings very carefully!
================================================================================


WARNING: your system is open-shell and RHF/RKS was chosen
  ===> : WILL SWITCH to UHF/UKS


WARNING: Geometry Optimization
  ===> : Switching off AutoStart
         For restart on a previous wavefunction, please use MOREAD

INFO   : the flag for use of the SHARK integral package has been found!

================================================================================
                                       INPUT FILE
================================================================================
NAME = pbe.inp
|  1> %pal nprocs 1 end 
|  2> 
|  3> !PBE def2-TZVP OPT UNO
|  4> !SLOWCONV KDIIS 
|  5> 
|  6> %geom maxiter 300 end
|  7> 
|  8> *xyzfile 0 4 1.xyz                           ****END OF INPUT****
================================================================================

                       *****************************
                       * Geometry Optimization Run *
                       *****************************

Geometry optimization settings:
Update method            Update   .... BFGS
Choice of coordinates    CoordSys .... Z-matrix Internals
Initial Hessian          InHess   .... Almoef's Model

Convergence Tolerances:
Energy Change            TolE     ....  5.0000e-06 Eh
Max. Gradient            TolMAXG  ....  3.0000e-04 Eh/bohr
RMS Gradient             TolRMSG  ....  1.0000e-04 Eh/bohr
Max. Displacement        TolMAXD  ....  4.0000e-03 bohr
RMS Displacement         TolRMSD  ....  2.0000e-03 bohr
Strict Convergence                ....  False
------------------------------------------------------------------------------
                        ORCA OPTIMIZATION COORDINATE SETUP
------------------------------------------------------------------------------

The optimization will be done in new redundant internal coordinates
Making redundant internal coordinates   ...  (new redundants) done
Evaluating the initial hessian          ...  (Almloef) done
Evaluating the coordinates              ...  done
Calculating the B-matrix                .... done
Calculating the G-matrix                .... done
Diagonalizing the G-matrix              .... done
The first mode is                       ....  326
The number of degrees of freedom        ....   33

    -----------------------------------------------------------------
                    Redundant Internal Coordinates


    -----------------------------------------------------------------
         Definition                    Initial Value    Approx d2E/dq
    -----------------------------------------------------------------
      1. B(Au  2,Au  1)                  2.8788         0.005101   
      2. B(Au  3,Au  2)                  2.8081         0.006613   
      3. B(Au  3,Au  1)                  2.8804         0.005071   
      4. B(Au  4,Au  3)                  2.7297         0.008820   
      5. B(Au  5,Au  2)                  2.8806         0.005067   
      6. B(Au  5,Au  3)                  2.8791         0.005094   
      7. B(Au  7,Au  6)                  2.8865         0.004958   
      8. B(Au  8,Au  6)                  2.8851         0.004984   
      9. B(Au  8,Au  7)                  2.8275         0.006159   
     10. B(Au  8,Au  0)                  2.7454         0.008327   
     11. B(Au  9,Au  8)                  2.8873         0.004945   
     12. B(Au  9,Au  7)                  2.8844         0.004997   
     13. B(Au 10,Au  7)                  2.7462         0.008302   
     14. B(Au 11,Au  2)                  2.7296         0.008824   
     15. B(Mn 12,Au 10)                  2.5505         0.123881   
     16. B(Mn 12,Au  7)                  3.5628         0.003005   
     17. B(Mn 12,Au  9)                  2.5198         0.138666   
     18. B(Mn 12,Au  4)                  2.5163         0.140445   
     19. B(Mn 12,Au  6)                  2.5197         0.138685   
     20. B(Mn 12,Au  8)                  3.5590         0.003048   
     21. B(Mn 12,Au 11)                  2.5163         0.140444   
     22. B(Mn 12,Au  5)                  2.6789         0.077275   
     23. B(Mn 12,Au  1)                  2.6798         0.077023   
     24. B(Mn 12,Au  0)                  2.5498         0.124186   
     25. A(Au  8,Au  0,Mn 12)           84.3758         0.200250   
     26. A(Au  2,Au  1,Au  3)           58.3642         0.132045   
     27. A(Au  3,Au  1,Mn 12)           87.5816         0.178244   
     28. A(Au  2,Au  1,Mn 12)           87.6119         0.178364   
     29. A(Au  1,Au  2,Au 11)           67.2151         0.137796   
     30. A(Au  1,Au  2,Au  5)           81.3428         0.132038   
     31. A(Au  3,Au  2,Au 11)          109.2801         0.140750   
     32. A(Au  3,Au  2,Au  5)           60.7945         0.134644   
     33. A(Au  1,Au  2,Au  3)           60.8467         0.134712   
     34. A(Au  5,Au  2,Au 11)           67.1952         0.137723   
     35. A(Au  1,Au  3,Au  4)           67.1707         0.137726   
     36. A(Au  1,Au  3,Au  5)           81.3405         0.132033   
     37. A(Au  2,Au  3,Au  4)          109.2749         0.140745   
     38. A(Au  4,Au  3,Au  5)           67.2354         0.137778   
     39. A(Au  1,Au  3,Au  2)           60.7892         0.134651   
     40. A(Au  2,Au  3,Au  5)           60.8472         0.134700   
     41. A(Au  3,Au  4,Mn 12)           94.3569         0.204889   
     42. A(Au  2,Au  5,Mn 12)           87.5916         0.178296   
     43. A(Au  2,Au  5,Au  3)           58.3584         0.132027   
     44. A(Au  3,Au  5,Mn 12)           87.6249         0.178405   
     45. A(Au  7,Au  6,Au  8)           58.6674         0.131603   
     46. A(Au  8,Au  6,Mn 12)           82.0682         0.190555   
     47. A(Au  7,Au  6,Mn 12)           82.1473         0.190432   
     48. A(Au  8,Au  7,Mn 12)           66.5368         0.133754   
     49. A(Au  9,Au  7,Mn 12)           44.4815         0.131686   
     50. A(Au  6,Au  7,Mn 12)           44.4749         0.131610   
     51. A(Au  6,Au  7,Au  9)           83.1832         0.131628   
     52. A(Au  8,Au  7,Au 10)          111.9758         0.139224   
     53. A(Au  9,Au  7,Au 10)           69.9257         0.136903   
     54. A(Au  8,Au  7,Au  9)           60.7169         0.133773   
     55. A(Au  6,Au  7,Au  8)           60.6405         0.133693   
     56. A(Au 10,Au  7,Mn 12)           45.4393         0.136883   
     57. A(Au  6,Au  7,Au 10)           70.2052         0.136818   
     58. A(Au  6,Au  8,Au  9)           83.1586         0.131578   
     59. A(Au  0,Au  8,Au  9)           70.3757         0.136823   
     60. A(Au  0,Au  8,Mn 12)           45.4786         0.137070   
     61. A(Au  0,Au  8,Au  6)           70.0454         0.136910   
     62. A(Au  7,Au  8,Mn 12)           66.6795         0.133897   
     63. A(Au  7,Au  8,Au  9)           60.6160         0.133667   
     64. A(Au  6,Au  8,Au  7)           60.6921         0.133747   
     65. A(Au  0,Au  8,Au  7)          112.1576         0.139260   
     66. A(Au  9,Au  8,Mn 12)           44.5195         0.131720   
     67. A(Au  6,Au  8,Mn 12)           44.5248         0.131798   
     68. A(Au  8,Au  9,Mn 12)           82.0237         0.190369   
     69. A(Au  7,Au  9,Au  8)           58.6671         0.131602   
     70. A(Au  7,Au  9,Mn 12)           82.1901         0.190610   
     71. A(Au  7,Au 10,Mn 12)           84.4581         0.200110   
     72. A(Au  2,Au 11,Mn 12)           94.3568         0.204901   
     73. A(Au  8,Mn 12,Au 11)          111.5208         0.191185   
     74. A(Au  8,Mn 12,Au  9)           53.4568         0.190891   
     75. A(Au  6,Mn 12,Au  9)           98.9571         0.330780   
     76. A(Au  5,Mn 12,Au  8)          158.9094         0.178261   
     77. A(Au  4,Mn 12,Au  8)          111.6382         0.191186   
     78. A(Au  1,Mn 12,Au  8)          112.1649         0.178195   
     79. A(Au 10,Mn 12,Au 11)           96.5357         0.325361   
     80. A(Au  5,Mn 12,Au  9)          117.4134         0.300803   
     81. A(Au  0,Mn 12,Au  6)           79.2535         0.324819   
     82. A(Au  6,Mn 12,Au  8)           53.4070         0.190894   
     83. A(Au  0,Mn 12,Au  8)           50.1456         0.188379   
     84. A(Au  8,Mn 12,Au 10)           96.8861         0.188324   
     85. A(Au  9,Mn 12,Au 11)           64.1573         0.331470   
     86. A(Au  6,Mn 12,Au 11)          163.1135         0.331478   
     87. A(Au  4,Mn 12,Au  9)          163.1105         0.331471   
     88. A(Au  5,Mn 12,Au 11)           73.3848         0.301414   
     89. A(Au  4,Mn 12,Au 11)          132.7311         0.332171   
     90. A(Au  1,Mn 12,Au  9)          117.8416         0.300646   
     91. A(Au  4,Mn 12,Au  5)           73.4079         0.301415   
     92. A(Au  1,Mn 12,Au  4)           73.3407         0.301258   
     93. A(Au  1,Mn 12,Au 11)           73.3624         0.301257   
     94. A(Au  7,Mn 12,Au 11)          111.6593         0.190860   
     95. A(Au  0,Mn 12,Au 11)           96.5639         0.325493   
     96. A(Au  0,Mn 12,Au  9)           79.6812         0.324812   
     97. A(Au  7,Mn 12,Au  9)           53.3284         0.190567   
     98. A(Au  5,Mn 12,Au  7)          112.1259         0.177977   
     99. A(Au  9,Mn 12,Au 10)           79.1005         0.324680   
    100. A(Au  1,Mn 12,Au  7)          158.9484         0.177911   
    101. A(Au  0,Mn 12,Au  7)           96.9290         0.188063   
    102. A(Au  6,Mn 12,Au 10)           79.4688         0.324688   
    103. A(Au  5,Mn 12,Au  6)          117.6951         0.300810   
    104. A(Au  1,Mn 12,Au  5)           88.9256         0.274411   
    105. A(Au  5,Mn 12,Au 10)           62.0233         0.295466   
    106. A(Au  4,Mn 12,Au  7)          111.5387         0.190860   
    107. A(Au  4,Mn 12,Au 10)           96.5887         0.325362   
    108. A(Au  6,Mn 12,Au  7)           53.3777         0.190570   
    109. A(Au  4,Mn 12,Au  6)           64.1551         0.331479   
    110. A(Au  7,Mn 12,Au 10)           50.1026         0.188008   
    111. A(Au  1,Mn 12,Au 10)          150.9490         0.295314   
    112. A(Au  7,Mn 12,Au  8)           46.7838         0.131804   
    113. A(Au  0,Mn 12,Au 10)          147.0316         0.318870   
    114. A(Au  1,Mn 12,Au  6)          117.5590         0.300653   
    115. A(Au  0,Mn 12,Au  5)          150.9450         0.295581   
    116. A(Au  0,Mn 12,Au  4)           96.4391         0.325493   
    117. A(Au  0,Mn 12,Au  1)           62.0194         0.295429   
    118. D(Au  5,Au  2,Au  1,Mn 12)     27.3303         0.001501   
    119. D(Au  5,Au  2,Au  1,Au  3)    -61.2995         0.001501   
    120. D(Au 11,Au  2,Au  1,Au  3)   -130.1202         0.001501   
    121. D(Au  3,Au  2,Au  1,Mn 12)     88.6298         0.001501   
    122. D(Au 11,Au  2,Au  1,Mn 12)    -41.4905         0.001501   
    123. D(Au  1,Au  3,Au  2,Au 11)     48.3235         0.001501   
    124. D(Au  2,Au  3,Au  1,Mn 12)    -88.6841         0.001501   
    125. D(Au  5,Au  3,Au  2,Au 11)    -48.2434         0.001501   
    126. D(Au  4,Au  3,Au  1,Au  2)    130.2191         0.001501   
    127. D(Au  4,Au  3,Au  2,Au 11)      0.1165         0.001501   
    128. D(Au  1,Au  3,Au  2,Au  5)     96.5668         0.001501   
    129. D(Au  5,Au  3,Au  2,Au  1)    -96.5668         0.001501   
    130. D(Au  4,Au  3,Au  2,Au  5)     48.3599         0.001501   
    131. D(Au  5,Au  3,Au  1,Au  2)     61.3539         0.001501   
    132. D(Au  4,Au  3,Au  1,Mn 12)     41.5350         0.001501   
    133. D(Au  4,Au  3,Au  2,Au  1)    -48.2070         0.001501   
    134. D(Au  5,Au  3,Au  1,Mn 12)    -27.3302         0.001501   
    135. D(Mn 12,Au  4,Au  3,Au  1)    -45.0387         0.001502   
    136. D(Mn 12,Au  4,Au  3,Au  5)     44.9322         0.001502   
    137. D(Mn 12,Au  4,Au  3,Au  2)     -0.1240         0.001502   
    138. D(Mn 12,Au  5,Au  2,Au  1)    -27.3406         0.001501   
    139. D(Mn 12,Au  5,Au  3,Au  2)     88.6338         0.001501   
    140. D(Mn 12,Au  5,Au  3,Au  4)    -41.4560         0.001501   
    141. D(Mn 12,Au  5,Au  3,Au  1)     27.3391         0.001501   
    142. D(Au  2,Au  5,Au  3,Au  4)   -130.0897         0.001501   
    143. D(Au  3,Au  5,Au  2,Au 11)    130.1950         0.001501   
    144. D(Mn 12,Au  5,Au  2,Au 11)     41.5017         0.001501   
    145. D(Mn 12,Au  5,Au  2,Au  3)    -88.6933         0.001501   
    146. D(Au  2,Au  5,Au  3,Au  1)    -61.2947         0.001501   
    147. D(Au  3,Au  5,Au  2,Au  1)     61.3528         0.001501   
    148. D(Au  8,Au  7,Au  6,Mn 12)     85.4620         0.001501   
    149. D(Au 10,Au  7,Au  6,Au  8)   -131.2080         0.001501   
    150. D(Au 10,Au  7,Au  6,Mn 12)    -45.7460         0.001501   
    151. D(Mn 12,Au  7,Au  6,Au  8)    -85.4620         0.001501   
    152. D(Au  9,Au  7,Au  6,Mn 12)     25.3268         0.001501   
    153. D(Au  9,Au  7,Au  6,Au  8)    -60.1351         0.001501   
    154. D(Au  7,Au  8,Au  6,Mn 12)    -85.6024         0.001501   
    155. D(Mn 12,Au  8,Au  7,Au  6)    -49.5836         0.001501   
    156. D(Au  0,Au  8,Au  7,Au  6)    -49.3696         0.001501   
    157. D(Au  0,Au  8,Au  7,Au 10)      0.3891         0.001501   
    158. D(Au  6,Au  8,Au  7,Mn 12)     49.5836         0.001501   
    159. D(Mn 12,Au  8,Au  7,Au 10)      0.1751         0.001501   
    160. D(Au  6,Au  8,Au  7,Au 10)     49.7587         0.001501   
    161. D(Mn 12,Au  8,Au  6,Au  7)     85.6024         0.001501   
    162. D(Au  7,Au  8,Au  0,Mn 12)     -0.2756         0.001502   
    163. D(Mn 12,Au  8,Au  7,Au  9)     49.5842         0.001501   
    164. D(Au  0,Au  8,Au  6,Mn 12)     45.9997         0.001501   
    165. D(Au  6,Au  8,Au  0,Mn 12)    -45.0287         0.001502   
    166. D(Au  9,Au  8,Au  6,Au  7)     60.0417         0.001501   
    167. D(Au  9,Au  8,Au  0,Mn 12)     44.6798         0.001502   
    168. D(Au  0,Au  8,Au  7,Au  9)     49.7981         0.001501   
    169. D(Au  9,Au  8,Au  6,Mn 12)    -25.5607         0.001501   
    170. D(Au  0,Au  8,Au  6,Au  7)    131.6021         0.001501   
    171. D(Au  6,Au  8,Au  7,Au  9)     99.1678         0.001501   
    172. D(Au  0,Au  8,Au  7,Mn 12)      0.2140         0.001501   
    173. D(Au  9,Au  8,Au  7,Au  6)    -99.1678         0.001501   
    174. D(Au  9,Au  8,Au  7,Mn 12)    -49.5842         0.001501   
    175. D(Au  9,Au  8,Au  7,Au 10)    -49.4090         0.001501   
    176. D(Mn 12,Au  9,Au  7,Au  8)    -85.3842         0.001501   
    177. D(Au  8,Au  9,Au  7,Au  6)     60.0605         0.001501   
    178. D(Mn 12,Au  9,Au  7,Au 10)     46.0473         0.001501   
    179. D(Au  8,Au  9,Au  7,Au 10)    131.4315         0.001501   
    180. D(Au  7,Au  9,Au  8,Mn 12)    -85.6793         0.001501   
    181. D(Au  7,Au  9,Au  8,Au  6)    -60.1161         0.001501   
    182. D(Au  7,Au  9,Au  8,Au  0)   -131.3237         0.001501   
    183. D(Mn 12,Au  9,Au  8,Au  7)     85.6793         0.001501   
    184. D(Mn 12,Au  9,Au  8,Au  6)     25.5632         0.001501   
    185. D(Mn 12,Au  9,Au  7,Au  6)    -25.3237         0.001501   
    186. D(Mn 12,Au  9,Au  8,Au  0)    -45.6444         0.001501   
    187. D(Au  8,Au  9,Au  7,Mn 12)     85.3842         0.001501   
    188. D(Mn 12,Au 10,Au  7,Au  9)    -45.0693         0.001502   
    189. D(Mn 12,Au 10,Au  7,Au  8)     -0.2255         0.001502   
    190. D(Mn 12,Au 10,Au  7,Au  6)     44.7714         0.001502   
    191. D(Mn 12,Au 11,Au  2,Au  3)     -0.0425         0.001502   
    192. D(Mn 12,Au 11,Au  2,Au  5)    -44.9823         0.001502   
    193. D(Mn 12,Au 11,Au  2,Au  1)     44.9895         0.001502   
    194. D(Au  8,Mn 12,Au  5,Au  2)   -150.6158         0.001529   
    195. D(Au 11,Mn 12,Au  5,Au  3)   -102.1626         0.001529   
    196. D(Au 11,Mn 12,Au  5,Au  2)    -43.7484         0.001529   
    197. D(Au 10,Mn 12,Au  5,Au  2)   -150.7864         0.001529   
    198. D(Au  8,Mn 12,Au 11,Au  2)   -154.7375         0.001585   
    199. D(Au 10,Mn 12,Au 11,Au  2)    105.1896         0.001585   
    200. D(Au  9,Mn 12,Au  5,Au  2)    -91.8969         0.001529   
    201. D(Au  6,Mn 12,Au  5,Au  2)    150.0478         0.001529   
    202. D(Au 11,Mn 12,Au 10,Au  7)    112.8581         0.001567   
    203. D(Au  4,Mn 12,Au  5,Au  2)    102.1253         0.001529   
    204. D(Au  1,Mn 12,Au  5,Au  2)     29.1990         0.001529   
    205. D(Au  0,Mn 12,Au  5,Au  3)    -29.1090         0.001529   
    206. D(Au  7,Mn 12,Au  9,Au  8)    -59.2837         0.001587   
    207. D(Au  8,Mn 12,Au  9,Au  7)     59.2837         0.001587   
    208. D(Au  0,Mn 12,Au  5,Au  2)     29.3051         0.001529   
    209. D(Au  8,Mn 12,Au  4,Au  3)    154.7827         0.001585   
    210. D(Au  5,Mn 12,Au  9,Au  8)   -157.4936         0.001587   
    211. D(Au 10,Mn 12,Au  4,Au  3)   -105.1000         0.001585   
    212. D(Au  6,Mn 12,Au  4,Au  3)    179.9927         0.001585   
    213. D(Au  7,Mn 12,Au  8,Au  9)     71.1154         0.001500   
    214. D(Au  7,Mn 12,Au  8,Au  6)    -71.2237         0.001500   
    215. D(Au  1,Mn 12,Au  4,Au  3)     47.0276         0.001585   
    216. D(Au  0,Mn 12,Au  4,Au  3)    105.2510         0.001585   
    217. D(Au 11,Mn 12,Au  8,Au  6)   -171.2379         0.001500   
    218. D(Au  7,Mn 12,Au  1,Au  3)   -150.6104         0.001529   
    219. D(Au  7,Mn 12,Au  1,Au  2)    150.9691         0.001529   
    220. D(Au 10,Mn 12,Au  8,Au  9)     70.9393         0.001500   
    221. D(Au  5,Mn 12,Au  4,Au  3)    -46.9140         0.001585   
    222. D(Au  1,Mn 12,Au  9,Au  8)     98.0261         0.001587   
    223. D(Au  9,Mn 12,Au  4,Au  3)   -179.1531         0.001585   
    224. D(Au  5,Mn 12,Au  9,Au  7)    -98.2099         0.001587   
    225. D(Au 11,Mn 12,Au  4,Au  3)      0.1295         0.001585   
    226. D(Au 10,Mn 12,Au  9,Au  8)   -107.1389         0.001587   
    227. D(Au  7,Mn 12,Au  4,Au  3)   -154.6666         0.001585   
    228. D(Au 10,Mn 12,Au  8,Au  6)    -71.3999         0.001500   
    229. D(Au  0,Mn 12,Au 10,Au  7)      0.0237         0.001567   
    230. D(Au  4,Mn 12,Au 10,Au  7)   -112.6530         0.001567   
    231. D(Au  1,Mn 12,Au  5,Au  3)    -29.2152         0.001529   
    232. D(Au  8,Mn 12,Au 10,Au  7)      0.1673         0.001567   
    233. D(Au  4,Mn 12,Au  5,Au  3)     43.7112         0.001529   
    234. D(Au  4,Mn 12,Au 11,Au  2)     -0.0623         0.001585   
    235. D(Au  6,Mn 12,Au  5,Au  3)     91.6336         0.001529   
    236. D(Au  8,Mn 12,Au  1,Au  3)   -150.8701         0.001529   
    237. D(Au  9,Mn 12,Au  5,Au  3)   -150.3111         0.001529   
    238. D(Au  8,Mn 12,Au  1,Au  2)    150.7094         0.001529   
    239. D(Au 10,Mn 12,Au  5,Au  3)    150.7994         0.001529   
    240. D(Au  9,Mn 12,Au  8,Au  0)    109.1625         0.001500   
    241. D(Au 11,Mn 12,Au  1,Au  3)    102.1712         0.001529   
    242. D(Au  6,Mn 12,Au  8,Au  7)     71.2237         0.001500   
    243. D(Au  8,Mn 12,Au  5,Au  3)    150.9701         0.001529   
    244. D(Au  6,Mn 12,Au  8,Au  9)    142.3391         0.001500   
    245. D(Au 11,Mn 12,Au  1,Au  2)     43.7507         0.001529   
    246. D(Au  6,Mn 12,Au  8,Au  0)   -108.4984         0.001500   
    247. D(Au  5,Mn 12,Au  8,Au  7)     -0.3279         0.001500   
    248. D(Au 10,Mn 12,Au  1,Au  3)     29.2284         0.001529   
    249. D(Au 10,Mn 12,Au  1,Au  2)    -29.1922         0.001529   
    250. D(Au  4,Mn 12,Au  8,Au  7)     99.7423         0.001500   
    251. D(Au  9,Mn 12,Au  1,Au  3)    149.9235         0.001529   
    252. D(Au  9,Mn 12,Au  1,Au  2)     91.5030         0.001529   
    253. D(Au  4,Mn 12,Au  8,Au  0)    -79.9798         0.001500   
    254. D(Au  1,Mn 12,Au  8,Au  7)    179.8720         0.001500   
    255. D(Au  6,Mn 12,Au  1,Au  3)    -91.7659         0.001529   
    256. D(Au  6,Mn 12,Au  1,Au  2)   -150.1864         0.001529   
    257. D(Au  0,Mn 12,Au  8,Au  7)    179.7221         0.001500   
    258. D(Au  5,Mn 12,Au  1,Au  3)     29.2019         0.001529   
    259. D(Au  5,Mn 12,Au  1,Au  2)    -29.2186         0.001529   
    260. D(Au  8,Mn 12,Au  7,Au 10)   -179.7721         0.001500   
    261. D(Au  8,Mn 12,Au  7,Au  9)    -71.3964         0.001500   
    262. D(Au  4,Mn 12,Au  1,Au  3)    -43.7899         0.001529   
    263. D(Au  4,Mn 12,Au  1,Au  2)   -102.2104         0.001529   
    264. D(Au 11,Mn 12,Au  7,Au  8)     99.6986         0.001500   
    265. D(Au  0,Mn 12,Au  1,Au  3)   -150.7398         0.001529   
    266. D(Au  0,Mn 12,Au  1,Au  2)    150.8397         0.001529   
    267. D(Au 10,Mn 12,Au  7,Au  8)    179.7721         0.001500   
    268. D(Au 10,Mn 12,Au  7,Au  6)   -108.9402         0.001500   
    269. D(Au  7,Mn 12,Au  0,Au  8)      0.2040         0.001568   
    270. D(Au 11,Mn 12,Au  0,Au  8)   -112.6410         0.001568   
    271. D(Au  6,Mn 12,Au  7,Au 10)    108.9402         0.001500   
    272. D(Au 10,Mn 12,Au  0,Au  8)      0.1857         0.001568   
    273. D(Au  6,Mn 12,Au  7,Au  8)    -71.2878         0.001500   
    274. D(Au  9,Mn 12,Au  0,Au  8)    -50.4769         0.001568   
    275. D(Au  5,Mn 12,Au  7,Au 10)      0.1006         0.001500   
    276. D(Au  5,Mn 12,Au  7,Au  9)    108.4762         0.001500   
    277. D(Au  6,Mn 12,Au  0,Au  8)     50.8050         0.001568   
    278. D(Au  5,Mn 12,Au  7,Au  8)    179.8726         0.001500   
    279. D(Au  6,Mn 12,Au  7,Au  9)   -142.6842         0.001500   
    280. D(Au  5,Mn 12,Au  7,Au  6)   -108.8396         0.001500   
    281. D(Au  9,Mn 12,Au  7,Au  6)    142.6842         0.001500   
    282. D(Au  9,Mn 12,Au  7,Au  8)     71.3964         0.001500   
    283. D(Au  9,Mn 12,Au  7,Au 10)   -108.3756         0.001500   
    284. D(Au  5,Mn 12,Au  0,Au  8)   -179.9629         0.001568   
    285. D(Au  4,Mn 12,Au  7,Au 10)     80.2590         0.001500   
    286. D(Au 10,Mn 12,Au  7,Au  9)    108.3756         0.001500   
    287. D(Au 11,Mn 12,Au  7,Au  6)    170.9864         0.001500   
    288. D(Au  4,Mn 12,Au  7,Au  9)   -171.3654         0.001500   
    289. D(Au 11,Mn 12,Au  7,Au  9)     28.3022         0.001500   
    290. D(Au 11,Mn 12,Au  7,Au 10)    -80.0734         0.001500   
    291. D(Au  8,Mn 12,Au  7,Au  6)     71.2878         0.001500   
    292. D(Au  4,Mn 12,Au  0,Au  8)    112.9033         0.001568   
    293. D(Au  4,Mn 12,Au  7,Au  8)    -99.9689         0.001500   
    294. D(Au  0,Mn 12,Au  8,Au  6)    108.4984         0.001500   
    295. D(Au  0,Mn 12,Au  8,Au  9)   -109.1625         0.001500   
    296. D(Au  4,Mn 12,Au  7,Au  6)    -28.6812         0.001500   
    297. D(Au  1,Mn 12,Au  8,Au  0)      0.1499         0.001500   
    298. D(Au  1,Mn 12,Au  8,Au  6)    108.6483         0.001500   
    299. D(Au  1,Mn 12,Au  8,Au  9)   -109.0126         0.001500   
    300. D(Au  1,Mn 12,Au  0,Au  8)   -179.8428         0.001568   
    301. D(Au  1,Mn 12,Au  7,Au 10)    179.8979         0.001500   
    302. D(Au  4,Mn 12,Au  8,Au  6)     28.5186         0.001500   
    303. D(Au  4,Mn 12,Au  8,Au  9)    170.8577         0.001500   
    304. D(Au  1,Mn 12,Au  7,Au  9)    -71.7264         0.001500   
    305. D(Au  5,Mn 12,Au  8,Au  0)    179.9500         0.001500   
    306. D(Au  5,Mn 12,Au  8,Au  6)    -71.5517         0.001500   
    307. D(Au  5,Mn 12,Au  8,Au  9)     70.7875         0.001500   
    308. D(Au  1,Mn 12,Au  7,Au  8)     -0.3300         0.001500   
    309. D(Au  1,Mn 12,Au  7,Au  6)     70.9578         0.001500   
    310. D(Au  0,Mn 12,Au  7,Au 10)   -179.9870         0.001500   
    311. D(Au  0,Mn 12,Au  7,Au  9)    -71.6114         0.001500   
    312. D(Au  0,Mn 12,Au  7,Au  8)     -0.2149         0.001500   
    313. D(Au  9,Mn 12,Au  8,Au  6)   -142.3391         0.001500   
    314. D(Au  9,Mn 12,Au  8,Au  7)    -71.1154         0.001500   
    315. D(Au 10,Mn 12,Au  8,Au  0)   -179.8982         0.001500   
    316. D(Au  0,Mn 12,Au  7,Au  6)     71.0728         0.001500   
    317. D(Au  7,Mn 12,Au  6,Au  8)     59.2841         0.001587   
    318. D(Au 10,Mn 12,Au  8,Au  7)     -0.1761         0.001500   
    319. D(Au 11,Mn 12,Au  8,Au  0)     80.2638         0.001500   
    320. D(Au  8,Mn 12,Au  6,Au  7)    -59.2841         0.001587   
    321. D(Au 11,Mn 12,Au  8,Au  9)    -28.8987         0.001500   
    322. D(Au 11,Mn 12,Au  8,Au  7)   -100.0142         0.001500   
    323. D(Au  7,Mn 12,Au  8,Au  0)   -179.7221         0.001500   
    324. D(Au 11,Mn 12,Au  6,Au  7)    -30.0840         0.001587   
    325. D(Au 11,Mn 12,Au  6,Au  8)     29.2001         0.001587   
    326. D(Au  0,Mn 12,Au  9,Au  8)     47.4816         0.001587   
    327. D(Au  0,Mn 12,Au  9,Au  7)    106.7654         0.001587   
    328. D(Au 10,Mn 12,Au  6,Au  7)     47.5689         0.001587   
    329. D(Au  1,Mn 12,Au  9,Au  7)    157.3099         0.001587   
    330. D(Au  4,Mn 12,Au  9,Au  8)    -30.5543         0.001587   
    331. D(Au  4,Mn 12,Au  9,Au  7)     28.7295         0.001587   
    332. D(Au 10,Mn 12,Au  6,Au  8)    106.8530         0.001587   
    333. D(Au  9,Mn 12,Au  6,Au  7)    -29.4869         0.001587   
    334. D(Au  6,Mn 12,Au  9,Au  8)    -29.7761         0.001587   
    335. D(Au  6,Mn 12,Au  9,Au  7)     29.5077         0.001587   
    336. D(Au  9,Mn 12,Au  6,Au  8)     29.7972         0.001587   
    337. D(Au 10,Mn 12,Au  9,Au  7)    -47.8551         0.001587   
    338. D(Au 11,Mn 12,Au  9,Au  8)    150.0312         0.001587   
    339. D(Au 11,Mn 12,Au  9,Au  7)   -150.6850         0.001587   
    340. D(Au  5,Mn 12,Au  6,Au  7)     98.0400         0.001587   
    341. D(Au  5,Mn 12,Au  6,Au  8)    157.3240         0.001587   
    342. D(Au  4,Mn 12,Au  6,Au  7)    150.2619         0.001587   
    343. D(Au  1,Mn 12,Au 10,Au  7)   -179.9245         0.001567   
    344. D(Au  4,Mn 12,Au  6,Au  8)   -150.4540         0.001587   
    345. D(Au  5,Mn 12,Au 10,Au  7)   -179.8945         0.001567   
    346. D(Au  6,Mn 12,Au 10,Au  7)    -50.5463         0.001567   
    347. D(Au  9,Mn 12,Au 10,Au  7)     50.8193         0.001567   
    348. D(Au  1,Mn 12,Au  6,Au  7)   -157.4797         0.001587   
    349. D(Au  1,Mn 12,Au  6,Au  8)    -98.1956         0.001587   
    350. D(Au  0,Mn 12,Au 11,Au  2)   -105.1311         0.001585   
    351. D(Au  1,Mn 12,Au 11,Au  2)    -46.9535         0.001585   
    352. D(Au  0,Mn 12,Au  6,Au  7)   -107.1014         0.001587   
    353. D(Au  5,Mn 12,Au 11,Au  2)     46.9886         0.001585   
    354. D(Au  6,Mn 12,Au 11,Au  2)   -179.6386         0.001585   
    355. D(Au  9,Mn 12,Au 11,Au  2)    179.7061         0.001585   
    356. D(Au  0,Mn 12,Au  6,Au  8)    -47.8173         0.001587   
    357. D(Au  7,Mn 12,Au  5,Au  3)    150.7121         0.001529   
    358. D(Au  7,Mn 12,Au 11,Au  2)    154.7113         0.001585   
    359. D(Au  7,Mn 12,Au  5,Au  2)   -150.8738         0.001529   
    -----------------------------------------------------------------

Number of atoms                         .... 13
Number of degrees of freedom            .... 359

         *************************************************************
         *                GEOMETRY OPTIMIZATION CYCLE   1            *
         *************************************************************
---------------------------------
CARTESIAN COORDINATES (ANGSTROEM)
---------------------------------
  Au     8.260324    8.990187   10.307213
  Au     7.262190    6.956975    8.844002
  Au     6.192303    6.702625    6.183522
  Au     8.362592    5.091565    6.945011
  Au    10.268483    6.647369    8.127576
  Au     8.865270    7.529790    5.498713
  Au    11.210099    8.999865    8.983104
  Au    11.106924   11.626493    7.790495
  Au     9.891928   11.198107   10.307438
  Au     8.257445   11.200471    7.927375
  Au    10.346613    9.737800    5.947541
  Au     6.707357    9.293110    6.872588
  Mn     8.962599    8.782184    7.864878

----------------------------
CARTESIAN COORDINATES (A.U.)
----------------------------
  NO LB      ZA    FRAG     MASS         X           Y           Z
   0 Au   19.0000*   0   196.966   15.609750   16.988990   19.477810
   1 Au   19.0000*   0   196.966   13.723550   13.146778   16.712742
   2 Au   19.0000*   0   196.966   11.701756   12.666126   11.685163
   3 Au   19.0000*   0   196.966   15.803009    9.621664   13.124169
   4 Au   19.0000*   0   196.966   19.404622   12.561706   15.358892
   5 Au   19.0000*   0   196.966   16.752933   14.229241   10.391062
   6 Au   19.0000*   0   196.966   21.184017   17.007279   16.975606
   7 Au   19.0000*   0   196.966   20.989044   21.970888   14.721903
   8 Au   19.0000*   0   196.966   18.693036   21.161355   19.478235
   9 Au   19.0000*   0   196.966   15.604309   21.165823   14.980568
  10 Au   19.0000*   0   196.966   19.552264   18.401775   11.239224
  11 Au   19.0000*   0   196.966   12.675068   17.561432   12.987308
  12 Mn   25.0000    0    54.940   16.936857   16.595923   14.862465
* core charge reduced due to ECP

--------------------------------
INTERNAL COORDINATES (ANGSTROEM)
--------------------------------
 Au     0   0   0     0.000000000000     0.00000000     0.00000000
 Au     1   0   0     2.696517323583     0.00000000     0.00000000
 Au     2   1   0     2.878802983743   134.88313400     0.00000000
 Au     3   2   1     2.808119728264    60.84667711   123.67698745
 Au     4   3   2     2.729726293404   109.27488456   311.79303997
 Au     4   3   2     2.879132413152    60.84715725   263.43315244
 Au     5   4   3     2.674472824050   152.34171762   359.88927701
 Au     7   5   4     2.886544433316   130.96959134   319.38309929
 Au     1   2   3     2.745368044012   145.73446193   316.87825576
 Au     8   7   5     2.884399460177    83.18319672    59.12544615
 Au     6   4   3     2.696503264311   134.88985729   123.74863869
 Au    10   8   7     2.674579580369   131.23598633   301.22078798
 Mn     5   4   3     2.516303326679    94.35693555   359.87600495

---------------------------
INTERNAL COORDINATES (A.U.)
---------------------------
 Au     0   0   0     0.000000000000     0.00000000     0.00000000
 Au     1   0   0     5.095679256946     0.00000000     0.00000000
 Au     2   1   0     5.440149232789   134.88313400     0.00000000
 Au     3   2   1     5.306577237681    60.84667711   123.67698745
 Au     4   3   2     5.158435115097   109.27488456   311.79303997
 Au     4   3   2     5.440771764153    60.84715725   263.43315244
 Au     5   4   3     5.054021190069   152.34171762   359.88927701
 Au     7   5   4     5.454778452362   130.96959134   319.38309929
 Au     1   2   3     5.187993740002   145.73446193   316.87825576
 Au     8   7   5     5.450725040565    83.18319672    59.12544615
 Au     6   4   3     5.095652688772   134.88985729   123.74863869
 Au    10   8   7     5.054222930276   131.23598633   301.22078798
 Mn     5   4   3     4.755124157298    94.35693555   359.87600495

---------------------
BASIS SET INFORMATION
---------------------
There are 2 groups of distinct atoms

 Group   1 Type Au  : 8s7p6d1f contracted to 6s4p3d1f pattern {311111/4111/411/1}
 Group   2 Type Mn  : 17s11p7d1f contracted to 6s4p4d1f pattern {842111/6311/4111/1}

Atom   0Au   basis set group =>   1
Atom   1Au   basis set group =>   1
Atom   2Au   basis set group =>   1
Atom   3Au   basis set group =>   1
Atom   4Au   basis set group =>   1
Atom   5Au   basis set group =>   1
Atom   6Au   basis set group =>   1
Atom   7Au   basis set group =>   1
Atom   8Au   basis set group =>   1
Atom   9Au   basis set group =>   1
Atom  10Au   basis set group =>   1
Atom  11Au   basis set group =>   1
Atom  12Mn   basis set group =>   2
---------------------------------
AUXILIARY/J BASIS SET INFORMATION
---------------------------------
There are 2 groups of distinct atoms

 Group   1 Type Au  : 11s5p5d3f3g contracted to 8s5p5d2f3g pattern {41111111/11111/11111/21/111}
 Group   2 Type Mn  : 19s5p5d3f3g contracted to 8s5p5d2f3g pattern {121111111/11111/11111/21/111}

Atom   0Au   basis set group =>   1
Atom   1Au   basis set group =>   1
Atom   2Au   basis set group =>   1
Atom   3Au   basis set group =>   1
Atom   4Au   basis set group =>   1
Atom   5Au   basis set group =>   1
Atom   6Au   basis set group =>   1
Atom   7Au   basis set group =>   1
Atom   8Au   basis set group =>   1
Atom   9Au   basis set group =>   1
Atom  10Au   basis set group =>   1
Atom  11Au   basis set group =>   1
Atom  12Mn   basis set group =>   2
-------------------------
ECP PARAMETER INFORMATION
-------------------------

 Group 1, Type Au ECP Def2-ECP (replacing 60 core electrons, lmax=3)

Atom   0Au   ECP group =>   1
Atom   1Au   ECP group =>   1
Atom   2Au   ECP group =>   1
Atom   3Au   ECP group =>   1
Atom   4Au   ECP group =>   1
Atom   5Au   ECP group =>   1
Atom   6Au   ECP group =>   1
Atom   7Au   ECP group =>   1
Atom   8Au   ECP group =>   1
Atom   9Au   ECP group =>   1
Atom  10Au   ECP group =>   1
Atom  11Au   ECP group =>   1

------------------------------------------------------------------------------
                           ORCA GTO INTEGRAL CALCULATION
                           -- RI-GTO INTEGRALS CHOSEN --
------------------------------------------------------------------------------
------------------------------------------------------------------------------
                   ___                                                        
                  /   \      - P O W E R E D   B Y -                         
                 /     \                                                     
                 |  |  |   _    _      __       _____    __    __             
                 |  |  |  | |  | |    /  \     |  _  \  |  |  /  |          
                  \  \/   | |  | |   /    \    | | | |  |  | /  /          
                 / \  \   | |__| |  /  /\  \   | |_| |  |  |/  /          
                |  |  |   |  __  | /  /__\  \  |    /   |      \           
                |  |  |   | |  | | |   __   |  |    \   |  |\   \          
                \     /   | |  | | |  |  |  |  | |\  \  |  | \   \       
                 \___/    |_|  |_| |__|  |__|  |_| \__\ |__|  \__/        
                                                                              
                      - O R C A' S   B I G   F R I E N D -                    
                                      &                                       
                       - I N T E G R A L  F E E D E R -                       
                                                                              
 v1 FN, 2020, v2 2021                                                         
------------------------------------------------------------------------------


Reading SHARK input file pbe.SHARKINP.tmp ... ok
----------------------
SHARK INTEGRAL PACKAGE
----------------------

Number of atoms                             ...     13
Number of basis functions                   ...    525
Number of shells                            ...    183
Maximum angular momentum                    ...      3
Integral batch strategy                     ... SHARK/LIBINT Hybrid
RI-J (if used) integral strategy            ... SPLIT-RIJ (Revised 2003 algorithm where possible)
Printlevel                                  ...      1
Contraction scheme used                     ... SEGMENTED contraction
Coulomb Range Separation                    ... NOT USED
Exchange Range Separation                   ... NOT USED
Finite Nucleus Model                        ... NOT USED
Auxiliary Coulomb fitting basis             ... AVAILABLE
   # of basis functions in Aux-J            ...   1157
   # of shells in Aux-J                     ...    299
   Maximum angular momentum in Aux-J        ...      4
Auxiliary J/K fitting basis                 ... NOT available
Auxiliary Correlation fitting basis         ... NOT available
Auxiliary 'external' fitting basis          ... NOT available
Integral threshold                          ...     2.500000e-11
Primitive cut-off                           ...     2.500000e-12
Primitive pair pre-selection threshold      ...     2.500000e-12

Calculating pre-screening integrals         ... done (  0.5 sec) Dimension = 183
Organizing shell pair data                  ... done (  0.7 sec)
Shell pair information
Total number of shell pairs                 ...     16836
Shell pairs after pre-screening             ...     13701
Total number of primitive shell pairs       ...     45389
Primitive shell pairs kept                  ...     27078
          la=0 lb=0:   2140 shell pairs
          la=1 lb=0:   3142 shell pairs
          la=1 lb=1:   1186 shell pairs
          la=2 lb=0:   2702 shell pairs
          la=2 lb=1:   1912 shell pairs
          la=2 lb=2:    785 shell pairs
          la=3 lb=0:    738 shell pairs
          la=3 lb=1:    545 shell pairs
          la=3 lb=2:    468 shell pairs
          la=3 lb=3:     83 shell pairs

Calculating one electron integrals          ... done (  0.1 sec)
Calculating ECP integrals                   ... done (  9.0 sec)
Calculating RI/J V-Matrix + Cholesky decomp.... done (  0.1 sec)
Calculating Nuclear repulsion               ... done (  0.0 sec) ENN=   4318.397469099684 Eh

SHARK setup successfully completed in  11.3 seconds

Maximum memory used throughout the entire GTOINT-calculation: 401.9 MB
-------------------------------------------------------------------------------
                                 ORCA SCF
-------------------------------------------------------------------------------

------------
SCF SETTINGS
------------
Hamiltonian:
 Density Functional     Method          .... DFT(GTOs)
 Exchange Functional    Exchange        .... PBE
   PBE kappa parameter   XKappa         ....  0.804000
   PBE mue parameter    XMuePBE         ....  0.219520
 Correlation Functional Correlation     .... PBE
   PBE beta parameter  CBetaPBE         ....  0.066725
 LDA part of GGA corr.  LDAOpt          .... PW91-LDA
 Gradients option       PostSCFGGA      .... off
   Density functional embedding theory  .... OFF
   NL short-range parameter             ....  6.400000
 RI-approximation to the Coulomb term is turned on
   Number of AuxJ basis functions       .... 1157


General Settings:
 Integral files         IntName         .... pbe
 Hartree-Fock type      HFTyp           .... UHF
 Total Charge           Charge          ....    0
 Multiplicity           Mult            ....    4
 Number of Electrons    NEL             ....  253
 Basis Dimension        Dim             ....  525
 Nuclear Repulsion      ENuc            ....   4318.3974690997 Eh

Convergence Acceleration:
 DIIS                   CNVDIIS         .... off
 Trust-Rad. Augm. Hess. CNVTRAH         .... auto
   Auto Start mean grad. ratio tolernc. ....  1.125000
   Auto Start start iteration           ....    20
   Auto Start num. interpolation iter.  ....    10
   Max. Number of Micro iterations      ....    16
   Max. Number of Macro iterations      .... Maxiter - #DIIS iter
   Number of Davidson start vectors     ....     2
   Converg. threshold I  (grad. norm)   ....   1.000e-05
   Converg. threshold II (energy diff.) ....   1.000e-08
   Grad. Scal. Fac. for Micro threshold ....   0.100
   Minimum threshold for Micro iter.    ....   0.010
   NR start threshold (gradient norm)   ....   0.001
   Initial trust radius                 ....   0.400
   Minimum AH scaling param. (alpha)    ....   1.000
   Maximum AH scaling param. (alpha)    .... 1000.000
   Orbital update algorithm             .... Taylor
   White noise on init. David. guess    .... on
   Maximum white noise                  ....   0.010
   Quad. conv. algorithm                .... NR
 SOSCF                  CNVSOSCF        .... off
 Level Shifting         CNVShift        .... off
 Zerner damping         CNVZerner       .... off
 Static damping         CNVDamp         .... off
 Fernandez-Rico         CNVRico         .... off

SCF Procedure:
 Maximum # iterations   MaxIter         ....   125
 SCF integral mode      SCFMode         .... Direct
   Integral package                     .... SHARK and LIBINT hybrid scheme
 Reset frequency        DirectResetFreq ....    20
 Integral Threshold     Thresh          ....  2.500e-11 Eh
 Primitive CutOff       TCut            ....  2.500e-12 Eh

Convergence Tolerance:
 Convergence Check Mode ConvCheckMode   .... Total+1el-Energy
 Convergence forced     ConvForced      .... 0
 Energy Change          TolE            ....  1.000e-08 Eh
 1-El. energy change                    ....  1.000e-05 Eh


Diagonalization of the overlap matrix:
Smallest eigenvalue                        ... 2.545e-04
Time for diagonalization                   ...    0.079 sec
Threshold for overlap eigenvalues          ... 1.000e-08
Number of eigenvalues below threshold      ... 0
Time for construction of square roots      ...    0.036 sec
Total time needed                          ...    0.116 sec

Time for model grid setup =    1.715 sec

------------------------------
INITIAL GUESS: MODEL POTENTIAL
------------------------------
Loading Hartree-Fock densities                     ... done
  calling /home/ehlert/src/miniconda3/envs/orca500/Programs/ORCA501/orca pbe_atom79.inp > pbe_atom79.out in order to generate an atomic fitting density for atom 0 (Au with ECP) on-the-fly... 
    atom 0 (Au), assumed electronic state with S=2: 1s2 2s2 2p6 3s2 3p6 4s2 3d10 4p6 5s2 4d10 5p6 6s1 4f14 5d10           ... done
Calculating cut-offs                               ... done
Initializing the effective Hamiltonian             ... done
Setting up the integral package (SHARK)            ... done
Starting the Coulomb interaction                   ... done (   2.3 sec)
Reading the grid                                   ... done
Mapping shells                                     ... done
Starting the XC term evaluation                    ... done (   2.8 sec)
  promolecular density results
     # of electrons  =    973.012964535
     EX              =  -4440.469735454
     EC              =    -59.197631835
     EX+EC           =  -4499.667367289
Transforming the Hamiltonian                       ... done (   0.0 sec)
Diagonalizing the Hamiltonian                      ... done (   0.1 sec)
Back transforming the eigenvectors                 ... done (   0.0 sec)
Now organizing SCF variables                       ... done
                      ------------------
                      INITIAL GUESS DONE (   7.8 sec)
                      ------------------
-------------------
DFT GRID GENERATION
-------------------

General Integration Accuracy     IntAcc      ... 4.388
Radial Grid Type                 RadialGrid  ... OptM3 with GC (2021)
Angular Grid (max. ang.)         AngularGrid ... 4 (Lebedev-302)
Angular grid pruning method      GridPruning ... 4 (adaptive)
Weight generation scheme         WeightScheme... Becke
Basis function cutoff            BFCut       ... 1.0000e-11
Integration weight cutoff        WCut        ... 1.0000e-14
Angular grids for H and He will be reduced by one unit
Partially contracted basis set               ... off
Rotationally invariant grid construction     ... off

Total number of grid points                  ...   144771
Total number of batches                      ...     2269
Average number of points per batch           ...       63
Average number of grid points per atom       ...    11136
Time for grid setup =    3.874 sec

--------------
SCF ITERATIONS
--------------
ITER       Energy         Delta-E        Max-DP      RMS-DP      [F,P]   Gradient Norm
               ***  Starting incremental Fock matrix formation  ***
                             ****Resetting KDIIS****
                             ****Turning on KDIIS(Cayley)****
  0  -2778.6554693399   0.000000000000 0.40034072  0.00182220  0.4247701   0.223311382
  1  -2779.7448592710  -1.089389931049 1.17041489  0.00288905  0.3799416   0.168929579
  2  -2780.2608731315  -0.516013860509 0.37533920  0.00147484  0.3001368   0.124831694
  3  -2780.4859486379  -0.225075506420 0.19707121  0.00149712  0.1744593   0.072804102
  4  -2780.5192662479  -0.033317609973 0.11012680  0.00050798  0.0694946   0.029275829
  5  -2780.5806551573  -0.061388909422 0.39974593  0.00091838  0.0339532   0.006399113
  6  -2780.5920325675  -0.011377410193 0.12617937  0.00058558  0.0330141   0.007367810
  7  -2780.6022543418  -0.010221774360 0.10124579  0.00031657  0.0304757   0.007388456
  8  -2780.6044011497  -0.002146807906 0.08074410  0.00031035  0.0138925   0.007863158
  9  -2780.6123695930  -0.007968443257 0.01561989  0.00012485  0.0077341   0.003459863
 10  -2780.6129653748  -0.000595781854 0.03015528  0.00012598  0.0080143   0.003103454
 11  -2780.6139425021  -0.000977127271 0.05717831  0.00013552  0.0103184   0.003460622
 12  -2780.6150570096  -0.001114507494 0.02813667  0.00008216  0.0055771   0.001851308
 13  -2780.6151839024  -0.000126892810 0.04359761  0.00016151  0.0046926   0.001351312
 14  -2780.6160514161  -0.000867513669 0.03429614  0.00009728  0.0045820   0.002038326
 15  -2780.6160572848  -0.000005868694 0.01876290  0.00008556  0.0032999   0.001116409
 16  -2780.6164280861  -0.000370801290 0.01665640  0.00005537  0.0029722   0.001338380
 17  -2780.6165202527  -0.000092166592 0.01670736  0.00004698  0.0040675   0.001391286
 18  -2780.6166900493  -0.000169796628 0.00612769  0.00003078  0.0017592   0.000749251
 19  -2780.6167111351  -0.000021085827 0.00641027  0.00004201  0.0020694   0.000741709
               *** Restarting incremental Fock matrix formation ***
                             ****Resetting KDIIS****
 20  -2780.6168814179  -0.000170282788 0.00252211  0.00000721  0.0021177   0.000561143
 21  -2780.6169043652  -0.000022947258 0.00265585  0.00000725  0.0014666   0.000342571
 22  -2780.6169225663  -0.000018201118 0.00108370  0.00000848  0.0015758   0.000249238
 23  -2780.6169514399  -0.000028873651 0.00403018  0.00006299  0.0014238   0.000214932
 24  -2780.6170960292  -0.000144589280 0.00576106  0.00004632  0.0008188   0.000438694
 25  -2780.6171761860  -0.000080156770 0.00082832  0.00001177  0.0010349   0.000136720
 26  -2780.6171753899   0.000000796128 0.00146317  0.00000710  0.0011301   0.000210323

 WARNING: the maximum gradient error descreased on average only by a factor   1.1
          during the last 20 iterations

                      *** Initiating the TRAH-SCF procedure ***

                    *** KDIIS BlockDiag ( 0.165 sec) ***

TRAH GRID
---------

General Integration Accuracy     IntAcc      ... 3.467
Radial Grid Type                 RadialGrid  ... OptM3 with GC (2021)
Angular Grid (max. ang.)         AngularGrid ... 1 (Lebedev-50)
Angular grid pruning method      GridPruning ... 4 (adaptive)
Weight generation scheme         WeightScheme... Becke
Basis function cutoff            BFCut       ... 1.0000e-11
Integration weight cutoff        WCut        ... 1.0000e-14
Angular grids for H and He will be reduced by one unit
Partially contracted basis set               ... off
Rotationally invariant grid construction     ... off

Total number of grid points                  ...    62477
Total number of batches                      ...      983
Average number of points per batch           ...       63
Average number of grid points per atom       ...     4806

 --------------------------------------------------------------------------------------------
   Iter.        energy            ||Error||_2        Shift      TRadius  Mac/Mic        Rej.
 --------------------------------------------------------------------------------------------
WARNING: 4 diagonal Hessian elements are negative!
    0      -2780.617187978167     2.149483e-03                     0.400 (TRAH MAcro)   No
WARNING : negative HOMO - LUMO gap : (op = alpha) -0.004036
WARNING : negative HOMO - LUMO gap : (op =  beta) -0.052792
    0     dE    -1.088438e-06     5.829181e-03    -1.0884e-06      0.001 (TRAH MIcro)
    0     dE    -1.239759e-05     6.640427e-03    -1.2393e-05      0.019 (TRAH MIcro)
    0     dE    -1.485754e-03     3.562293e-02    -8.0810e-03      0.400 (TRAH MIcro)
    0     dE    -8.948595e-04     1.840125e-02    -1.8531e-02      0.211 (TRAH MIcro)
    0     dE    -1.925416e-03     2.035342e-02    -2.1013e-02      0.297 (TRAH MIcro)
    0     dE    -2.401769e-03     1.247059e-02    -2.2096e-02      0.324 (TRAH MIcro)
    0     dE    -2.230931e-03     8.338929e-03    -2.2596e-02      0.308 (TRAH MIcro)
    0     dE    -1.841832e-03     1.325914e-02    -2.2912e-02      0.277 (TRAH MIcro)
    0     dE    -1.211054e-03     1.767627e-02    -2.3553e-02      0.219 (TRAH MIcro)
    0     dE    -3.316377e-03     4.944724e-02    -2.8160e-02      0.324 (TRAH MIcro)
    0     dE    -8.267758e-03     4.665647e-02    -4.8030e-02      0.400 (TRAH MIcro)
    0     dE    -9.423776e-03     1.967248e-02    -5.5812e-02      0.398 (TRAH MIcro)
    0     dE    -9.701805e-03     7.749723e-03    -5.6962e-02      0.400 (TRAH MIcro)
    0     dE    -9.742867e-03     4.221478e-03    -5.7198e-02      0.400 (TRAH MIcro)
WARNING: 3 diagonal Hessian elements are negative!
    1      -2780.623690321131     9.192962e-02                     0.400 (TRAH MAcro)   No
WARNING : negative HOMO - LUMO gap : (op = alpha) -0.018164
WARNING : negative HOMO - LUMO gap : (op =  beta) -0.012776
    1     dE    -1.823613e-03     5.833359e-02    -1.8229e-03      0.020 (TRAH MIcro)
    1     dE    -3.091168e-03     2.571374e-02    -3.0724e-03      0.078 (TRAH MIcro)
    1     dE    -5.520884e-03     3.939719e-02    -4.9644e-03      0.335 (TRAH MIcro)
    1     dE    -7.035486e-03     3.338057e-02    -1.1021e-02      0.400 (TRAH MIcro)
    1     dE    -7.985247e-03     2.680545e-02    -1.9918e-02      0.380 (TRAH MIcro)
    1     dE    -8.875701e-03     3.189850e-02    -2.1857e-02      0.387 (TRAH MIcro)
    1     dE    -1.036497e-02     4.706109e-02    -2.6474e-02      0.368 (TRAH MIcro)
    1     dE    -1.277461e-02     5.868510e-02    -3.2118e-02      0.376 (TRAH MIcro)
    1     dE    -1.862337e-02     5.096824e-02    -5.5125e-02      0.400 (TRAH MIcro)
    1     dE    -1.988628e-02     1.799613e-02    -6.2685e-02      0.400 (TRAH MIcro)
    1     dE    -2.006378e-02     1.012710e-02    -6.3400e-02      0.400 (TRAH MIcro)
    1     dE    -2.013523e-02     5.433843e-03    -6.3510e-02      0.400 (TRAH MIcro)
WARNING: 1 diagonal Hessian elements are negative!
    2      -2780.644228586027     3.833919e-02                     0.480 (TRAH MAcro)   No
WARNING : negative HOMO - LUMO gap : (op = alpha) -0.007671
WARNING : small    HOMO - LUMO gap : (op =  beta) 0.002425
    2     dE    -5.785042e-04     5.139522e-02    -5.7837e-04      0.015 (TRAH MIcro)
    2     dE    -1.303035e-02     2.209621e-01    -1.0841e-02      0.449 (TRAH MIcro)
    2     dE    -2.411843e-02     4.347071e-02    -5.1199e-02      0.480 (TRAH MIcro)
    2     dE    -2.489283e-02     1.986714e-02    -5.3907e-02      0.480 (TRAH MIcro)
    2     dE    -2.518615e-02     1.232367e-02    -5.4915e-02      0.480 (TRAH MIcro)
    2     dE    -2.526517e-02     5.144247e-03    -5.5238e-02      0.480 (TRAH MIcro)
    2     dE    -2.527848e-02     2.851711e-03    -5.5320e-02      0.480 (TRAH MIcro)
WARNING: 1 diagonal Hessian elements are negative!
    3      -2780.666804959028     2.867431e-02                     0.576 (TRAH MAcro)   No
WARNING : negative HOMO - LUMO gap : (op = alpha) -0.002802
    3     dE    -2.807746e-04     3.895857e-02    -2.8075e-04      0.010 (TRAH MIcro)
    3     dE    -8.793329e-03     6.525775e-02    -7.5006e-03      0.415 (TRAH MIcro)
    3     dE    -9.790107e-03     2.307657e-02    -8.1737e-03      0.445 (TRAH MIcro)
    3     dE    -1.037918e-02     1.576312e-02    -8.5194e-03      0.467 (TRAH MIcro)
    3     dE    -1.069918e-02     9.935799e-03    -8.6862e-03      0.481 (TRAH MIcro)
    3     dE    -1.078647e-02     6.574213e-03    -8.7242e-03      0.486 (TRAH MIcro)
    3     dE    -1.083058e-02     3.412263e-03    -8.7403e-03      0.489 (TRAH MIcro)
    3     dE    -1.084716e-02     1.569878e-03    -8.7450e-03      0.490 (TRAH MIcro)
WARNING: 1 diagonal Hessian elements are negative!
    4      -2780.674358980575     5.398442e-02                     0.576 (TRAH MAcro)   No
WARNING : negative HOMO - LUMO gap : (op = alpha) -0.004141
    4     dE    -6.372155e-04     3.649883e-02    -6.3713e-04      0.012 (TRAH MIcro)
    4     dE    -1.096358e-03     9.915584e-03    -1.0942e-03      0.044 (TRAH MIcro)
    4     dE    -1.249742e-03     9.209207e-03    -1.2443e-03      0.066 (TRAH MIcro)
    4     dE    -1.305461e-03     5.459673e-03    -1.2973e-03      0.079 (TRAH MIcro)
    4     dE    -1.320277e-03     1.866528e-03    -1.3111e-03      0.084 (TRAH MIcro)
WARNING: 1 diagonal Hessian elements are negative!
    5      -2780.675560231999     4.637828e-03                     0.691 (TRAH MAcro)   No
WARNING : negative HOMO - LUMO gap : (op = alpha) -0.002307
    5     dE    -5.790532e-06     1.062702e-02    -5.7905e-06      0.001 (TRAH MIcro)
    5     dE    -3.395446e-05     1.000423e-02    -3.3948e-05      0.014 (TRAH MIcro)
    5     dE    -5.499977e-05     2.044462e-03    -5.4964e-05      0.026 (TRAH MIcro)
    5     dE    -5.621606e-05     1.021267e-03    -5.6177e-05      0.026 (TRAH MIcro)
    5     dE    -5.662642e-05     5.472149e-04    -5.6586e-05      0.027 (TRAH MIcro)
    5     dE    -5.675721e-05     2.872898e-04    -5.6716e-05      0.027 (TRAH MIcro)
WARNING: 1 diagonal Hessian elements are negative!
    6      -2780.675617800918     4.155295e-04                           (NR   MAcro)
WARNING : negative HOMO - LUMO gap : (op = alpha) -0.002228
    6     dE    -5.923448e-08     2.564284e-04                           (NR   MIcro)
    6     dE    -1.175504e-07     2.009964e-04                           (NR   MIcro)
    6     dE    -1.487900e-07     1.560546e-04                           (NR   MIcro)
    6     dE    -1.614278e-07     9.542417e-05                           (NR   MIcro)
    6     dE    -1.675629e-07     1.004895e-04                           (NR   MIcro)
    6     dE    -1.882295e-07     1.788181e-04                           (NR   MIcro)
    6     dE    -2.226973e-07     2.460039e-04                           (NR   MIcro)
    6     dE    -3.191134e-07     4.176574e-04                           (NR   MIcro)
    6     dE    -1.001007e-06     1.430234e-03                           (NR   MIcro)
    6     dE     6.124869e-06     4.796392e-03                           (NR   MIcro)
    6     dE     2.186158e-06     8.559349e-04                           (NR   MIcro)
    6     dE     1.907018e-06     3.339336e-04                           (NR   MIcro)
    6     dE     1.862828e-06     2.028911e-04                           (NR   MIcro)
    6     dE     1.845626e-06     8.845451e-05                           (NR   MIcro)
    6     dE     1.842203e-06     3.316860e-05                           (NR   MIcro)
WARNING: 1 diagonal Hessian elements are negative!
    7      -2780.675615956235     1.145478e-04                           (NR   MAcro)
WARNING : negative HOMO - LUMO gap : (op = alpha) -0.002215
    7     dE    -8.254314e-09     5.522456e-05                           (NR   MIcro)
    7     dE    -9.456299e-09     3.431601e-05                           (NR   MIcro)
    7     dE    -9.846788e-09     2.202092e-05                           (NR   MIcro)
    7     dE    -1.008428e-08     1.097968e-05                           (NR   MIcro)
    7     dE    -1.015787e-08     4.848250e-06                           (NR   MIcro)
    7     dE    -1.016992e-08     2.529743e-06                           (NR   MIcro)
    7     dE    -1.017302e-08     1.213538e-06                           (NR   MIcro)
    7     dE    -1.017373e-08     6.547023e-07                           (NR   MIcro)
WARNING: 1 diagonal Hessian elements are negative!
    8      -2780.675615966408     6.549314e-07                           (NR   MAcro)
WARNING : negative HOMO - LUMO gap : (op = alpha) -0.002236
    8     dE    -1.957220e-13     4.854881e-07                           (NR   MIcro)
WARNING: 1 diagonal Hessian elements are negative!
    9      -2780.675615966396     4.854895e-07                           (NR   MAcro)
WARNING : negative HOMO - LUMO gap : (op = alpha) -0.002236

               *****************************************************
               *                     SUCCESS                       *
               *           SCF CONVERGED AFTER 113 CYCLES          *
               *****************************************************


----------------
TOTAL SCF ENERGY
----------------

Total Energy       :        -2780.67561597 Eh          -75666.03030 eV

Components:
Nuclear Repulsion  :         4318.39746910 Eh          117509.56921 eV
Electronic Energy  :        -7099.07308507 Eh         -193175.59950 eV
One Electron Energy:       -13077.79645262 Eh         -355864.93330 eV
Two Electron Energy:         5978.72336756 Eh          162689.33380 eV

Virial components:
Potential Energy   :        -4479.25568019 Eh         -121886.74366 eV
Kinetic Energy     :         1698.58006422 Eh           46220.71336 eV
Virial Ratio       :            2.63705890


DFT components:
N(Alpha)           :      128.000012332328 electrons
N(Beta)            :      125.000015151299 electrons
N(Total)           :      253.000027483627 electrons
E(X)               :     -195.420718870150 Eh       
E(C)               :      -11.007333100584 Eh       
E(XC)              :     -206.428051970734 Eh       
DFET-embed. en.    :        0.000000000000 Eh       

---------------
SCF CONVERGENCE
---------------

  Last Energy change         ...    1.1823e-11  Tolerance :   1.0000e-08
  Last Orbital Gradient      ...    4.8549e-07  Tolerance :   1.0000e-05
  Last Orbital Rotation      ...    5.4863e-07

             **** THE GBW FILE WAS UPDATED (pbe.gbw) ****
             **** DENSITY pbe.scfp WAS UPDATED ****
             **** ENERGY FILE WAS UPDATED (pbe.en.tmp) ****
----------------------
UHF SPIN CONTAMINATION
----------------------

Warning: in a DFT calculation there is little theoretical justification to 
         calculate <S**2> as in Hartree-Fock theory. We will do it anyways
         but you should keep in mind that the values have only limited relevance

Expectation value of <S**2>     :     4.743447
Ideal value S*(S+1) for S=1.5   :     3.750000
Deviation                       :     0.993447

             **** THE GBW FILE WAS UPDATED (pbe.gbw) ****
             **** DENSITY pbe.scfp WAS UPDATED ****
----------------
ORBITAL ENERGIES
----------------
                 SPIN UP ORBITALS
  NO   OCC          E(Eh)            E(eV) 
   0   1.0000    -234.202111     -6372.9634 
   1   1.0000     -26.901352      -732.0230 
   2   1.0000     -23.051424      -627.2611 
   3   1.0000     -23.050229      -627.2286 
   4   1.0000     -23.049463      -627.2078 
   5   1.0000      -4.029812      -109.6567 
   6   1.0000      -4.029805      -109.6566 
   7   1.0000      -4.029574      -109.6503 
   8   1.0000      -4.029566      -109.6501 
   9   1.0000      -4.023887      -109.4955 
  10   1.0000      -4.023864      -109.4949 
  11   1.0000      -4.023219      -109.4774 
  12   1.0000      -4.023172      -109.4761 
  13   1.0000      -4.020462      -109.4023 
  14   1.0000      -4.020351      -109.3993 
  15   1.0000      -4.010787      -109.1391 
  16   1.0000      -4.010652      -109.1354 
  17   1.0000      -3.102826       -84.4322 
  18   1.0000      -2.251282       -61.2605 
  19   1.0000      -2.251179       -61.2577 
  20   1.0000      -2.247754       -61.1645 
  21   1.0000      -2.247691       -61.1628 
  22   1.0000      -2.244549       -61.0773 
  23   1.0000      -2.244526       -61.0766 
  24   1.0000      -2.243246       -61.0418 
  25   1.0000      -2.243197       -61.0405 
  26   1.0000      -2.242228       -61.0141 
  27   1.0000      -2.242143       -61.0118 
  28   1.0000      -2.240030       -60.9543 
  29   1.0000      -2.240001       -60.9535 
  30   1.0000      -2.237422       -60.8834 
  31   1.0000      -2.237341       -60.8811 
  32   1.0000      -2.236830       -60.8672 
  33   1.0000      -2.236223       -60.8507 
  34   1.0000      -2.236148       -60.8487 
  35   1.0000      -2.235917       -60.8424 
  36   1.0000      -2.235875       -60.8413 
  37   1.0000      -2.234749       -60.8106 
  38   1.0000      -2.234677       -60.8086 
  39   1.0000      -2.234590       -60.8063 
  40   1.0000      -2.233482       -60.7761 
  41   1.0000      -2.233221       -60.7690 
  42   1.0000      -2.232448       -60.7480 
  43   1.0000      -2.231736       -60.7286 
  44   1.0000      -2.231045       -60.7098 
  45   1.0000      -2.230662       -60.6994 
  46   1.0000      -2.228764       -60.6477 
  47   1.0000      -2.228706       -60.6462 
  48   1.0000      -2.225827       -60.5678 
  49   1.0000      -2.224504       -60.5318 
  50   1.0000      -2.223644       -60.5084 
  51   1.0000      -2.222349       -60.4732 
  52   1.0000      -2.222118       -60.4669 
  53   1.0000      -2.222077       -60.4658 
  54   1.0000      -2.006854       -54.6093 
  55   1.0000      -2.005933       -54.5842 
  56   1.0000      -2.003349       -54.5139 
  57   1.0000      -0.418926       -11.3995 
  58   1.0000      -0.380192       -10.3455 
  59   1.0000      -0.375912       -10.2291 
  60   1.0000      -0.371405       -10.1065 
  61   1.0000      -0.367728       -10.0064 
  62   1.0000      -0.364328        -9.9139 
  63   1.0000      -0.359428        -9.7805 
  64   1.0000      -0.358379        -9.7520 
  65   1.0000      -0.357202        -9.7200 
  66   1.0000      -0.355123        -9.6634 
  67   1.0000      -0.352365        -9.5883 
  68   1.0000      -0.342916        -9.3312 
  69   1.0000      -0.340481        -9.2650 
  70   1.0000      -0.334180        -9.0935 
  71   1.0000      -0.332499        -9.0478 
  72   1.0000      -0.332207        -9.0398 
  73   1.0000      -0.330323        -8.9885 
  74   1.0000      -0.328138        -8.9291 
  75   1.0000      -0.324782        -8.8378 
  76   1.0000      -0.322970        -8.7885 
  77   1.0000      -0.320235        -8.7140 
  78   1.0000      -0.316575        -8.6145 
  79   1.0000      -0.313876        -8.5410 
  80   1.0000      -0.312073        -8.4919 
  81   1.0000      -0.310737        -8.4556 
  82   1.0000      -0.309375        -8.4185 
  83   1.0000      -0.307228        -8.3601 
  84   1.0000      -0.306504        -8.3404 
  85   1.0000      -0.303687        -8.2637 
  86   1.0000      -0.302200        -8.2233 
  87   1.0000      -0.292312        -7.9542 
  88   1.0000      -0.286883        -7.8065 
  89   1.0000      -0.286233        -7.7888 
  90   1.0000      -0.286050        -7.7838 
  91   1.0000      -0.284173        -7.7327 
  92   1.0000      -0.279764        -7.6128 
  93   1.0000      -0.279562        -7.6073 
  94   1.0000      -0.279151        -7.5961 
  95   1.0000      -0.278749        -7.5851 
  96   1.0000      -0.276321        -7.5191 
  97   1.0000      -0.275179        -7.4880 
  98   1.0000      -0.274708        -7.4752 
  99   1.0000      -0.270397        -7.3579 
 100   1.0000      -0.269381        -7.3302 
 101   1.0000      -0.267066        -7.2672 
 102   1.0000      -0.266138        -7.2420 
 103   1.0000      -0.264437        -7.1957 
 104   1.0000      -0.263272        -7.1640 
 105   1.0000      -0.263142        -7.1605 
 106   1.0000      -0.261995        -7.1292 
 107   1.0000      -0.260826        -7.0974 
 108   1.0000      -0.260559        -7.0902 
 109   1.0000      -0.255919        -6.9639 
 110   1.0000      -0.255292        -6.9468 
 111   1.0000      -0.251814        -6.8522 
 112   1.0000      -0.251376        -6.8403 
 113   1.0000      -0.250153        -6.8070 
 114   1.0000      -0.248569        -6.7639 
 115   1.0000      -0.247407        -6.7323 
 116   1.0000      -0.243457        -6.6248 
 117   1.0000      -0.242545        -6.6000 
 118   1.0000      -0.241679        -6.5764 
 119   1.0000      -0.240688        -6.5495 
 120   1.0000      -0.237883        -6.4731 
 121   1.0000      -0.236345        -6.4313 
 122   1.0000      -0.234357        -6.3772 
 123   1.0000      -0.229068        -6.2333 
 124   1.0000      -0.226803        -6.1716 
 125   1.0000      -0.221870        -6.0374 
 126   1.0000      -0.221364        -6.0236 
 127   1.0000      -0.186296        -5.0694 
 128   0.0000      -0.188532        -5.1302 
 129   0.0000      -0.173635        -4.7248 
 130   0.0000      -0.139964        -3.8086 
 131   0.0000      -0.127708        -3.4751 
 132   0.0000      -0.125992        -3.4284 
 133   0.0000      -0.123762        -3.3677 
 134   0.0000      -0.103957        -2.8288 
 135   0.0000      -0.087926        -2.3926 
 136   0.0000      -0.059419        -1.6169 
 137   0.0000      -0.054417        -1.4808 
 138   0.0000      -0.050792        -1.3821 
 139   0.0000      -0.047356        -1.2886 
 140   0.0000      -0.034380        -0.9355 
 141   0.0000      -0.030638        -0.8337 
 142   0.0000      -0.028638        -0.7793 
 143   0.0000      -0.025340        -0.6895 
 144   0.0000       0.007648         0.2081 
 145   0.0000       0.011504         0.3130 
 146   0.0000       0.013841         0.3766 
 147   0.0000       0.026460         0.7200 
 148   0.0000       0.029073         0.7911 
 149   0.0000       0.036701         0.9987 
 150   0.0000       0.040717         1.1080 
 151   0.0000       0.041801         1.1375 
 152   0.0000       0.048304         1.3144 
 153   0.0000       0.050559         1.3758 
 154   0.0000       0.059403         1.6165 
 155   0.0000       0.063601         1.7307 
 156   0.0000       0.063738         1.7344 
 157   0.0000       0.066340         1.8052 
 158   0.0000       0.072613         1.9759 
 159   0.0000       0.075078         2.0430 
 160   0.0000       0.086539         2.3549 
 161   0.0000       0.089103         2.4246 
 162   0.0000       0.090447         2.4612 
 163   0.0000       0.093964         2.5569 
 164   0.0000       0.108042         2.9400 
 165   0.0000       0.110782         3.0145 
 166   0.0000       0.115777         3.1505 
 167   0.0000       0.120914         3.2902 
 168   0.0000       0.143673         3.9095 
 169   0.0000       0.146822         3.9952 
 170   0.0000       0.147867         4.0237 
 171   0.0000       0.148021         4.0279 
 172   0.0000       0.149757         4.0751 
 173   0.0000       0.164668         4.4808 
 174   0.0000       0.165407         4.5010 
 175   0.0000       0.168337         4.5807 
 176   0.0000       0.174775         4.7559 
 177   0.0000       0.175733         4.7819 
 178   0.0000       0.181490         4.9386 
 179   0.0000       0.205980         5.6050 
 180   0.0000       0.212743         5.7890 
 181   0.0000       0.215940         5.8760 
 182   0.0000       0.217562         5.9202 
 183   0.0000       0.221512         6.0276 
 184   0.0000       0.224722         6.1150 
 185   0.0000       0.226394         6.1605 
 186   0.0000       0.234383         6.3779 
 187   0.0000       0.242271         6.5925 
 188   0.0000       0.250031         6.8037 
 189   0.0000       0.257952         7.0192 
 190   0.0000       0.258150         7.0246 
 191   0.0000       0.264070         7.1857 
 192   0.0000       0.264510         7.1977 
 193   0.0000       0.267090         7.2679 
 194   0.0000       0.267684         7.2840 
 195   0.0000       0.270882         7.3711 
 196   0.0000       0.277840         7.5604 
 197   0.0000       0.280243         7.6258 
 198   0.0000       0.287164         7.8141 
 199   0.0000       0.290171         7.8960 
 200   0.0000       0.306161         8.3311 
 201   0.0000       0.306350         8.3362 
 202   0.0000       0.310498         8.4491 
 203   0.0000       0.313822         8.5395 
 204   0.0000       0.314982         8.5711 
 205   0.0000       0.317921         8.6511 
 206   0.0000       0.331206         9.0126 
 207   0.0000       0.334064         9.0904 
 208   0.0000       0.337209         9.1759 
 209   0.0000       0.346346         9.4246 
 210   0.0000       0.348424         9.4811 
 211   0.0000       0.349765         9.5176 
 212   0.0000       0.351261         9.5583 
 213   0.0000       0.361072         9.8253 
 214   0.0000       0.362030         9.8513 
 215   0.0000       0.381105        10.3704 
 216   0.0000       0.385025        10.4771 
 217   0.0000       0.392545        10.6817 
 218   0.0000       0.397443        10.8150 
 219   0.0000       0.398079        10.8323 
 220   0.0000       0.398965        10.8564 
 221   0.0000       0.406382        11.0582 
 222   0.0000       0.412996        11.2382 
 223   0.0000       0.420592        11.4449 
 224   0.0000       0.425112        11.5679 
 225   0.0000       0.425428        11.5765 
 226   0.0000       0.429036        11.6747 
 227   0.0000       0.433901        11.8070 
 228   0.0000       0.434806        11.8317 
 229   0.0000       0.438705        11.9378 
 230   0.0000       0.442045        12.0287 
 231   0.0000       0.443203        12.0602 
 232   0.0000       0.459888        12.5142 
 233   0.0000       0.464047        12.6274 
 234   0.0000       0.471935        12.8420 
 235   0.0000       0.475538        12.9401 
 236   0.0000       0.477846        13.0028 
 237   0.0000       0.492900        13.4125 
 238   0.0000       0.505326        13.7506 
 239   0.0000       0.508218        13.8293 
 240   0.0000       0.510250        13.8846 
 241   0.0000       0.511175        13.9098 
 242   0.0000       0.511747        13.9253 
 243   0.0000       0.513699        13.9785 
 244   0.0000       0.517924        14.0934 
 245   0.0000       0.521019        14.1777 
 246   0.0000       0.523376        14.2418 
[...]
 140( 0) :    -0.033510 a.u.    -0.912 eV
 141( 0) :    -0.026663 a.u.    -0.726 eV
 142( 0) :    -0.025500 a.u.    -0.694 eV
 143( 0) :    -0.024815 a.u.    -0.675 eV
 144( 0) :    -0.008000 a.u.    -0.218 eV
 145( 0) :     0.002681 a.u.     0.073 eV
 146( 0) :     0.005546 a.u.     0.151 eV
 147( 0) :     0.028575 a.u.     0.778 eV
 148( 0) :     0.038698 a.u.     1.053 eV
 149( 0) :     0.039877 a.u.     1.085 eV
 150( 0) :     0.044994 a.u.     1.224 eV
 151( 0) :     0.045544 a.u.     1.239 eV
 152( 0) :     0.048329 a.u.     1.315 eV
 153( 0) :     0.054356 a.u.     1.479 eV
 154( 0) :     0.058234 a.u.     1.585 eV
 155( 0) :     0.062429 a.u.     1.699 eV
 156( 0) :     0.064583 a.u.     1.757 eV
 157( 0) :     0.070325 a.u.     1.914 eV
 158( 0) :     0.072020 a.u.     1.960 eV
 159( 0) :     0.077402 a.u.     2.106 eV
 160( 0) :     0.087576 a.u.     2.383 eV
 161( 0) :     0.091706 a.u.     2.495 eV
 162( 0) :     0.095691 a.u.     2.604 eV
 163( 0) :     0.102040 a.u.     2.777 eV
 164( 0) :     0.103214 a.u.     2.809 eV
 165( 0) :     0.110024 a.u.     2.994 eV
 166( 0) :     0.118314 a.u.     3.219 eV
 167( 0) :     0.122652 a.u.     3.338 eV
 168( 0) :     0.127611 a.u.     3.472 eV
 169( 0) :     0.141983 a.u.     3.864 eV
 170( 0) :     0.147889 a.u.     4.024 eV
 171( 0) :     0.151154 a.u.     4.113 eV
 172( 0) :     0.157350 a.u.     4.282 eV
 173( 0) :     0.158172 a.u.     4.304 eV
 174( 0) :     0.173212 a.u.     4.713 eV
 175( 0) :     0.175606 a.u.     4.778 eV
 176( 0) :     0.177687 a.u.     4.835 eV
 177( 0) :     0.184375 a.u.     5.017 eV
 178( 0) :     0.186236 a.u.     5.068 eV
 179( 0) :     0.200604 a.u.     5.459 eV
 180( 0) :     0.205005 a.u.     5.578 eV
 181( 0) :     0.205892 a.u.     5.603 eV
 182( 0) :     0.212098 a.u.     5.771 eV
 183( 0) :     0.212720 a.u.     5.788 eV
 184( 0) :     0.217540 a.u.     5.920 eV
 185( 0) :     0.230044 a.u.     6.260 eV
 186( 0) :     0.233733 a.u.     6.360 eV
 187( 0) :     0.236215 a.u.     6.428 eV
 188( 0) :     0.241977 a.u.     6.585 eV
 189( 0) :     0.249415 a.u.     6.787 eV
 190( 0) :     0.253858 a.u.     6.908 eV
 191( 0) :     0.255086 a.u.     6.941 eV
 192( 0) :     0.258609 a.u.     7.037 eV
 193( 0) :     0.263147 a.u.     7.161 eV
 194( 0) :     0.266056 a.u.     7.240 eV
 195( 0) :     0.266839 a.u.     7.261 eV
 196( 0) :     0.268943 a.u.     7.318 eV
 197( 0) :     0.275774 a.u.     7.504 eV
 198( 0) :     0.279522 a.u.     7.606 eV
 199( 0) :     0.292563 a.u.     7.961 eV
 200( 0) :     0.293459 a.u.     7.985 eV
 201( 0) :     0.300593 a.u.     8.180 eV
 202( 0) :     0.305169 a.u.     8.304 eV
 203( 0) :     0.307998 a.u.     8.381 eV
 204( 0) :     0.317698 a.u.     8.645 eV
 205( 0) :     0.331060 a.u.     9.009 eV
 206( 0) :     0.333893 a.u.     9.086 eV
 207( 0) :     0.333962 a.u.     9.088 eV
 208( 0) :     0.339351 a.u.     9.234 eV
 209( 0) :     0.339614 a.u.     9.241 eV
 210( 0) :     0.345801 a.u.     9.410 eV
 211( 0) :     0.346154 a.u.     9.419 eV
 212( 0) :     0.347739 a.u.     9.462 eV
 213( 0) :     0.355559 a.u.     9.675 eV
 214( 0) :     0.362538 a.u.     9.865 eV
 215( 0) :     0.370410 a.u.    10.079 eV
 216( 0) :     0.379031 a.u.    10.314 eV
 217( 0) :     0.393580 a.u.    10.710 eV
 218( 0) :     0.393681 a.u.    10.713 eV
 219( 0) :     0.396571 a.u.    10.791 eV
 220( 0) :     0.408910 a.u.    11.127 eV
 221( 0) :     0.409522 a.u.    11.144 eV
 222( 0) :     0.413588 a.u.    11.254 eV
 223( 0) :     0.415162 a.u.    11.297 eV
 224( 0) :     0.417982 a.u.    11.374 eV
 225( 0) :     0.433264 a.u.    11.790 eV
 226( 0) :     0.441343 a.u.    12.010 eV
 227( 0) :     0.445348 a.u.    12.119 eV
 228( 0) :     0.448813 a.u.    12.213 eV
 229( 0) :     0.450789 a.u.    12.267 eV
 230( 0) :     0.457542 a.u.    12.450 eV
 231( 0) :     0.462162 a.u.    12.576 eV
 232( 0) :     0.470118 a.u.    12.793 eV
 233( 0) :     0.473377 a.u.    12.881 eV
 234( 0) :     0.477241 a.u.    12.986 eV
 235( 0) :     0.484771 a.u.    13.191 eV
 236( 0) :     0.490886 a.u.    13.358 eV
 237( 0) :     0.491332 a.u.    13.370 eV
 238( 0) :     0.496099 a.u.    13.500 eV
 239( 0) :     0.496918 a.u.    13.522 eV
 240( 0) :     0.499937 a.u.    13.604 eV
 241( 0) :     0.502737 a.u.    13.680 eV
 242( 0) :     0.504688 a.u.    13.733 eV
 243( 0) :     0.508791 a.u.    13.845 eV
 244( 0) :     0.521828 a.u.    14.200 eV
 245( 0) :     0.521989 a.u.    14.204 eV
 246( 0) :     0.524684 a.u.    14.277 eV
 247( 0) :     0.531941 a.u.    14.475 eV
 248( 0) :     0.546604 a.u.    14.874 eV
 249( 0) :     0.559460 a.u.    15.224 eV
 250( 0) :     0.560385 a.u.    15.249 eV
 251( 0) :     0.571676 a.u.    15.556 eV
 252( 0) :     0.621729 a.u.    16.918 eV
 253( 0) :     0.633755 a.u.    17.245 eV
 254( 0) :     0.640551 a.u.    17.430 eV
 255( 0) :     0.650086 a.u.    17.690 eV
 256( 0) :     0.656265 a.u.    17.858 eV
 257( 0) :     0.658786 a.u.    17.926 eV
 258( 0) :     0.672123 a.u.    18.289 eV
 259( 0) :     0.675683 a.u.    18.386 eV
 260( 0) :     0.691695 a.u.    18.822 eV
 261( 0) :     0.696441 a.u.    18.951 eV
 262( 0) :     0.698190 a.u.    18.999 eV
 263( 0) :     0.701721 a.u.    19.095 eV
 264( 0) :     0.737989 a.u.    20.082 eV
 265( 0) :     0.742804 a.u.    20.213 eV
 266( 0) :     0.756718 a.u.    20.591 eV
 267( 0) :     0.763331 a.u.    20.771 eV
 268( 0) :     0.770466 a.u.    20.965 eV
 269( 0) :     0.779827 a.u.    21.220 eV
 270( 0) :     0.782559 a.u.    21.295 eV
 271( 0) :     0.783243 a.u.    21.313 eV
 272( 0) :     0.804739 a.u.    21.898 eV
 273( 0) :     0.805427 a.u.    21.917 eV
 274( 0) :     0.817684 a.u.    22.250 eV
 275( 0) :     0.835195 a.u.    22.727 eV
 276( 0) :     0.846899 a.u.    23.045 eV
 277( 0) :     0.874178 a.u.    23.788 eV
 278( 0) :     0.906719 a.u.    24.673 eV
 279( 0) :     0.913120 a.u.    24.847 eV
 280( 0) :     0.921432 a.u.    25.073 eV
 281( 0) :     0.922308 a.u.    25.097 eV
 282( 0) :     0.923619 a.u.    25.133 eV
 283( 0) :     0.938341 a.u.    25.534 eV
 284( 0) :     0.954650 a.u.    25.977 eV
 285( 0) :     0.960471 a.u.    26.136 eV
 286( 0) :     0.996069 a.u.    27.104 eV
 287( 0) :     1.061097 a.u.    28.874 eV
 288( 0) :     1.092634 a.u.    29.732 eV
 289( 0) :     1.095091 a.u.    29.799 eV
 290( 0) :     1.156102 a.u.    31.459 eV
 291( 0) :     1.178618 a.u.    32.072 eV
 292( 0) :     1.179564 a.u.    32.098 eV
 293( 0) :     1.206857 a.u.    32.840 eV
 294( 0) :     1.229278 a.u.    33.450 eV
 295( 0) :     1.230127 a.u.    33.473 eV
 296( 0) :     1.244654 a.u.    33.869 eV
 297( 0) :     1.270509 a.u.    34.572 eV
 298( 0) :     1.271915 a.u.    34.611 eV
 299( 0) :     1.286269 a.u.    35.001 eV
 300( 0) :     1.293788 a.u.    35.206 eV
 301( 0) :     1.304673 a.u.    35.502 eV
 302( 0) :     1.307744 a.u.    35.586 eV
 303( 0) :     1.323444 a.u.    36.013 eV
 304( 0) :     1.326256 a.u.    36.089 eV
 305( 0) :     1.335572 a.u.    36.343 eV
 306( 0) :     1.339862 a.u.    36.459 eV
 307( 0) :     1.353382 a.u.    36.827 eV
 308( 0) :     1.360081 a.u.    37.010 eV
 309( 0) :     1.374680 a.u.    37.407 eV
 310( 0) :     1.382414 a.u.    37.617 eV
 311( 0) :     1.386488 a.u.    37.728 eV
 312( 0) :     1.400304 a.u.    38.104 eV
 313( 0) :     1.404533 a.u.    38.219 eV
 314( 0) :     1.406546 a.u.    38.274 eV
 315( 0) :     1.415399 a.u.    38.515 eV
 316( 0) :     1.419011 a.u.    38.613 eV
 317( 0) :     1.420371 a.u.    38.650 eV
 318( 0) :     1.421480 a.u.    38.680 eV
 319( 0) :     1.426677 a.u.    38.822 eV
 320( 0) :     1.427508 a.u.    38.844 eV
 321( 0) :     1.432635 a.u.    38.984 eV
 322( 0) :     1.436812 a.u.    39.098 eV
 323( 0) :     1.443670 a.u.    39.284 eV
 324( 0) :     1.443977 a.u.    39.293 eV
 325( 0) :     1.448354 a.u.    39.412 eV
 326( 0) :     1.451646 a.u.    39.501 eV
 327( 0) :     1.452006 a.u.    39.511 eV
 328( 0) :     1.458936 a.u.    39.700 eV
 329( 0) :     1.463033 a.u.    39.811 eV
 330( 0) :     1.464776 a.u.    39.859 eV
 331( 0) :     1.468481 a.u.    39.959 eV
 332( 0) :     1.469760 a.u.    39.994 eV
 333( 0) :     1.472438 a.u.    40.067 eV
 334( 0) :     1.477248 a.u.    40.198 eV
 335( 0) :     1.478942 a.u.    40.244 eV
 336( 0) :     1.479560 a.u.    40.261 eV
 337( 0) :     1.481315 a.u.    40.309 eV
 338( 0) :     1.482292 a.u.    40.335 eV
 339( 0) :     1.486678 a.u.    40.455 eV
 340( 0) :     1.486980 a.u.    40.463 eV
 341( 0) :     1.489582 a.u.    40.534 eV
 342( 0) :     1.493023 a.u.    40.627 eV
 343( 0) :     1.494577 a.u.    40.669 eV
 344( 0) :     1.495093 a.u.    40.684 eV
 345( 0) :     1.495348 a.u.    40.690 eV
 346( 0) :     1.500626 a.u.    40.834 eV
 347( 0) :     1.501807 a.u.    40.866 eV
 348( 0) :     1.502777 a.u.    40.893 eV
 349( 0) :     1.503060 a.u.    40.900 eV
 350( 0) :     1.504662 a.u.    40.944 eV
 351( 0) :     1.506736 a.u.    41.000 eV
 352( 0) :     1.508761 a.u.    41.055 eV
 353( 0) :     1.509525 a.u.    41.076 eV
 354( 0) :     1.510580 a.u.    41.105 eV
 355( 0) :     1.515746 a.u.    41.246 eV
 356( 0) :     1.516797 a.u.    41.274 eV
 357( 0) :     1.517373 a.u.    41.290 eV
 358( 0) :     1.518290 a.u.    41.315 eV
 359( 0) :     1.519842 a.u.    41.357 eV
 360( 0) :     1.521687 a.u.    41.407 eV
 361( 0) :     1.523699 a.u.    41.462 eV
 362( 0) :     1.525210 a.u.    41.503 eV
 363( 0) :     1.526702 a.u.    41.544 eV
 364( 0) :     1.527469 a.u.    41.565 eV
 365( 0) :     1.528847 a.u.    41.602 eV
 366( 0) :     1.528962 a.u.    41.605 eV
 367( 0) :     1.532456 a.u.    41.700 eV
 368( 0) :     1.532811 a.u.    41.710 eV
 369( 0) :     1.535575 a.u.    41.785 eV
 370( 0) :     1.536424 a.u.    41.808 eV
 371( 0) :     1.537696 a.u.    41.843 eV
 372( 0) :     1.539372 a.u.    41.888 eV
 373( 0) :     1.542533 a.u.    41.974 eV
 374( 0) :     1.544581 a.u.    42.030 eV
 375( 0) :     1.546584 a.u.    42.085 eV
 376( 0) :     1.550487 a.u.    42.191 eV
 377( 0) :     1.551695 a.u.    42.224 eV
 378( 0) :     1.554336 a.u.    42.296 eV
 379( 0) :     1.554777 a.u.    42.308 eV
 380( 0) :     1.561582 a.u.    42.493 eV
 381( 0) :     1.563828 a.u.    42.554 eV
 382( 0) :     1.564006 a.u.    42.559 eV
 383( 0) :     1.566019 a.u.    42.614 eV
 384( 0) :     1.570069 a.u.    42.724 eV
 385( 0) :     1.574116 a.u.    42.834 eV
 386( 0) :     1.575105 a.u.    42.861 eV
 387( 0) :     1.576428 a.u.    42.897 eV
 388( 0) :     1.578734 a.u.    42.960 eV
 389( 0) :     1.580663 a.u.    43.012 eV
 390( 0) :     1.585717 a.u.    43.150 eV
 391( 0) :     1.588634 a.u.    43.229 eV
 392( 0) :     1.593011 a.u.    43.348 eV
 393( 0) :     1.598591 a.u.    43.500 eV
 394( 0) :     1.601554 a.u.    43.581 eV
 395( 0) :     1.603411 a.u.    43.631 eV
 396( 0) :     1.603735 a.u.    43.640 eV
 397( 0) :     1.607144 a.u.    43.733 eV
 398( 0) :     1.610920 a.u.    43.835 eV
 399( 0) :     1.613284 a.u.    43.900 eV
 400( 0) :     1.621245 a.u.    44.116 eV
 401( 0) :     1.628243 a.u.    44.307 eV
 402( 0) :     1.629656 a.u.    44.345 eV
 403( 0) :     1.631984 a.u.    44.409 eV
 404( 0) :     1.638952 a.u.    44.598 eV
 405( 0) :     1.639011 a.u.    44.600 eV
 406( 0) :     1.647806 a.u.    44.839 eV
 407( 0) :     1.652384 a.u.    44.964 eV
 408( 0) :     1.658526 a.u.    45.131 eV
 409( 0) :     1.669701 a.u.    45.435 eV
 410( 0) :     1.675853 a.u.    45.602 eV
 411( 0) :     1.681802 a.u.    45.764 eV
 412( 0) :     1.695072 a.u.    46.125 eV
 413( 0) :     1.708150 a.u.    46.481 eV
 414( 0) :     1.712115 a.u.    46.589 eV
 415( 0) :     1.715210 a.u.    46.673 eV
 416( 0) :     1.730987 a.u.    47.103 eV
 417( 0) :     1.736581 a.u.    47.255 eV
 418( 0) :     1.745268 a.u.    47.491 eV
 419( 0) :     1.754519 a.u.    47.743 eV
 420( 0) :     1.770545 a.u.    48.179 eV
 421( 0) :     1.779033 a.u.    48.410 eV
 422( 0) :     1.784534 a.u.    48.560 eV
 423( 0) :     1.793784 a.u.    48.811 eV
 424( 0) :     1.803391 a.u.    49.073 eV
 425( 0) :     1.813074 a.u.    49.336 eV
 426( 0) :     1.814521 a.u.    49.376 eV
 427( 0) :     1.826019 a.u.    49.688 eV
 428( 0) :     1.846214 a.u.    50.238 eV
 429( 0) :     1.858121 a.u.    50.562 eV
 430( 0) :     1.873927 a.u.    50.992 eV
 431( 0) :     1.899621 a.u.    51.691 eV
 432( 0) :     1.911137 a.u.    52.005 eV
 433( 0) :     1.918571 a.u.    52.207 eV
 434( 0) :     1.927459 a.u.    52.449 eV
 435( 0) :     1.988756 a.u.    54.117 eV
 436( 0) :     2.081705 a.u.    56.646 eV
 437( 0) :     2.108379 a.u.    57.372 eV
 438( 0) :     2.157649 a.u.    58.713 eV
 439( 0) :     2.236507 a.u.    60.858 eV
 440( 0) :     2.252728 a.u.    61.300 eV
 441( 0) :     2.310894 a.u.    62.883 eV
 442( 0) :     2.379456 a.u.    64.748 eV
 443( 0) :     2.391163 a.u.    65.067 eV
 444( 0) :     2.412531 a.u.    65.648 eV
 445( 0) :     2.433294 a.u.    66.213 eV
 446( 0) :     2.456766 a.u.    66.852 eV
 447( 0) :     2.467555 a.u.    67.146 eV
 448( 0) :     2.484241 a.u.    67.600 eV
 449( 0) :     2.485548 a.u.    67.635 eV
 450( 0) :     2.533458 a.u.    68.939 eV
 451( 0) :     2.558509 a.u.    69.621 eV
 452( 0) :     2.964736 a.u.    80.675 eV
 453( 0) :     3.243080 a.u.    88.249 eV
 454( 0) :     3.247028 a.u.    88.356 eV
 455( 0) :     3.252224 a.u.    88.498 eV
 456( 0) :     3.258058 a.u.    88.656 eV
 457( 0) :     3.262327 a.u.    88.772 eV
 458( 0) :     3.277784 a.u.    89.193 eV
 459( 0) :     3.279500 a.u.    89.240 eV
 460( 0) :     3.290089 a.u.    89.528 eV
 461( 0) :     3.427540 a.u.    93.268 eV
 462( 0) :     3.431796 a.u.    93.384 eV
 463( 0) :     3.449018 a.u.    93.853 eV
 464( 0) :     3.494017 a.u.    95.077 eV
 465( 0) :    23.848465 a.u.   648.950 eV
 466( 0) :    23.863679 a.u.   649.364 eV
 467( 0) :    24.153932 a.u.   657.262 eV
 468( 0) :    24.330107 a.u.   662.056 eV
 469( 0) :    24.414761 a.u.   664.359 eV
 470( 0) :    24.435198 a.u.   664.916 eV
 471( 0) :    24.630415 a.u.   670.228 eV
 472( 0) :    24.776885 a.u.   674.213 eV
 473( 0) :    24.963983 a.u.   679.305 eV
 474( 0) :    25.175777 a.u.   685.068 eV
 475( 0) :    25.227185 a.u.   686.467 eV
 476( 0) :    25.316945 a.u.   688.909 eV
 477( 0) :    25.468929 a.u.   693.045 eV
 478( 0) :    25.494536 a.u.   693.742 eV
 479( 0) :    25.818764 a.u.   702.564 eV
 480( 0) :    25.842263 a.u.   703.204 eV
 481( 0) :    25.998584 a.u.   707.457 eV
 482( 0) :    26.057686 a.u.   709.066 eV
 483( 0) :    26.189780 a.u.   712.660 eV
 484( 0) :    26.332862 a.u.   716.554 eV
 485( 0) :    26.335955 a.u.   716.638 eV
 486( 0) :    26.651985 a.u.   725.237 eV
 487( 0) :    26.755041 a.u.   728.042 eV
 488( 0) :    26.802830 a.u.   729.342 eV
 489( 0) :    26.991022 a.u.   734.463 eV
 490( 0) :    27.033460 a.u.   735.618 eV
 491( 0) :    27.192303 a.u.   739.940 eV
 492( 0) :    27.702957 a.u.   753.836 eV
 493( 0) :    27.891436 a.u.   758.965 eV
 494( 0) :    28.176284 a.u.   766.716 eV
 495( 0) :    28.291609 a.u.   769.854 eV
 496( 0) :    28.357938 a.u.   771.659 eV
 497( 0) :    28.525227 a.u.   776.211 eV
 498( 0) :    30.070846 a.u.   818.269 eV
 499( 0) :    30.417231 a.u.   827.695 eV
 500( 0) :    30.506345 a.u.   830.120 eV
 501( 0) :    43.859366 a.u.  1193.474 eV
 502( 0) :    43.976202 a.u.  1196.653 eV
 503( 0) :    44.004962 a.u.  1197.436 eV
 504( 0) :    44.014391 a.u.  1197.692 eV
 505( 0) :    44.078621 a.u.  1199.440 eV
 506( 0) :    44.114399 a.u.  1200.414 eV
 507( 0) :    44.115367 a.u.  1200.440 eV
 508( 0) :    44.133360 a.u.  1200.930 eV
 509( 0) :    44.135762 a.u.  1200.995 eV
 510( 0) :    44.138500 a.u.  1201.070 eV
 511( 0) :    44.183479 a.u.  1202.294 eV
 512( 0) :    44.264633 a.u.  1204.502 eV
 513( 0) :   205.074568 a.u.  5580.363 eV
 514( 0) :   205.123130 a.u.  5581.684 eV
 515( 0) :   205.134167 a.u.  5581.984 eV
 516( 0) :   205.136052 a.u.  5582.036 eV
 517( 0) :   205.168467 a.u.  5582.918 eV
 518( 0) :   205.181398 a.u.  5583.270 eV
 519( 0) :   205.183692 a.u.  5583.332 eV
 520( 0) :   205.186916 a.u.  5583.420 eV
 521( 0) :   205.187004 a.u.  5583.422 eV
 522( 0) :   205.189358 a.u.  5583.486 eV
 523( 0) :   205.208337 a.u.  5584.003 eV
 524( 0) :   205.234076 a.u.  5584.703 eV
-------
TIMINGS
-------

Total SCF time: 0 days 0 hours 6 min 52 sec 

Total time                  ....     412.228 sec
Sum of individual times     ....     407.104 sec  ( 98.8%)

Fock matrix formation       ....     395.230 sec  ( 95.9%)
  Split-RI-J                ....     138.966 sec  ( 35.2% of F)
  XC integration            ....     255.574 sec  ( 64.7% of F)
    Basis function eval.    ....      40.778 sec  ( 16.0% of XC)
    Density eval.           ....     120.201 sec  ( 47.0% of XC)
    XC-Functional eval.     ....       5.430 sec  (  2.1% of XC)
    XC-Potential eval.      ....      79.179 sec  ( 31.0% of XC)
Diagonalization             ....       3.789 sec  (  0.9%)
Density matrix formation    ....       0.594 sec  (  0.1%)
Population analysis         ....       2.307 sec  (  0.6%)
Initial guess               ....       0.286 sec  (  0.1%)
Orbital Transformation      ....       0.936 sec  (  0.2%)
Orbital Orthonormalization  ....       0.247 sec  (  0.1%)
DIIS solution               ....       0.000 sec  (  0.0%)
Grid generation             ....       3.957 sec  (  1.0%)

Maximum memory used throughout the entire SCF-calculation: 483.2 MB

-------------------------   --------------------
FINAL SINGLE POINT ENERGY     -2780.694899777112
-------------------------   --------------------

                                *** OPTIMIZATION RUN DONE ***

                            ***************************************
                            *     ORCA property calculations      *
                            ***************************************

                                    ---------------------
                                    Active property flags
                                    ---------------------
   (+) Dipole Moment


------------------------------------------------------------------------------
                       ORCA ELECTRIC PROPERTIES CALCULATION
------------------------------------------------------------------------------

Dipole Moment Calculation                       ... on
Quadrupole Moment Calculation                   ... off
Polarizability Calculation                      ... off
GBWName                                         ... pbe.gbw
Electron density                                ... pbe.scfp
The origin for moment calculation is the CENTER OF MASS  = (16.788153, 16.340307 14.745962)

-------------
DIPOLE MOMENT
-------------
                                X             Y             Z
Electronic contribution:    -10.52119     -17.93562      -8.14996
Nuclear contribution   :     10.49745      17.89479       8.13189
                        -----------------------------------------
Total Dipole Moment    :     -0.02374      -0.04083      -0.01807
                        -----------------------------------------
Magnitude (a.u.)       :      0.05057
Magnitude (Debye)      :      0.12853



--------------------
Rotational spectrum 
--------------------
 
Rotational constants in cm-1:     0.001730     0.001168     0.000996 
Rotational constants in MHz :    51.861552    35.018381    29.872095 

 Dipole components along the rotational axes: 
x,y,z [a.u.] :    -0.050565     0.000011     0.000273 
x,y,z [Debye]:    -0.128526     0.000027     0.000695 

 

Timings for individual modules:

Sum of individual times         ...    36616.921 sec (= 610.282 min)
GTO integral calculation        ...      567.909 sec (=   9.465 min)   1.6 %
SCF iterations                  ...    29371.495 sec (= 489.525 min)  80.2 %
SCF Gradient evaluation         ...     6670.117 sec (= 111.169 min)  18.2 %
Geometry relaxation             ...        7.400 sec (=   0.123 min)   0.0 %
                             ****ORCA TERMINATED NORMALLY****
TOTAL RUN TIME: 0 days 10 hours 10 minutes 22 seconds 5 msec
