
                                 *****************
                                 * O   R   C   A *
                                 *****************

                                            #,                                       
                                            ###                                      
                                            ####                                     
                                            #####                                    
                                            ######                                   
                                           ########,                                 
                                     ,,################,,,,,                         
                               ,,#################################,,                 
                          ,,##########################################,,             
                       ,#########################################, ''#####,          
                    ,#############################################,,   '####,        
                  ,##################################################,,,,####,       
                ,###########''''           ''''###############################       
              ,#####''   ,,,,##########,,,,          '''####'''          '####       
            ,##' ,,,,###########################,,,                        '##       
           ' ,,###''''                  '''############,,,                           
         ,,##''                                '''############,,,,        ,,,,,,###''
      ,#''                                            '''#######################'''  
     '                                                          ''''####''''         
             ,#######,   #######,   ,#######,      ##                                
            ,#'     '#,  ##    ##  ,#'     '#,    #''#        ######   ,####,        
            ##       ##  ##   ,#'  ##            #'  '#       #        #'  '#        
            ##       ##  #######   ##           ,######,      #####,   #    #        
            '#,     ,#'  ##    ##  '#,     ,#' ,#      #,         ##   #,  ,#        
             '#######'   ##     ##  '#######'  #'      '#     #####' # '####'        



                  #######################################################
                  #                        -***-                        #
                  #          Department of theory and spectroscopy      #
                  #    Directorship and core code : Frank Neese         #
                  #        Max Planck Institute fuer Kohlenforschung    #
                  #                Kaiser Wilhelm Platz 1               #
                  #                 D-45470 Muelheim/Ruhr               #
                  #                      Germany                        #
                  #                                                     #
                  #                  All rights reserved                #
                  #                        -***-                        #
                  #######################################################


                         Program Version 5.0.3 -  RELEASE  -


 With contributions from (in alphabetic order):
   Daniel Aravena         : Magnetic Suceptibility
   Michael Atanasov       : Ab Initio Ligand Field Theory (pilot matlab implementation)
   Alexander A. Auer      : GIAO ZORA, VPT2 properties, NMR spectrum
   Ute Becker             : Parallelization
   Giovanni Bistoni       : ED, misc. LED, open-shell LED, HFLD
   Martin Brehm           : Molecular dynamics
   Dmytro Bykov           : SCF Hessian
   Vijay G. Chilkuri      : MRCI spin determinant printing, contributions to CSF-ICE
   Dipayan Datta          : RHF DLPNO-CCSD density
   Achintya Kumar Dutta   : EOM-CC, STEOM-CC
   Dmitry Ganyushin       : Spin-Orbit,Spin-Spin,Magnetic field MRCI
   Miquel Garcia          : C-PCM and meta-GGA Hessian, CC/C-PCM, Gaussian charge scheme
   Yang Guo               : DLPNO-NEVPT2, F12-NEVPT2, CIM, IAO-localization
   Andreas Hansen         : Spin unrestricted coupled pair/coupled cluster methods
   Benjamin Helmich-Paris : MC-RPA, TRAH-SCF, COSX integrals
   Lee Huntington         : MR-EOM, pCC
   Robert Izsak           : Overlap fitted RIJCOSX, COSX-SCS-MP3, EOM
   Marcus Kettner         : VPT2
   Christian Kollmar      : KDIIS, OOCD, Brueckner-CCSD(T), CCSD density, CASPT2, CASPT2-K
   Simone Kossmann        : Meta GGA functionals, TD-DFT gradient, OOMP2, MP2 Hessian
   Martin Krupicka        : Initial AUTO-CI
   Lucas Lang             : DCDCAS
   Marvin Lechner         : AUTO-CI (C++ implementation), FIC-MRCC
   Dagmar Lenk            : GEPOL surface, SMD
   Dimitrios Liakos       : Extrapolation schemes; Compound Job, initial MDCI parallelization
   Dimitrios Manganas     : Further ROCIS development; embedding schemes
   Dimitrios Pantazis     : SARC Basis sets
   Anastasios Papadopoulos: AUTO-CI, single reference methods and gradients
   Taras Petrenko         : DFT Hessian,TD-DFT gradient, ASA, ECA, R-Raman, ABS, FL, XAS/XES, NRVS
   Peter Pinski           : DLPNO-MP2, DLPNO-MP2 Gradient
   Christoph Reimann      : Effective Core Potentials
   Marius Retegan         : Local ZFS, SOC
   Christoph Riplinger    : Optimizer, TS searches, QM/MM, DLPNO-CCSD(T), (RO)-DLPNO pert. Triples
   Tobias Risthaus        : Range-separated hybrids, TD-DFT gradient, RPA, STAB
   Michael Roemelt        : Original ROCIS implementation
   Masaaki Saitow         : Open-shell DLPNO-CCSD energy and density
   Barbara Sandhoefer     : DKH picture change effects
   Avijit Sen             : IP-ROCIS
   Kantharuban Sivalingam : CASSCF convergence, NEVPT2, FIC-MRCI
   Bernardo de Souza      : ESD, SOC TD-DFT
   Georgi Stoychev        : AutoAux, RI-MP2 NMR, DLPNO-MP2 response
   Willem Van den Heuvel  : Paramagnetic NMR
   Boris Wezisla          : Elementary symmetry handling
   Frank Wennmohs         : Technical directorship


 We gratefully acknowledge several colleagues who have allowed us to
 interface, adapt or use parts of their codes:
   Stefan Grimme, W. Hujo, H. Kruse, P. Pracht,  : VdW corrections, initial TS optimization,
                  C. Bannwarth, S. Ehlert          DFT functionals, gCP, sTDA/sTD-DF
   Ed Valeev, F. Pavosevic, A. Kumar             : LibInt (2-el integral package), F12 methods
   Garnet Chan, S. Sharma, J. Yang, R. Olivares  : DMRG
   Ulf Ekstrom                                   : XCFun DFT Library
   Mihaly Kallay                                 : mrcc  (arbitrary order and MRCC methods)
   Jiri Pittner, Ondrej Demel                    : Mk-CCSD
   Frank Weinhold                                : gennbo (NPA and NBO analysis)
   Christopher J. Cramer and Donald G. Truhlar   : smd solvation model
   Lars Goerigk                                  : TD-DFT with DH, B97 family of functionals
   V. Asgeirsson, H. Jonsson                     : NEB implementation
   FAccTs GmbH                                   : IRC, NEB, NEB-TS, DLPNO-Multilevel, CI-OPT
                                                   MM, QMMM, 2- and 3-layer-ONIOM, Crystal-QMMM,
                                                   LR-CPCM, SF, NACMEs, symmetry and pop. for TD-DFT,
                                                   nearIR, NL-DFT gradient (VV10), updates on ESD,
                                                   ML-optimized integration grids
   S Lehtola, MJT Oliveira, MAL Marques          : LibXC Library
   Liviu Ungur et al                             : ANISO software


 Your calculation uses the libint2 library for the computation of 2-el integrals
 For citations please refer to: http://libint.valeyev.net

 Your ORCA version has been built with support for libXC version: 5.1.0
 For citations please refer to: https://tddft.org/programs/libxc/

 This ORCA versions uses:
   CBLAS   interface :  Fast vector & matrix operations
   LAPACKE interface :  Fast linear algebra routines
   SCALAPACK package :  Parallel linear algebra routines
   Shared memory     :  Shared parallel matrices
   BLAS/LAPACK       :  OpenBLAS 0.3.15  USE64BITINT DYNAMIC_ARCH NO_AFFINITY Haswell SINGLE_THREADED
        Core in use  :  Haswell
   Copyright (c) 2011-2014, The OpenBLAS Project




***************************************
The coordinates will be read from file: pbe.xyz
***************************************


================================================================================

cite the ECPs for Au [Def2-ECP] as follows:
Ce-Yb(ecp-28): M. Dolg, H. Stoll, H.Preuss, J. Chem. Phys., 1989, 90, 1730-1734.
Y-Cd(ecp-28), Hf-Hg(ecp-46): D. Andrae,U. Haeussermann, M. Dolg, H. Stoll, H. Preuss, Theor. Chim. Acta, 1990, 77, 123-141.
In-Sb(ecp-28), Tl-Bi(ecp-46): B. Metz, H. Stoll, M. Dolg, J. Chem. Phys., 2000, 113, 2563-2569.
Te-Xe(ecp-28), Po-Rn(ecp-46): K. A. Peterson, D. Figgen, E. Goll, H. Stoll, M. Dolg, J. Chem. Phys., 2003, 119, 11113-11123.
Rb(ecp-28), Cs(ecp-46): T. Leininger, A. Nicklass, W. Kuechle, H. Stoll, M. Dolg, A. Bergner, Chem. Phys. Lett., 1996, 255, 274-280.
Sr(ecp-28), Ba(ecp-46): M. Kaupp, P. V. Schleyer, H. Stoll and H. Preuss, J. Chem. Phys., 1991, 94, 1360-1366.
La(ecp-46): M. Dolg, H. Stoll, A. Savin, H. Preuss, Theor. Chim. Acta, 1989, 75, 173-194.
Lu(ecp-28): X. Cao, M. Dolg, J. Chem. Phys., 2001, 115, 7348-7355.

ECP parameters for Au [Def2-ECP] have been obtained from:
TURBOMOLE (7.0.2)

----- Orbital basis set information -----
Your calculation utilizes the basis: def2-TZVP
   F. Weigend and R. Ahlrichs, Phys. Chem. Chem. Phys. 7, 3297 (2005).

----- AuxJ basis set information -----
Your calculation utilizes the auxiliary basis: def2/J
   F. Weigend, Phys. Chem. Chem. Phys. 8, 1057 (2006).

================================================================================
                                        WARNINGS
                       Please study these warnings very carefully!
================================================================================


WARNING: your system is open-shell and RHF/RKS was chosen
  ===> : WILL SWITCH to UHF/UKS


INFO   : the flag for use of the SHARK integral package has been found!



***************************************
The coordinates will be read from file: pbe.xyz
***************************************


================================================================================

cite the ECPs for Au [Def2-ECP] as follows:
Ce-Yb(ecp-28): M. Dolg, H. Stoll, H.Preuss, J. Chem. Phys., 1989, 90, 1730-1734.
Y-Cd(ecp-28), Hf-Hg(ecp-46): D. Andrae,U. Haeussermann, M. Dolg, H. Stoll, H. Preuss, Theor. Chim. Acta, 1990, 77, 123-141.
In-Sb(ecp-28), Tl-Bi(ecp-46): B. Metz, H. Stoll, M. Dolg, J. Chem. Phys., 2000, 113, 2563-2569.
Te-Xe(ecp-28), Po-Rn(ecp-46): K. A. Peterson, D. Figgen, E. Goll, H. Stoll, M. Dolg, J. Chem. Phys., 2003, 119, 11113-11123.
Rb(ecp-28), Cs(ecp-46): T. Leininger, A. Nicklass, W. Kuechle, H. Stoll, M. Dolg, A. Bergner, Chem. Phys. Lett., 1996, 255, 274-280.
Sr(ecp-28), Ba(ecp-46): M. Kaupp, P. V. Schleyer, H. Stoll and H. Preuss, J. Chem. Phys., 1991, 94, 1360-1366.
La(ecp-46): M. Dolg, H. Stoll, A. Savin, H. Preuss, Theor. Chim. Acta, 1989, 75, 173-194.
Lu(ecp-28): X. Cao, M. Dolg, J. Chem. Phys., 2001, 115, 7348-7355.

ECP parameters for Au [Def2-ECP] have been obtained from:
TURBOMOLE (7.0.2)

----- Orbital basis set information -----
Your calculation utilizes the basis: def2-TZVP
   F. Weigend and R. Ahlrichs, Phys. Chem. Chem. Phys. 7, 3297 (2005).

----- AuxJ basis set information -----
Your calculation utilizes the auxiliary basis: def2/J
   F. Weigend, Phys. Chem. Chem. Phys. 8, 1057 (2006).

================================================================================
                                        WARNINGS
                       Please study these warnings very carefully!
================================================================================


INFO   : the flag for use of the SHARK integral package has been found!

================================================================================
                                       INPUT FILE
================================================================================
NAME = pbeSP.inp
|  1> !PBE def2-TZVP VERYSLOWCONV
|  2> 
|  3> %scf
|  4>   AutoTRAHIter 200
|  5>   maxiter 400
|  6> end
|  7> 
|  8> 
|  9> %pal nprocs 6 end 
| 10> 
| 11> *xyzfile 0 6 pbe.xyz
| 12> 
| 13> $new_job
| 14> 
| 15> !PBE def2-TZVP VERYSLOWCONV
| 16> 
| 17> %scf
| 18>   AutoTRAHIter 200
| 19>   maxiter 400
| 20> end
| 21>  
| 22> 
| 23> %pal nprocs 6 end 
| 24> 
| 25> *xyzfile 0 4 pbe.xyz
| 26> 
| 27> 
| 28> 
| 29> 
| 30> 
| 31>                          ****END OF INPUT****
================================================================================


                 $$$$$$$$$$$$$$$$$$$$$$$$$$$$$$$$$$$$$$$$$$$$$$ 
                 $ THERE ARE  2 JOBS TO BE PROCESSED THIS RUN $
                 $$$$$$$$$$$$$$$$$$$$$$$$$$$$$$$$$$$$$$$$$$$$$$ 




                 $$$$$$$$$$$$$$$$  JOB NUMBER  1 $$$$$$$$$$$$$$


                       ****************************
                       * Single Point Calculation *
                       ****************************

---------------------------------
CARTESIAN COORDINATES (ANGSTROEM)
---------------------------------
  Au     9.125066    6.008230    7.399734
  Au    10.201068    7.798049    5.644754
  Au     6.688791    5.208689    6.144274
  Au     4.842274    7.411144    5.826958
  Au     7.489323    7.605705    5.066137
  Au     6.013990    9.807833    6.543337
  Au     8.598263   10.100837    5.571721
  Au     7.852435   11.306970    7.993241
  Au     6.850411    9.403122    9.672512
  Au     9.231614    8.849755    8.074231
  Au     4.408158    8.611720    8.424446
  Au     8.502554    7.067906   10.002215
  Au     5.710931    6.960312   10.320742
  Au     4.559032    5.752912    8.026429
  Au     7.103310    4.879541    8.925532
  Fe     6.810569    7.426969    7.772572

----------------------------
CARTESIAN COORDINATES (A.U.)
----------------------------
  NO LB      ZA    FRAG     MASS         X           Y           Z
   0 Au   19.0000*   0   196.966   17.243876   11.353909   13.983470
   1 Au   19.0000*   0   196.966   19.277225   14.736177   10.667039
   2 Au   19.0000*   0   196.966   12.639983    9.842996   11.610996
   3 Au   19.0000*   0   196.966    9.150573   14.005032   11.011355
   4 Au   19.0000*   0   196.966   14.152770   14.372699    9.573611
   5 Au   19.0000*   0   196.966   11.364794   18.534119   12.365114
   6 Au   19.0000*   0   196.966   16.248362   19.087815   10.529027
   7 Au   19.0000*   0   196.966   14.838952   21.367078   15.105036
   8 Au   19.0000*   0   196.966   12.945401   17.769326   18.278399
   9 Au   19.0000*   0   196.966   17.445221   16.723613   15.258085
  10 Au   19.0000*   0   196.966    8.330211   16.273792   15.919895
  11 Au   19.0000*   0   196.966   16.067499   13.356406   18.901447
  12 Au   19.0000*   0   196.966   10.792095   13.153083   19.503376
  13 Au   19.0000*   0   196.966    8.615323   10.871428   15.167753
  14 Au   19.0000*   0   196.966   13.423310    9.220996   16.866812
  15 Fe   26.0000    0    55.850   12.870110   14.034938   14.688033
* core charge reduced due to ECP

--------------------------------
INTERNAL COORDINATES (ANGSTROEM)
--------------------------------
 Au     0   0   0     0.000000000000     0.00000000     0.00000000
 Au     1   0   0     2.727853782253     0.00000000     0.00000000
 Au     1   2   0     2.854974553902   103.73544782     0.00000000
 Au     3   1   2     2.891560049057   112.32634066   297.05173082
 Au     3   1   2     2.747529089458    71.31277580   339.82452941
 Au     4   3   1     2.762288286348   111.19443719     6.82985737
 Au     6   4   3     2.776391936086   113.30578070    43.74031880
 Au     6   4   3     2.780200481472   152.07949104   332.78444130
 Au     8   6   4     2.729219845751    72.65967802   319.14398554
 Au     8   6   4     2.818971870243    82.44278919    23.67497671
 Au     6   4   3     2.747354334354    63.37746448   261.13069611
 Au    10   8   6     2.724635094156   117.35286597   276.52949740
 Au     9   8   6     2.772353133820   155.42678688    26.92645125
 Au     4   3   1     2.769048735495    61.44666309   263.83363354
 Au     1   2   3     2.772994693729   155.31920011   313.35004258
 Fe     1   2   3     2.740205695896    94.64586708   300.86512306

---------------------------
INTERNAL COORDINATES (A.U.)
---------------------------
 Au     0   0   0     0.000000000000     0.00000000     0.00000000
 Au     1   0   0     5.154896581839     0.00000000     0.00000000
 Au     1   2   0     5.395120026189   103.73544782     0.00000000
 Au     3   1   2     5.464256592506   112.32634066   297.05173082
 Au     3   1   2     5.192077524057    71.31277580   339.82452941
 Au     4   3   1     5.219968364136   111.19443719     6.82985737
 Au     6   4   3     5.246620399630   113.30578070    43.74031880
 Au     6   4   3     5.253817507378   152.07949104   332.78444130
 Au     8   6   4     5.157478067732    72.65967802   319.14398554
 Au     8   6   4     5.327084813988    82.44278919    23.67497671
 Au     6   4   3     5.191747284771    63.37746448   261.13069611
 Au    10   8   6     5.148814142825   117.35286597   276.52949740
 Au     9   8   6     5.238988169438   155.42678688    26.92645125
 Au     4   3   1     5.232743761567    61.44666309   263.83363354
 Au     1   2   3     5.240200541965   155.31920011   313.35004258
 Fe     1   2   3     5.178238315854    94.64586708   300.86512306

---------------------
BASIS SET INFORMATION
---------------------
There are 2 groups of distinct atoms

 Group   1 Type Au  : 8s7p6d1f contracted to 6s4p3d1f pattern {311111/4111/411/1}
 Group   2 Type Fe  : 17s11p7d1f contracted to 6s4p4d1f pattern {842111/6311/4111/1}

Atom   0Au   basis set group =>   1
Atom   1Au   basis set group =>   1
Atom   2Au   basis set group =>   1
Atom   3Au   basis set group =>   1
Atom   4Au   basis set group =>   1
Atom   5Au   basis set group =>   1
Atom   6Au   basis set group =>   1
Atom   7Au   basis set group =>   1
Atom   8Au   basis set group =>   1
Atom   9Au   basis set group =>   1
Atom  10Au   basis set group =>   1
Atom  11Au   basis set group =>   1
Atom  12Au   basis set group =>   1
Atom  13Au   basis set group =>   1
Atom  14Au   basis set group =>   1
Atom  15Fe   basis set group =>   2
---------------------------------
AUXILIARY/J BASIS SET INFORMATION
---------------------------------
There are 2 groups of distinct atoms

 Group   1 Type Au  : 11s5p5d3f3g contracted to 8s5p5d2f3g pattern {41111111/11111/11111/21/111}
 Group   2 Type Fe  : 19s5p5d3f3g contracted to 8s5p5d2f3g pattern {121111111/11111/11111/21/111}

Atom   0Au   basis set group =>   1
Atom   1Au   basis set group =>   1
Atom   2Au   basis set group =>   1
Atom   3Au   basis set group =>   1
Atom   4Au   basis set group =>   1
Atom   5Au   basis set group =>   1
Atom   6Au   basis set group =>   1
Atom   7Au   basis set group =>   1
Atom   8Au   basis set group =>   1
Atom   9Au   basis set group =>   1
Atom  10Au   basis set group =>   1
Atom  11Au   basis set group =>   1
Atom  12Au   basis set group =>   1
Atom  13Au   basis set group =>   1
Atom  14Au   basis set group =>   1
Atom  15Fe   basis set group =>   2
-------------------------
ECP PARAMETER INFORMATION
-------------------------

 Group 1, Type Au ECP Def2-ECP (replacing 60 core electrons, lmax=3)

Atom   0Au   ECP group =>   1
Atom   1Au   ECP group =>   1
Atom   2Au   ECP group =>   1
Atom   3Au   ECP group =>   1
Atom   4Au   ECP group =>   1
Atom   5Au   ECP group =>   1
Atom   6Au   ECP group =>   1
Atom   7Au   ECP group =>   1
Atom   8Au   ECP group =>   1
Atom   9Au   ECP group =>   1
Atom  10Au   ECP group =>   1
Atom  11Au   ECP group =>   1
Atom  12Au   ECP group =>   1
Atom  13Au   ECP group =>   1
Atom  14Au   ECP group =>   1


Checking for AutoStart:
The File: pbeSP.gbw exists
Trying to determine its content:
     ... Fine, the file contains calculation information
     ... Fine, the calculation information was read
     ... Fine, the file contains a basis set
     ... Fine, the basis set was read
     ... Fine, the file contains ECP parameters
     ... Fine, ECP parameters were read
     ... Fine, the file contains a geometry
     ... Fine, the geometry was read
     ... The file does not contain orbitals - skipping AutoStart


           ************************************************************
           *        Program running with 6 parallel MPI-processes     *
           *              working on a common directory               *
           ************************************************************
------------------------------------------------------------------------------
                           ORCA GTO INTEGRAL CALCULATION
                           -- RI-GTO INTEGRALS CHOSEN --
------------------------------------------------------------------------------
------------------------------------------------------------------------------
                   ___                                                        
                  /   \      - P O W E R E D   B Y -                         
                 /     \                                                     
                 |  |  |   _    _      __       _____    __    __             
                 |  |  |  | |  | |    /  \     |  _  \  |  |  /  |          
                  \  \/   | |  | |   /    \    | | | |  |  | /  /          
                 / \  \   | |__| |  /  /\  \   | |_| |  |  |/  /          
                |  |  |   |  __  | /  /__\  \  |    /   |      \           
                |  |  |   | |  | | |   __   |  |    \   |  |\   \          
                \     /   | |  | | |  |  |  |  | |\  \  |  | \   \       
                 \___/    |_|  |_| |__|  |__|  |_| \__\ |__|  \__/        
                                                                              
                      - O R C A' S   B I G   F R I E N D -                    
                                      &                                       
                       - I N T E G R A L  F E E D E R -                       
                                                                              
 v1 FN, 2020, v2 2021                                                         
------------------------------------------------------------------------------


Reading SHARK input file pbeSP.SHARKINP.tmp ... ok
----------------------
SHARK INTEGRAL PACKAGE
----------------------

Number of atoms                             ...     16
Number of basis functions                   ...    645
Number of shells                            ...    225
Maximum angular momentum                    ...      3
Integral batch strategy                     ... SHARK/LIBINT Hybrid
RI-J (if used) integral strategy            ... SPLIT-RIJ (Revised 2003 algorithm where possible)
Printlevel                                  ...      1
Contraction scheme used                     ... SEGMENTED contraction
Coulomb Range Separation                    ... NOT USED
Exchange Range Separation                   ... NOT USED
Finite Nucleus Model                        ... NOT USED
Auxiliary Coulomb fitting basis             ... AVAILABLE
   # of basis functions in Aux-J            ...   1424
   # of shells in Aux-J                     ...    368
   Maximum angular momentum in Aux-J        ...      4
Auxiliary J/K fitting basis                 ... NOT available
Auxiliary Correlation fitting basis         ... NOT available
Auxiliary 'external' fitting basis          ... NOT available
Integral threshold                          ...     1.000000e-10
Primitive cut-off                           ...     1.000000e-11
Primitive pair pre-selection threshold      ...     1.000000e-11

Calculating pre-screening integrals         ... done (  0.1 sec) Dimension = 225
Organizing shell pair data                  ... done (  0.3 sec)
Shell pair information
Total number of shell pairs                 ...     25425
Shell pairs after pre-screening             ...     20202
Total number of primitive shell pairs       ...     67445
Primitive shell pairs kept                  ...     38755
          la=0 lb=0:   3182 shell pairs
          la=1 lb=0:   4614 shell pairs
          la=1 lb=1:   1734 shell pairs
          la=2 lb=0:   4014 shell pairs
          la=2 lb=1:   2822 shell pairs
          la=2 lb=2:   1160 shell pairs
          la=3 lb=0:   1047 shell pairs
          la=3 lb=1:    810 shell pairs
          la=3 lb=2:    708 shell pairs
          la=3 lb=3:    111 shell pairs

Calculating one electron integrals          ... done (  0.0 sec)
Calculating ECP integrals                   ... done ( 10.1 sec)
Calculating RI/J V-Matrix + Cholesky decomp.... done (  0.1 sec)
Calculating Nuclear repulsion               ... done (  0.0 sec) ENN=   6468.647311904423 Eh

SHARK setup successfully completed in  10.9 seconds

Maximum memory used throughout the entire GTOINT-calculation: 38.0 MB


           ************************************************************
           *        Program running with 6 parallel MPI-processes     *
           *              working on a common directory               *
           ************************************************************
-------------------------------------------------------------------------------
                                 ORCA SCF
-------------------------------------------------------------------------------

------------
SCF SETTINGS
------------
Hamiltonian:
 Density Functional     Method          .... DFT(GTOs)
 Exchange Functional    Exchange        .... PBE
   PBE kappa parameter   XKappa         ....  0.804000
   PBE mue parameter    XMuePBE         ....  0.219520
 Correlation Functional Correlation     .... PBE
   PBE beta parameter  CBetaPBE         ....  0.066725
 LDA part of GGA corr.  LDAOpt          .... PW91-LDA
 Gradients option       PostSCFGGA      .... off
   Density functional embedding theory  .... OFF
   NL short-range parameter             ....  6.400000
 RI-approximation to the Coulomb term is turned on
   Number of AuxJ basis functions       .... 1424


General Settings:
 Integral files         IntName         .... pbeSP
 Hartree-Fock type      HFTyp           .... UHF
 Total Charge           Charge          ....    0
 Multiplicity           Mult            ....    6
 Number of Electrons    NEL             ....  311
 Basis Dimension        Dim             ....  645
 Nuclear Repulsion      ENuc            ....   6468.6473119044 Eh

Convergence Acceleration:
 DIIS                   CNVDIIS         .... on
   Start iteration      DIISMaxIt       ....     0
   Startup error        DIISStart       ....  0.200000
   # of expansion vecs  DIISMaxEq       ....     5
   Bias factor          DIISBfac        ....   1.050
   Max. coefficient     DIISMaxC        ....  10.000
 Trust-Rad. Augm. Hess. CNVTRAH         .... auto
   Auto Start mean grad. ratio tolernc. ....  1.125000
   Auto Start start iteration           ....   200
   Auto Start num. interpolation iter.  ....    10
   Max. Number of Micro iterations      ....    16
   Max. Number of Macro iterations      .... Maxiter - #DIIS iter
   Number of Davidson start vectors     ....     2
   Converg. threshold I  (grad. norm)   ....   5.000e-05
   Converg. threshold II (energy diff.) ....   1.000e-06
   Grad. Scal. Fac. for Micro threshold ....   0.100
   Minimum threshold for Micro iter.    ....   0.010
   NR start threshold (gradient norm)   ....   0.001
   Initial trust radius                 ....   0.400
   Minimum AH scaling param. (alpha)    ....   1.000
   Maximum AH scaling param. (alpha)    .... 1000.000
   Orbital update algorithm             .... Taylor
   White noise on init. David. guess    .... on
   Maximum white noise                  ....   0.010
   Quad. conv. algorithm                .... NR
 SOSCF                  CNVSOSCF        .... off
 Level Shifting         CNVShift        .... on
   Level shift para.    LevelShift      ....    0.2500
   Turn off err/grad.   ShiftErr        ....    0.0000
 Zerner damping         CNVZerner       .... off
 Static damping         CNVDamp         .... on
   Fraction old density DampFac         ....    0.9200
   Max. Damping (<1)    DampMax         ....    0.9800
   Min. Damping (>=0)   DampMin         ....    0.0000
   Turn off err/grad.   DampErr         ....    0.0030
 Fernandez-Rico         CNVRico         .... off

SCF Procedure:
 Maximum # iterations   MaxIter         ....   400
 SCF integral mode      SCFMode         .... Direct
   Integral package                     .... SHARK and LIBINT hybrid scheme
 Reset frequency        DirectResetFreq ....    20
 Integral Threshold     Thresh          ....  1.000e-10 Eh
 Primitive CutOff       TCut            ....  1.000e-11 Eh

Convergence Tolerance:
 Convergence Check Mode ConvCheckMode   .... Total+1el-Energy
 Convergence forced     ConvForced      .... 0
 Energy Change          TolE            ....  1.000e-06 Eh
 1-El. energy change                    ....  1.000e-03 Eh
 DIIS Error             TolErr          ....  1.000e-06


Diagonalization of the overlap matrix:
Smallest eigenvalue                        ... 2.864e-04
Time for diagonalization                   ...    0.055 sec
Threshold for overlap eigenvalues          ... 1.000e-08
Number of eigenvalues below threshold      ... 0
Time for construction of square roots      ...    0.036 sec
Total time needed                          ...    0.092 sec

Time for model grid setup =    0.436 sec

------------------------------
INITIAL GUESS: MODEL POTENTIAL
------------------------------
Loading Hartree-Fock densities                     ... done
  calling /media/Programs/ORCA501/orca pbeSP_atom79.inp > pbeSP_atom79.out in order to generate an atomic fitting density for atom 0 (Au with ECP) on-the-fly... 
    atom 0 (Au), assumed electronic state with S=2: 1s2 2s2 2p6 3s2 3p6 4s2 3d10 4p6 5s2 4d10 5p6 6s1 4f14 5d10           ... done
Calculating cut-offs                               ... done
Initializing the effective Hamiltonian             ... done
Setting up the integral package (SHARK)            ... done
Starting the Coulomb interaction                   ... done (   0.4 sec)
Reading the grid                                   ... done
Mapping shells                                     ... done
Starting the XC term evaluation                    ... done (   0.5 sec)
  promolecular density results
     # of electrons  =   1211.015068444
     EX              =  -5541.504030013
     EC              =    -73.852849634
     EX+EC           =  -5615.356879646
Transforming the Hamiltonian                       ... done (   0.0 sec)
Diagonalizing the Hamiltonian                      ... done (   0.1 sec)
Back transforming the eigenvectors                 ... done (   0.0 sec)
Now organizing SCF variables                       ... done
                      ------------------
                      INITIAL GUESS DONE (   1.9 sec)
                      ------------------
-------------------
DFT GRID GENERATION
-------------------

General Integration Accuracy     IntAcc      ... 4.388
Radial Grid Type                 RadialGrid  ... OptM3 with GC (2021)
Angular Grid (max. ang.)         AngularGrid ... 4 (Lebedev-302)
Angular grid pruning method      GridPruning ... 4 (adaptive)
Weight generation scheme         WeightScheme... Becke
Basis function cutoff            BFCut       ... 1.0000e-10
Integration weight cutoff        WCut        ... 1.0000e-14
Angular grids for H and He will be reduced by one unit
Partially contracted basis set               ... off
Rotationally invariant grid construction     ... off

Total number of grid points                  ...   176127
Total number of batches                      ...     2759
Average number of points per batch           ...       63
Average number of grid points per atom       ...    11008
Time for grid setup =    1.382 sec

--------------
SCF ITERATIONS
--------------
ITER       Energy         Delta-E        Max-DP      RMS-DP      [F,P]     Damp
               ***  Starting incremental Fock matrix formation  ***
  0  -3297.2271541392   0.000000000000 0.11176787  0.00069780  0.5650644 0.9200
  1  -3298.6352244728  -1.408070333608 0.08816056  0.00063147  0.3605002 0.9200
                               ***Turning on DIIS***
  2  -3299.3876258418  -0.752401369044 0.07511212  0.00052199  0.2417943 0.9200
  3  -3299.7110504417  -0.323424599821 0.05632209  0.00043041  0.2215984 0.9200
  4  -3299.8067122623  -0.095661820616 0.07263490  0.00040047  0.2033078 0.9200
  5  -3299.8052162769   0.001495985387 0.07309413  0.00034751  0.1865481 0.9200
  6  -3299.8559262094  -0.050709932514 0.04091344  0.00029842  0.1711135 0.9200
  7  -3299.9739821089  -0.118055899499 0.03718492  0.00026837  0.1569574 0.9200
  8  -3300.0510266675  -0.077044558630 0.03682049  0.00024475  0.1442693 0.9200
  9  -3300.1041475812  -0.053120913653 0.04656850  0.00024815  0.1326226 0.9200
 10  -3300.1602341935  -0.056086612311 0.03949596  0.00023283  0.1218669 0.9200
 11  -3300.1948319585  -0.034597765021 0.02328944  0.00018113  0.1121174 0.9200
 12  -3300.2340732721  -0.039241313544 0.02802461  0.00017074  0.1031244 0.9200
 13  -3300.2937531220  -0.059679849892 0.02937522  0.00017022  0.0946889 0.9200
 14  -3300.3398041233  -0.046051001366 0.02658104  0.00016101  0.0869624 0.9200
 15  -3300.3785645524  -0.038760429029 0.02242364  0.00015611  0.0798985 0.9200
 16  -3300.4179264451  -0.039361892783 0.01863711  0.00015322  0.0734021 0.9200
 17  -3300.4528042781  -0.034877832955 0.02277816  0.00015024  0.0675334 0.9200
 18  -3300.4852826313  -0.032478353218 0.02835203  0.00014821  0.0621546 0.9200
 19  -3300.5182125269  -0.032929895557 0.03091284  0.00014488  0.0571087 0.9200
               *** Restarting incremental Fock matrix formation ***
                                   *** Resetting DIIS ***
 20  -3300.5476204166  -0.029407889755 0.02671464  0.00013603  0.0524573 0.9200
 21  -3300.5751573463  -0.027536929637 0.02574620  0.00013094  0.0481495 0.9200
 22  -3300.6015996532  -0.026442306960 0.02583340  0.00012610  0.0442266 0.9200
 23  -3300.6261123173  -0.024512664125 0.02577517  0.00011989  0.0406612 0.9200
 24  -3300.6486061401  -0.022493822720 0.02548813  0.00011345  0.0373902 0.9200
 25  -3300.6694046202  -0.020798480169 0.02306242  0.00010679  0.0343904 0.9200
 26  -3300.6888649524  -0.019460332174 0.02144560  0.00010107  0.0316265 0.9200
 27  -3300.7070750315  -0.018210079058 0.02049496  0.00009503  0.0290859 0.9200
 28  -3300.7238423752  -0.016767343699 0.01993415  0.00008853  0.0267470 0.9200
 29  -3300.7392475075  -0.015405132337 0.01839075  0.00008243  0.0245913 0.9200
 30  -3300.7535281017  -0.014280594204 0.01651288  0.00007707  0.0226147 0.9200
 31  -3300.7668755349  -0.013347433199 0.01528531  0.00007213  0.0208016 0.9200
 32  -3300.7792187029  -0.012343168007 0.01466604  0.00006686  0.0191339 0.9200
 33  -3300.7905788747  -0.011360171834 0.01382660  0.00006179  0.0175947 0.9200
 34  -3300.8010336327  -0.010454757919 0.01246737  0.00005730  0.0161764 0.9200
 35  -3300.8107533633  -0.009719730643 0.01125987  0.00005351  0.0148767 0.9200
 36  -3300.8197688003  -0.009015436985 0.01083017  0.00004966  0.0136840 0.9200
 37  -3300.8280721416  -0.008303341294 0.01022663  0.00004574  0.0125859 0.9200
 38  -3300.8357165228  -0.007644381188 0.00942725  0.00004218  0.0115727 0.9200
 39  -3300.8427697933  -0.007053270547 0.00820136  0.00003883  0.0106414 0.9200
               *** Restarting incremental Fock matrix formation ***
                                   *** Resetting DIIS ***
 40  -3300.8493086463  -0.006538853001 0.00746801  0.00003568  0.0097872 0.9200
 41  -3300.8553505347  -0.006041888365 0.00688972  0.00003286  0.0089898 0.9200
 42  -3300.8609153182  -0.005564783478 0.00639465  0.00003033  0.0082581 0.9200
 43  -3300.8660392068  -0.005123888592 0.00615653  0.00002815  0.0075893 0.9200
 44  -3300.8707647454  -0.004725538686 0.00580379  0.00002621  0.0069798 0.9200
 45  -3300.8751263750  -0.004361629512 0.00525866  0.00002437  0.0064212 0.9200
 46  -3300.8791470837  -0.004020708785 0.00504493  0.00002252  0.0059058 0.9200
 47  -3300.8828502479  -0.003703164124 0.00476074  0.00002076  0.0054300 0.9200
 48  -3300.8862595748  -0.003409326968 0.00428105  0.00001916  0.0049922 0.9200
 49  -3300.8894061829  -0.003146608101 0.00387082  0.00001780  0.0045915 0.9200
 50  -3300.8923077566  -0.002901573660 0.00370643  0.00001648  0.0042237 0.9200
 51  -3300.8949796908  -0.002671934197 0.00349494  0.00001517  0.0038848 0.9200
 52  -3300.8974399506  -0.002460259823 0.00320341  0.00001396  0.0035721 0.9200
 53  -3300.8997061683  -0.002266217694 0.00283054  0.00001289  0.0032846 0.9200
 54  -3300.9017961794  -0.002090011094 0.00263083  0.00001198  0.0030210 0.9200
 55  -3300.9037210189  -0.001924839551 0.03193358  0.00013819  0.0027788 0.0000
 56  -3300.9260072062  -0.022286187286 0.00247740  0.00000575  0.0003189 0.0000
 57  -3300.9260092750  -0.000002068731 0.00033539  0.00000198  0.0000974 0.0000
 58  -3300.9260100458  -0.000000770801 0.00013758  0.00000111  0.0001303 0.0000
 59  -3300.9260105202  -0.000000474443 0.00370947  0.00000587  0.0000335 0.0000
               *** Restarting incremental Fock matrix formation ***
                                   *** Resetting DIIS ***
 60  -3300.9260048193   0.000005700871 0.00036919  0.00000158  0.0000739 0.0000
 61  -3300.9260044606   0.000000358726 0.00030432  0.00000081  0.0003597 0.0000
 62  -3300.9260048223  -0.000000361720 0.00004980  0.00000050  0.0002132 0.0000
 63  -3300.9260051358  -0.000000313434 0.00003624  0.00000044  0.0001478 0.0000
 64  -3300.9260053821  -0.000000246312 0.00003940  0.00000047  0.0001000 0.0000
 65  -3300.9260053458   0.000000036271 0.00004596  0.00000053  0.0000575 0.0000
 66  -3300.9260052496   0.000000096172 0.00003824  0.00000034  0.0000115 0.0000
                 **** Energy Check signals convergence ****

               *****************************************************
               *                     SUCCESS                       *
               *           SCF CONVERGED AFTER  67 CYCLES          *
               *****************************************************


----------------
TOTAL SCF ENERGY
----------------

Total Energy       :        -3300.92600520 Eh          -89822.76310 eV

Components:
Nuclear Repulsion  :         6468.64731190 Eh          176020.84208 eV
Electronic Energy  :        -9769.57331710 Eh         -265843.60519 eV
One Electron Energy:       -18249.16924309 Eh         -496585.14101 eV
Two Electron Energy:         8479.59592598 Eh          230741.53582 eV

Virial components:
Potential Energy   :        -5249.29275182 Eh         -142840.51765 eV
Kinetic Energy     :         1948.36674662 Eh           53017.75455 eV
Virial Ratio       :            2.69420157


DFT components:
N(Alpha)           :      158.000045779714 electrons
N(Beta)            :      153.000047722412 electrons
N(Total)           :      311.000093502126 electrons
E(X)               :     -235.080442738312 Eh       
E(C)               :      -13.626127360612 Eh       
E(XC)              :     -248.706570098925 Eh       
DFET-embed. en.    :        0.000000000000 Eh       

---------------
SCF CONVERGENCE
---------------

  Last Energy change         ...    4.9220e-08  Tolerance :   1.0000e-06
  Last MAX-Density change    ...    3.6353e-05  Tolerance :   1.0000e-05
  Last RMS-Density change    ...    2.8661e-07  Tolerance :   1.0000e-06
  Last DIIS Error            ...    1.0609e-05  Tolerance :   1.0000e-06

             **** THE GBW FILE WAS UPDATED (pbeSP.gbw) ****
             **** DENSITY pbeSP.scfp WAS UPDATED ****
             **** ENERGY FILE WAS UPDATED (pbeSP.en.tmp) ****
----------------------
UHF SPIN CONTAMINATION
----------------------

Warning: in a DFT calculation there is little theoretical justification to 
         calculate <S**2> as in Hartree-Fock theory. We will do it anyways
         but you should keep in mind that the values have only limited relevance

Expectation value of <S**2>     :     8.771640
Ideal value S*(S+1) for S=2.5   :     8.750000
Deviation                       :     0.021640

             **** THE GBW FILE WAS UPDATED (pbeSP.gbw) ****
             **** DENSITY pbeSP.scfp WAS UPDATED ****
----------------
ORBITAL ENERGIES
----------------
                 SPIN UP ORBITALS
  NO   OCC          E(Eh)            E(eV) 
   0   1.0000    -254.783712     -6933.0173 
   1   1.0000     -29.625361      -806.1470 
   2   1.0000     -25.564681      -695.6503 
   3   1.0000     -25.557680      -695.4598 
   4   1.0000     -25.557584      -695.4572 
   5   1.0000      -4.038646      -109.8971 
   6   1.0000      -4.035064      -109.7997 
   7   1.0000      -4.035024      -109.7986 
   8   1.0000      -4.033472      -109.7563 
   9   1.0000      -4.033448      -109.7557 
  10   1.0000      -4.031589      -109.7051 
  11   1.0000      -4.031007      -109.6893 
  12   1.0000      -4.030890      -109.6861 
  13   1.0000      -4.028533      -109.6220 
  14   1.0000      -4.028240      -109.6140 
  15   1.0000      -4.028194      -109.6127 
  16   1.0000      -4.027039      -109.5813 
  17   1.0000      -4.025437      -109.5377 
  18   1.0000      -4.021962      -109.4431 
  19   1.0000      -4.021956      -109.4430 
  20   1.0000      -3.405764       -92.6756 
  21   1.0000      -2.254215       -61.3403 
  22   1.0000      -2.252509       -61.2939 
  23   1.0000      -2.252053       -61.2815 
  24   1.0000      -2.251429       -61.2645 
  25   1.0000      -2.250401       -61.2365 
  26   1.0000      -2.250323       -61.2344 
  27   1.0000      -2.249295       -61.2064 
  28   1.0000      -2.247481       -61.1571 
  29   1.0000      -2.246680       -61.1353 
  30   1.0000      -2.246646       -61.1343 
  31   1.0000      -2.246381       -61.1271 
  32   1.0000      -2.246207       -61.1224 
  33   1.0000      -2.245710       -61.1089 
  34   1.0000      -2.245442       -61.1016 
  35   1.0000      -2.244971       -61.0888 
  36   1.0000      -2.244934       -61.0877 
  37   1.0000      -2.244615       -61.0791 
  38   1.0000      -2.244430       -61.0741 
  39   1.0000      -2.244247       -61.0691 
  40   1.0000      -2.243816       -61.0573 
  41   1.0000      -2.243299       -61.0433 
  42   1.0000      -2.243256       -61.0421 
  43   1.0000      -2.242845       -61.0309 
  44   1.0000      -2.242552       -61.0229 
  45   1.0000      -2.242136       -61.0116 
  46   1.0000      -2.241888       -61.0049 
  47   1.0000      -2.241857       -61.0040 
  48   1.0000      -2.241217       -60.9866 
  49   1.0000      -2.241173       -60.9854 
  50   1.0000      -2.240625       -60.9705 
  51   1.0000      -2.240497       -60.9670 
  52   1.0000      -2.240452       -60.9658 
  53   1.0000      -2.239234       -60.9327 
  54   1.0000      -2.239055       -60.9278 
  55   1.0000      -2.238699       -60.9181 
  56   1.0000      -2.238467       -60.9118 
  57   1.0000      -2.237849       -60.8950 
  58   1.0000      -2.237523       -60.8861 
  59   1.0000      -2.237119       -60.8751 
  60   1.0000      -2.235855       -60.8407 
  61   1.0000      -2.235804       -60.8393 
  62   1.0000      -2.235353       -60.8270 
  63   1.0000      -2.235131       -60.8210 
  64   1.0000      -2.232983       -60.7625 
  65   1.0000      -2.232948       -60.7616 
  66   1.0000      -2.228189       -60.6321 
  67   1.0000      -2.214198       -60.2514 
  68   1.0000      -2.214167       -60.2506 
  69   1.0000      -0.446592       -12.1524 
  70   1.0000      -0.398644       -10.8477 
  71   1.0000      -0.395404       -10.7595 
  72   1.0000      -0.392510       -10.6807 
  73   1.0000      -0.385961       -10.5025 
  74   1.0000      -0.384715       -10.4686 
  75   1.0000      -0.381196       -10.3729 
  76   1.0000      -0.380845       -10.3633 
  77   1.0000      -0.379277       -10.3206 
  78   1.0000      -0.369347       -10.0504 
  79   1.0000      -0.366652        -9.9771 
  80   1.0000      -0.364182        -9.9099 
  81   1.0000      -0.357987        -9.7413 
  82   1.0000      -0.357733        -9.7344 
  83   1.0000      -0.354780        -9.6541 
  84   1.0000      -0.354144        -9.6367 
  85   1.0000      -0.352246        -9.5851 
  86   1.0000      -0.351319        -9.5599 
  87   1.0000      -0.349136        -9.5005 
  88   1.0000      -0.348098        -9.4722 
  89   1.0000      -0.345888        -9.4121 
  90   1.0000      -0.345580        -9.4037 
  91   1.0000      -0.343618        -9.3503 
  92   1.0000      -0.341317        -9.2877 
  93   1.0000      -0.337943        -9.1959 
  94   1.0000      -0.336417        -9.1544 
  95   1.0000      -0.334104        -9.0914 
  96   1.0000      -0.330870        -9.0034 
  97   1.0000      -0.327243        -8.9047 
  98   1.0000      -0.324385        -8.8270 
  99   1.0000      -0.324284        -8.8242 
 100   1.0000      -0.323752        -8.8097 
 101   1.0000      -0.320760        -8.7283 
 102   1.0000      -0.317028        -8.6268 
 103   1.0000      -0.316508        -8.6126 
 104   1.0000      -0.313286        -8.5250 
 105   1.0000      -0.311337        -8.4719 
 106   1.0000      -0.307447        -8.3661 
 107   1.0000      -0.305195        -8.3048 
 108   1.0000      -0.303155        -8.2493 
 109   1.0000      -0.302723        -8.2375 
 110   1.0000      -0.299149        -8.1402 
 111   1.0000      -0.297944        -8.1075 
 112   1.0000      -0.295113        -8.0304 
 113   1.0000      -0.287152        -7.8138 
 114   1.0000      -0.287023        -7.8103 
 115   1.0000      -0.285358        -7.7650 
 116   1.0000      -0.283045        -7.7021 
 117   1.0000      -0.282128        -7.6771 
 118   1.0000      -0.281203        -7.6519 
 119   1.0000      -0.278249        -7.5715 
 120   1.0000      -0.277135        -7.5412 
 121   1.0000      -0.276347        -7.5198 
 122   1.0000      -0.275466        -7.4958 
 123   1.0000      -0.274501        -7.4696 
 124   1.0000      -0.273036        -7.4297 
 125   1.0000      -0.272416        -7.4128 
 126   1.0000      -0.272190        -7.4067 
 127   1.0000      -0.270775        -7.3682 
 128   1.0000      -0.268492        -7.3060 
 129   1.0000      -0.267996        -7.2925 
 130   1.0000      -0.265782        -7.2323 
 131   1.0000      -0.265215        -7.2169 
 132   1.0000      -0.264843        -7.2067 
 133   1.0000      -0.263677        -7.1750 
 134   1.0000      -0.263372        -7.1667 
 135   1.0000      -0.262332        -7.1384 
 136   1.0000      -0.261973        -7.1287 
 137   1.0000      -0.260262        -7.0821 
 138   1.0000      -0.258471        -7.0333 
 139   1.0000      -0.258129        -7.0240 
 140   1.0000      -0.256452        -6.9784 
 141   1.0000      -0.255597        -6.9551 
 142   1.0000      -0.253691        -6.9033 
 143   1.0000      -0.253415        -6.8958 
 144   1.0000      -0.252232        -6.8636 
 145   1.0000      -0.249830        -6.7982 
 146   1.0000      -0.249685        -6.7943 
 147   1.0000      -0.248075        -6.7505 
 148   1.0000      -0.246026        -6.6947 
 149   1.0000      -0.245912        -6.6916 
 150   1.0000      -0.241405        -6.5690 
 151   1.0000      -0.241152        -6.5621 
 152   1.0000      -0.231955        -6.3118 
 153   1.0000      -0.221925        -6.0389 
 154   1.0000      -0.217635        -5.9221 
 155   1.0000      -0.204088        -5.5535 
 156   1.0000      -0.195899        -5.3307 
 157   1.0000      -0.193412        -5.2630 
 158   0.0000      -0.152834        -4.1588 
 159   0.0000      -0.139958        -3.8085 
 160   0.0000      -0.137326        -3.7368 
 161   0.0000      -0.126451        -3.4409 
 162   0.0000      -0.123993        -3.3740 
 163   0.0000      -0.118345        -3.2203 
 164   0.0000      -0.111043        -3.0216 
 165   0.0000      -0.074822        -2.0360 
 166   0.0000      -0.073082        -1.9887 
 167   0.0000      -0.071499        -1.9456 
 168   0.0000      -0.069259        -1.8846 
 169   0.0000      -0.041672        -1.1340 
 170   0.0000      -0.041150        -1.1197 
 171   0.0000      -0.034487        -0.9384 
 172   0.0000      -0.033445        -0.9101 
 173   0.0000      -0.028094        -0.7645 
 174   0.0000      -0.020338        -0.5534 
 175   0.0000      -0.017939        -0.4882 
 176   0.0000      -0.012812        -0.3486 
 177   0.0000       0.016061         0.4370 
 178   0.0000       0.020685         0.5629 
 179   0.0000       0.024481         0.6662 
 180   0.0000       0.030150         0.8204 
 181   0.0000       0.030792         0.8379 
 182   0.0000       0.037629         1.0239 
 183   0.0000       0.040860         1.1119 
 184   0.0000       0.051533         1.4023 
 185   0.0000       0.054104         1.4722 
 186   0.0000       0.057568         1.5665 
 187   0.0000       0.061957         1.6859 
 188   0.0000       0.062488         1.7004 
 189   0.0000       0.062886         1.7112 
 190   0.0000       0.069150         1.8817 
 191   0.0000       0.070034         1.9057 
 192   0.0000       0.071601         1.9484 
 193   0.0000       0.079212         2.1555 
 194   0.0000       0.082759         2.2520 
 195   0.0000       0.084973         2.3122 
 196   0.0000       0.087999         2.3946 
 197   0.0000       0.091609         2.4928 
 198   0.0000       0.098234         2.6731 
 199   0.0000       0.099386         2.7044 
 200   0.0000       0.109797         2.9877 
 201   0.0000       0.119978         3.2648 
 202   0.0000       0.127327         3.4647 
 203   0.0000       0.130622         3.5544 
 204   0.0000       0.136605         3.7172 
 205   0.0000       0.137604         3.7444 
 206   0.0000       0.143614         3.9079 
 207   0.0000       0.147510         4.0139 
 208   0.0000       0.154416         4.2019 
 209   0.0000       0.154664         4.2086 
 210   0.0000       0.160259         4.3609 
 211   0.0000       0.162846         4.4313 
 212   0.0000       0.165238         4.4964 
 213   0.0000       0.166389         4.5277 
 214   0.0000       0.169565         4.6141 
 215   0.0000       0.172785         4.7017 
 216   0.0000       0.178186         4.8487 
 217   0.0000       0.184398         5.0177 
 218   0.0000       0.185088         5.0365 
 219   0.0000       0.196745         5.3537 
 220   0.0000       0.197869         5.3843 
 221   0.0000       0.203868         5.5475 
 222   0.0000       0.204923         5.5762 
 223   0.0000       0.206547         5.6204 
 224   0.0000       0.213118         5.7992 
 225   0.0000       0.214621         5.8401 
 226   0.0000       0.222020         6.0415 
 227   0.0000       0.223238         6.0746 
 228   0.0000       0.227310         6.1854 
 229   0.0000       0.232301         6.3212 
 230   0.0000       0.238314         6.4849 
 231   0.0000       0.241548         6.5729 
 232   0.0000       0.246123         6.6974 
 233   0.0000       0.252427         6.8689 
 234   0.0000       0.254043         6.9129 
 235   0.0000       0.261145         7.1061 
 236   0.0000       0.263560         7.1718 
 237   0.0000       0.271587         7.3903 
 238   0.0000       0.274540         7.4706 
 239   0.0000       0.282570         7.6891 
 240   0.0000       0.286740         7.8026 
 241   0.0000       0.290916         7.9162 
 242   0.0000       0.291038         7.9196 
 243   0.0000       0.302050         8.2192 
 244   0.0000       0.305207         8.3051 
 245   0.0000       0.313074         8.5192 
 246   0.0000       0.315805         8.5935 
 247   0.0000       0.319347         8.6899 
 248   0.0000       0.321355         8.7445 
 249   0.0000       0.324514         8.8305 
 250   0.0000       0.326653         8.8887 
 251   0.0000       0.332202         9.0397 
 252   0.0000       0.334172         9.0933 
 253   0.0000       0.336369         9.1531 
 254   0.0000       0.341349         9.2886 
 255   0.0000       0.344953         9.3866 
 256   0.0000       0.348160         9.4739 
 257   0.0000       0.362367         9.8605 
 258   0.0000       0.370600        10.0845 
 259   0.0000       0.373395        10.1606 
 260   0.0000       0.376199        10.2369 
 261   0.0000       0.380836        10.3631 
 262   0.0000       0.390476        10.6254 
 263   0.0000       0.390848        10.6355 
 264   0.0000       0.395298        10.7566 
 265   0.0000       0.400845        10.9076 
 266   0.0000       0.403319        10.9749 
 267   0.0000       0.404483        11.0065 
 268   0.0000       0.408105        11.1051 
 269   0.0000       0.416832        11.3426 
 270   0.0000       0.417788        11.3686 
 271   0.0000       0.419613        11.4183 
 272   0.0000       0.430102        11.7037 
 273   0.0000       0.430805        11.7228 
 274   0.0000       0.439321        11.9545 
 275   0.0000       0.445218        12.1150 
 276   0.0000       0.448206        12.1963 
 277   0.0000       0.454122        12.3573 
 278   0.0000       0.456902        12.4329 
 279   0.0000       0.459264        12.4972 
 280   0.0000       0.460715        12.5367 
 281   0.0000       0.464036        12.6271 
 282   0.0000       0.467695        12.7266 
 283   0.0000       0.469364        12.7721 
 284   0.0000       0.478470        13.0198 
 285   0.0000       0.481052        13.0901 
 286   0.0000       0.483787        13.1645 
 287   0.0000       0.484246        13.1770 
 288   0.0000       0.493224        13.4213 
 289   0.0000       0.493371        13.4253 
 290   0.0000       0.496796        13.5185 
 291   0.0000       0.499777        13.5996 
 292   0.0000       0.503248        13.6941 
 293   0.0000       0.506032        13.7698 
 294   0.0000       0.509654        13.8684 
 295   0.0000       0.513712        13.9788 
 296   0.0000       0.514500        14.0002 
 297   0.0000       0.518293        14.1035 
 298   0.0000       0.522678        14.2228 
 299   0.0000       0.526441        14.3252 
 300   0.0000       0.530865        14.4456 
 301   0.0000       0.540154        14.6983 
 302   0.0000       0.542690        14.7674 
 303   0.0000       0.545090        14.8326 
 304   0.0000       0.546969        14.8838 
 305   0.0000       0.556472        15.1424 
 306   0.0000       0.559897        15.2356 
 307   0.0000       0.564450        15.3595 
 308   0.0000       0.600660        16.3448 
 309   0.0000       0.650628        17.7045 
 310   0.0000       0.662501        18.0276 
 311   0.0000       0.663786        18.0625 
 312   0.0000       0.669674        18.2228 
 313   0.0000       0.677467        18.4348 
 314   0.0000       0.681469        18.5437 
 315   0.0000       0.697091        18.9688 
 316   0.0000       0.698290        19.0014 
 317   0.0000       0.700166        19.0525 
 318   0.0000       0.709583        19.3087 
 319   0.0000       0.723432        19.6856 
 320   0.0000       0.726029        19.7563 
 321   0.0000       0.726735        19.7755 
 322   0.0000       0.742358        20.2006 
 323   0.0000       0.754981        20.5441 
 324   0.0000       0.756908        20.5965 
 325   0.0000       0.762769        20.7560 
 326   0.0000       0.774876        21.0855 
 327   0.0000       0.787442        21.4274 
 328   0.0000       0.796217        21.6662 
 329   0.0000       0.798529        21.7291 
 330   0.0000       0.805888        21.9293 
 331   0.0000       0.814830        22.1727 
 332   0.0000       0.823822        22.4173 
 333   0.0000       0.830135        22.5891 
 334   0.0000       0.844144        22.9703 
 335   0.0000       0.868459        23.6320 
 336   0.0000       0.870340        23.6832 
 337   0.0000       0.885940        24.1077 
 338   0.0000       0.890467        24.2308 
 339   0.0000       0.891116        24.2485 
 340   0.0000       0.897565        24.4240 
 341   0.0000       0.902954        24.5706 
 342   0.0000       0.906305        24.6618 
 343   0.0000       0.913924        24.8691 
 344   0.0000       0.917718        24.9724 
 345   0.0000       0.917892        24.9771 
 346   0.0000       0.933899        25.4127 
 347   0.0000       0.936890        25.4941 
 348   0.0000       0.950992        25.8778 
 349   0.0000       0.962813        26.1995 
 350   0.0000       0.986906        26.8551 
 351   0.0000       1.019354        27.7380 
 352   0.0000       1.063500        28.9393 
 353   0.0000       1.138931        30.9919 
 354   0.0000       1.145711        31.1764 
 355   0.0000       1.172871        31.9154 
 356   0.0000       1.173031        31.9198 
 357   0.0000       1.187792        32.3215 
 358   0.0000       1.200472        32.6665 
 359   0.0000       1.212253        32.9871 
 360   0.0000       1.217541        33.1310 
 361   0.0000       1.222951        33.2782 
 362   0.0000       1.238425        33.6993 
 363   0.0000       1.246773        33.9264 
 364   0.0000       1.260999        34.3135 
 365   0.0000       1.261395        34.3243 
 366   0.0000       1.273702        34.6592 
 367   0.0000       1.278942        34.8018 
 368   0.0000       1.296467        35.2787 
 369   0.0000       1.300996        35.4019 
 370   0.0000       1.303903        35.4810 
 371   0.0000       1.308634        35.6097 
 372   0.0000       1.316317        35.8188 
 373   0.0000       1.321266        35.9535 
 374   0.0000       1.321873        35.9700 
 375   0.0000       1.326852        36.1055 
 376   0.0000       1.339667        36.4542 
 377   0.0000       1.344959        36.5982 
 378   0.0000       1.346668        36.6447 
 379   0.0000       1.353722        36.8366 
 380   0.0000       1.363171        37.0938 
 381   0.0000       1.386979        37.7416 
 382   0.0000       1.400124        38.0993 
 383   0.0000       1.402734        38.1703 
 384   0.0000       1.407123        38.2898 
 385   0.0000       1.407984        38.3132 
 386   0.0000       1.408427        38.3252 
 387   0.0000       1.413977        38.4763 
 388   0.0000       1.416282        38.5390 
 389   0.0000       1.420633        38.6574 
 390   0.0000       1.420831        38.6628 
 391   0.0000       1.422743        38.7148 
 392   0.0000       1.427328        38.8396 
 393   0.0000       1.431156        38.9437 
 394   0.0000       1.432249        38.9735 
 395   0.0000       1.435764        39.0691 
 396   0.0000       1.437536        39.1174 
 397   0.0000       1.442912        39.2636 
 398   0.0000       1.446051        39.3490 
 399   0.0000       1.447776        39.3960 
 400   0.0000       1.449727        39.4491 
 401   0.0000       1.453215        39.5440 
 402   0.0000       1.459793        39.7230 
 403   0.0000       1.462329        39.7920 
 404   0.0000       1.464842        39.8604 
 405   0.0000       1.465521        39.8789 
 406   0.0000       1.469148        39.9775 
 407   0.0000       1.469618        39.9903 
 408   0.0000       1.475069        40.1387 
 409   0.0000       1.477487        40.2045 
 410   0.0000       1.477553        40.2063 
 411   0.0000       1.482275        40.3347 
 412   0.0000       1.482976        40.3538 
 413   0.0000       1.483364        40.3644 
 414   0.0000       1.483499        40.3680 
 415   0.0000       1.487445        40.4754 
 416   0.0000       1.490588        40.5610 
 417   0.0000       1.490936        40.5704 
 418   0.0000       1.491721        40.5918 
 419   0.0000       1.491756        40.5927 
 420   0.0000       1.492503        40.6131 
 421   0.0000       1.494888        40.6780 
 422   0.0000       1.495014        40.6814 
 423   0.0000       1.496819        40.7305 
 424   0.0000       1.498578        40.7784 
 425   0.0000       1.499958        40.8159 
 426   0.0000       1.500975        40.8436 
 427   0.0000       1.501777        40.8654 
 428   0.0000       1.503538        40.9133 
 429   0.0000       1.505727        40.9729 
 430   0.0000       1.506872        41.0041 
 431   0.0000       1.507349        41.0170 
 432   0.0000       1.509005        41.0621 
 433   0.0000       1.509472        41.0748 
 434   0.0000       1.509639        41.0794 
 435   0.0000       1.510674        41.1075 
 436   0.0000       1.511869        41.1401 
 437   0.0000       1.512875        41.1674 
 438   0.0000       1.515364        41.2352 
 439   0.0000       1.516774        41.2735 
 440   0.0000       1.516887        41.2766 
 441   0.0000       1.519503        41.3478 
 442   0.0000       1.519900        41.3586 
 443   0.0000       1.521618        41.4053 
 444   0.0000       1.521877        41.4124 
 445   0.0000       1.523531        41.4574 
 446   0.0000       1.524570        41.4856 
 447   0.0000       1.525030        41.4982 
 448   0.0000       1.527380        41.5621 
 449   0.0000       1.531287        41.6684 
 450   0.0000       1.534107        41.7452 
 451   0.0000       1.535566        41.7849 
 452   0.0000       1.538697        41.8701 
 453   0.0000       1.542691        41.9788 
 454   0.0000       1.543056        41.9887 
 455   0.0000       1.549074        42.1524 
 456   0.0000       1.550400        42.1885 
 457   0.0000       1.552188        42.2372 
 458   0.0000       1.555888        42.3379 
 459   0.0000       1.557438        42.3800 
 460   0.0000       1.558069        42.3972 
 461   0.0000       1.562248        42.5109 
 462   0.0000       1.563202        42.5369 
 463   0.0000       1.564043        42.5598 
 464   0.0000       1.565009        42.5861 
 465   0.0000       1.568714        42.6869 
 466   0.0000       1.571075        42.7511 
 467   0.0000       1.572837        42.7991 
 468   0.0000       1.573793        42.8251 
 469   0.0000       1.575988        42.8848 
 470   0.0000       1.581094        43.0238 
 471   0.0000       1.581571        43.0367 
 472   0.0000       1.582586        43.0644 
 473   0.0000       1.585207        43.1357 
 474   0.0000       1.585576        43.1457 
 475   0.0000       1.588798        43.2334 
 476   0.0000       1.595194        43.4074 
 477   0.0000       1.596738        43.4494 
 478   0.0000       1.607350        43.7382 
 479   0.0000       1.608973        43.7824 
 480   0.0000       1.609848        43.8062 
 481   0.0000       1.610182        43.8153 
 482   0.0000       1.611258        43.8446 
 483   0.0000       1.617034        44.0017 
 484   0.0000       1.617368        44.0108 
 485   0.0000       1.621313        44.1182 
 486   0.0000       1.623377        44.1743 
 487   0.0000       1.629797        44.3490 
 488   0.0000       1.632537        44.4236 
 489   0.0000       1.635007        44.4908 
 490   0.0000       1.637079        44.5472 
 491   0.0000       1.640929        44.6520 
 492   0.0000       1.644868        44.7591 
 493   0.0000       1.646359        44.7997 
 494   0.0000       1.656050        45.0634 
 495   0.0000       1.658012        45.1168 
 496   0.0000       1.666660        45.3521 
 497   0.0000       1.675194        45.5843 
 498   0.0000       1.677796        45.6552 
 499   0.0000       1.681420        45.7538 
 500   0.0000       1.685589        45.8672 
 501   0.0000       1.688195        45.9381 
 502   0.0000       1.697610        46.1943 
 503   0.0000       1.703501        46.3546 
 504   0.0000       1.721547        46.8457 
 505   0.0000       1.727850        47.0172 
 506   0.0000       1.735118        47.2150 
 507   0.0000       1.739575        47.3362 
 508   0.0000       1.746533        47.5256 
 509   0.0000       1.747404        47.5493 
 510   0.0000       1.765257        48.0351 
 511   0.0000       1.767971        48.1089 
 512   0.0000       1.770120        48.1674 
 513   0.0000       1.771549        48.2063 
 514   0.0000       1.779200        48.4145 
 515   0.0000       1.782223        48.4968 
 516   0.0000       1.784479        48.5581 
 517   0.0000       1.784686        48.5638 
 518   0.0000       1.786730        48.6194 
 519   0.0000       1.798397        48.9369 
 520   0.0000       1.799293        48.9613 
 521   0.0000       1.807444        49.1830 
 522   0.0000       1.813712        49.3536 
 523   0.0000       1.817389        49.4537 
 524   0.0000       1.819929        49.5228 
 525   0.0000       1.831093        49.8266 
 526   0.0000       1.839238        50.0482 
 527   0.0000       1.873943        50.9926 
 528   0.0000       1.880851        51.1805 
 529   0.0000       1.885781        51.3147 
 530   0.0000       1.896466        51.6055 
 531   0.0000       1.918670        52.2097 
 532   0.0000       1.919434        52.2305 
 533   0.0000       1.953180        53.1487 
 534   0.0000       2.025033        55.1039 
 535   0.0000       2.025251        55.1099 
 536   0.0000       2.131241        57.9940 
 537   0.0000       2.151703        58.5508 
 538   0.0000       2.167625        58.9841 
 539   0.0000       2.193403        59.6855 
 540   0.0000       2.267106        61.6911 
 541   0.0000       2.295233        62.4565 
 542   0.0000       2.296362        62.4872 
 543   0.0000       2.384189        64.8771 
 544   0.0000       2.422635        65.9232 
 545   0.0000       2.437225        66.3203 
 546   0.0000       2.481441        67.5234 
 547   0.0000       2.490910        67.7811 
 548   0.0000       2.498683        67.9926 
 549   0.0000       2.499069        68.0031 
 550   0.0000       2.508374        68.2563 
 551   0.0000       2.521878        68.6238 
 552   0.0000       2.527151        68.7673 
 553   0.0000       2.531693        68.8909 
 554   0.0000       2.574079        70.0443 
 555   0.0000       2.581388        70.2431 
 556   0.0000       2.598522        70.7094 
 557   0.0000       3.399450        92.5037 
 558   0.0000       3.632490        98.8451 
 559   0.0000       3.662482        99.6612 
 560   0.0000       3.686165       100.3056 
 561   0.0000       3.692501       100.4781 
 562   0.0000       3.727222       101.4229 
 563   0.0000       3.876014       105.4717 
 564   0.0000       3.877321       105.5073 
 565   0.0000       3.880207       105.5858 
 566   0.0000       3.887077       105.7727 
 567   0.0000       3.887167       105.7752 
 568   0.0000       3.894684       105.9797 
 569   0.0000       3.896913       106.0404 
 570   0.0000      23.908247       650.5765 
 571   0.0000      24.019969       653.6166 
 572   0.0000      24.125059       656.4762 
 573   0.0000      24.274114       660.5322 
 574   0.0000      24.371301       663.1768 
 575   0.0000      24.502714       666.7527 
 576   0.0000      24.583509       668.9513 
 577   0.0000      24.790333       674.5793 
 578   0.0000      25.210721       686.0186 
 579   0.0000      25.231876       686.5942 
 580   0.0000      25.353987       689.9171 
 581   0.0000      25.366779       690.2652 
 582   0.0000      25.441291       692.2927 
 583   0.0000      25.614152       696.9965 
 584   0.0000      25.615376       697.0298 
 585   0.0000      25.788737       701.7472 
 586   0.0000      25.804180       702.1674 
 587   0.0000      25.944326       705.9810 
 588   0.0000      25.974353       706.7981 
 589   0.0000      26.087245       709.8700 
 590   0.0000      26.243624       714.1253 
 591   0.0000      26.313886       716.0372 
 592   0.0000      26.358196       717.2430 
 593   0.0000      26.550871       722.4859 
 594   0.0000      26.581251       723.3126 
 595   0.0000      26.618550       724.3276 
 596   0.0000      26.683529       726.0957 
 597   0.0000      26.717126       727.0100 
 598   0.0000      26.848195       730.5765 
 599   0.0000      26.909948       732.2569 
 600   0.0000      26.935091       732.9411 
 601   0.0000      27.156838       738.9751 
 602   0.0000      27.312844       743.2203 
 603   0.0000      27.502150       748.3716 
 604   0.0000      27.568304       750.1717 
 605   0.0000      27.612099       751.3634 
 606   0.0000      27.769064       755.6347 
 607   0.0000      27.831097       757.3227 
 608   0.0000      28.086051       764.2603 
 609   0.0000      28.885788       786.0223 
 610   0.0000      28.947374       787.6981 
 611   0.0000      29.988288       816.0228 
 612   0.0000      30.491051       829.7037 
 613   0.0000      30.554587       831.4326 
 614   0.0000      33.135278       901.6568 
 615   0.0000      43.916190      1195.0203 
 616   0.0000      44.034854      1198.2493 
 617   0.0000      44.052345      1198.7253 
 618   0.0000      44.069768      1199.1993 
 619   0.0000      44.123175      1200.6526 
 620   0.0000      44.124431      1200.6868 
 621   0.0000      44.135663      1200.9924 
 622   0.0000      44.149240      1201.3619 
 623   0.0000      44.162880      1201.7330 
 624   0.0000      44.181056      1202.2277 
 625   0.0000      44.182658      1202.2713 
 626   0.0000      44.191377      1202.5085 
 627   0.0000      44.205999      1202.9064 
 628   0.0000      44.238957      1203.8032 
 629   0.0000      44.288463      1205.1503 
 630   0.0000     205.089274      5580.7629 
 631   0.0000     205.139889      5582.1402 
 632   0.0000     205.151242      5582.4491 
 633   0.0000     205.155228      5582.5576 
 634   0.0000     205.179565      5583.2198 
 635   0.0000     205.183957      5583.3393 
 636   0.0000     205.189412      5583.4878 
 637   0.0000     205.194157      5583.6169 
 638   0.0000     205.198475      5583.7344 
 639   0.0000     205.203066      5583.8593 
 640   0.0000     205.206355      5583.9488 
 641   0.0000     205.209869      5584.0444 
 642   0.0000     205.214876      5584.1807 
 643   0.0000     205.228207      5584.5434 
 644   0.0000     205.241411      5584.9027 

                 SPIN DOWN ORBITALS
  NO   OCC          E(Eh)            E(eV) 
   0   1.0000    -254.782967     -6932.9970 
   1   1.0000     -29.561736      -804.4157 
   2   1.0000     -25.514682      -694.2898 
   3   1.0000     -25.510610      -694.1790 
   4   1.0000     -25.510496      -694.1759 
   5   1.0000      -4.037247      -109.8591 
   6   1.0000      -4.033806      -109.7654 
   7   1.0000      -4.033767      -109.7644 
   8   1.0000      -4.032499      -109.7299 
   9   1.0000      -4.032478      -109.7293 
  10   1.0000      -4.030856      -109.6852 
  11   1.0000      -4.030240      -109.6684 
  12   1.0000      -4.030125      -109.6653 
  13   1.0000      -4.027958      -109.6063 
  14   1.0000      -4.027426      -109.5918 
  15   1.0000      -4.027384      -109.5907 
  16   1.0000      -4.026205      -109.5586 
  17   1.0000      -4.025153      -109.5300 
  18   1.0000      -4.021548      -109.4319 
  19   1.0000      -4.021544      -109.4318 
  20   1.0000      -3.262862       -88.7870 
  21   1.0000      -2.252642       -61.2975 
  22   1.0000      -2.251065       -61.2546 
  23   1.0000      -2.250602       -61.2420 
  24   1.0000      -2.250093       -61.2281 
  25   1.0000      -2.249209       -61.2041 
  26   1.0000      -2.249088       -61.2008 
  27   1.0000      -2.247734       -61.1640 
  28   1.0000      -2.246147       -61.1208 
  29   1.0000      -2.245295       -61.0976 
  30   1.0000      -2.245130       -61.0931 
  31   1.0000      -2.244951       -61.0882 
  32   1.0000      -2.244892       -61.0866 
  33   1.0000      -2.244485       -61.0755 
  34   1.0000      -2.244308       -61.0707 
  35   1.0000      -2.244081       -61.0645 
  36   1.0000      -2.243926       -61.0603 
  37   1.0000      -2.243848       -61.0582 
  38   1.0000      -2.243579       -61.0509 
  39   1.0000      -2.243416       -61.0464 
  40   1.0000      -2.243071       -61.0371 
  41   1.0000      -2.242627       -61.0250 
  42   1.0000      -2.242531       -61.0224 
  43   1.0000      -2.242161       -61.0123 
  44   1.0000      -2.241576       -60.9964 
  45   1.0000      -2.241355       -60.9904 
  46   1.0000      -2.241017       -60.9812 
  47   1.0000      -2.240962       -60.9797 
  48   1.0000      -2.240769       -60.9744 
  49   1.0000      -2.240302       -60.9617 
  50   1.0000      -2.239728       -60.9461 
  51   1.0000      -2.239700       -60.9453 
  52   1.0000      -2.239507       -60.9401 
  53   1.0000      -2.238586       -60.9150 
  54   1.0000      -2.238409       -60.9102 
  55   1.0000      -2.238241       -60.9056 
  56   1.0000      -2.237819       -60.8942 
  57   1.0000      -2.237466       -60.8845 
  58   1.0000      -2.236890       -60.8689 
  59   1.0000      -2.236780       -60.8659 
  60   1.0000      -2.235451       -60.8297 
  61   1.0000      -2.235406       -60.8285 
  62   1.0000      -2.234923       -60.8153 
  63   1.0000      -2.234742       -60.8104 
  64   1.0000      -2.232467       -60.7485 
  65   1.0000      -2.232430       -60.7475 
  66   1.0000      -2.082496       -56.6676 
  67   1.0000      -2.077390       -56.5286 
  68   1.0000      -2.077270       -56.5254 
  69   1.0000      -0.441303       -12.0085 
  70   1.0000      -0.396737       -10.7958 
  71   1.0000      -0.393477       -10.7071 
  72   1.0000      -0.390511       -10.6263 
  73   1.0000      -0.377286       -10.2665 
  74   1.0000      -0.373922       -10.1749 
  75   1.0000      -0.370794       -10.0898 
  76   1.0000      -0.369396       -10.0518 
  77   1.0000      -0.369351       -10.0506 
  78   1.0000      -0.364027        -9.9057 
  79   1.0000      -0.362551        -9.8655 
  80   1.0000      -0.359984        -9.7957 
  81   1.0000      -0.354976        -9.6594 
  82   1.0000      -0.353724        -9.6253 
  83   1.0000      -0.353384        -9.6161 
  84   1.0000      -0.351848        -9.5743 
  85   1.0000      -0.349240        -9.5033 
  86   1.0000      -0.349215        -9.5026 
  87   1.0000      -0.346704        -9.4343 
  88   1.0000      -0.346182        -9.4201 
  89   1.0000      -0.343944        -9.3592 
  90   1.0000      -0.343169        -9.3381 
  91   1.0000      -0.342494        -9.3197 
  92   1.0000      -0.340358        -9.2616 
  93   1.0000      -0.336059        -9.1446 
  94   1.0000      -0.334104        -9.0914 
  95   1.0000      -0.331728        -9.0268 
  96   1.0000      -0.327380        -8.9085 
  97   1.0000      -0.324151        -8.8206 
  98   1.0000      -0.322221        -8.7681 
  99   1.0000      -0.319292        -8.6884 
 100   1.0000      -0.316852        -8.6220 
 101   1.0000      -0.312560        -8.5052 
 102   1.0000      -0.310025        -8.4362 
 103   1.0000      -0.308811        -8.4032 
 104   1.0000      -0.306371        -8.3368 
 105   1.0000      -0.304181        -8.2772 
 106   1.0000      -0.299997        -8.1633 
 107   1.0000      -0.296829        -8.0771 
 108   1.0000      -0.292322        -7.9545 
 109   1.0000      -0.290844        -7.9143 
 110   1.0000      -0.288500        -7.8505 
 111   1.0000      -0.287938        -7.8352 
 112   1.0000      -0.284987        -7.7549 
 113   1.0000      -0.284074        -7.7300 
 114   1.0000      -0.283100        -7.7035 
 115   1.0000      -0.283089        -7.7032 
 116   1.0000      -0.280252        -7.6260 
 117   1.0000      -0.278778        -7.5859 
 118   1.0000      -0.277576        -7.5532 
 119   1.0000      -0.276143        -7.5142 
 120   1.0000      -0.274490        -7.4693 
 121   1.0000      -0.273736        -7.4487 
 122   1.0000      -0.272188        -7.4066 
 123   1.0000      -0.272103        -7.4043 
 124   1.0000      -0.271191        -7.3795 
 125   1.0000      -0.269748        -7.3402 
 126   1.0000      -0.268336        -7.3018 
 127   1.0000      -0.266175        -7.2430 
 128   1.0000      -0.264685        -7.2024 
 129   1.0000      -0.263566        -7.1720 
 130   1.0000      -0.263039        -7.1577 
 131   1.0000      -0.262372        -7.1395 
 132   1.0000      -0.259679        -7.0662 
 133   1.0000      -0.258711        -7.0399 
 134   1.0000      -0.258423        -7.0321 
 135   1.0000      -0.255067        -6.9407 
 136   1.0000      -0.254735        -6.9317 
 137   1.0000      -0.253413        -6.8957 
 138   1.0000      -0.251944        -6.8558 
 139   1.0000      -0.250700        -6.8219 
 140   1.0000      -0.248404        -6.7594 
 141   1.0000      -0.247992        -6.7482 
 142   1.0000      -0.246267        -6.7013 
 143   1.0000      -0.244987        -6.6664 
 144   1.0000      -0.244918        -6.6646 
 145   1.0000      -0.241058        -6.5595 
 146   1.0000      -0.240491        -6.5441 
 147   1.0000      -0.231595        -6.3020 
 148   1.0000      -0.223767        -6.0890 
 149   1.0000      -0.220476        -5.9994 
 150   1.0000      -0.211954        -5.7676 
 151   1.0000      -0.208243        -5.6666 
 152   1.0000      -0.205682        -5.5969 
 153   0.0000      -0.179718        -4.8904 
 154   0.0000      -0.177055        -4.8179 
 155   0.0000      -0.175218        -4.7679 
 156   0.0000      -0.166841        -4.5400 
 157   0.0000      -0.165565        -4.5052 
 158   0.0000      -0.145128        -3.9491 
 159   0.0000      -0.134872        -3.6701 
 160   0.0000      -0.133004        -3.6192 
 161   0.0000      -0.122649        -3.3374 
 162   0.0000      -0.120072        -3.2673 
 163   0.0000      -0.111863        -3.0440 
 164   0.0000      -0.107155        -2.9158 
 165   0.0000      -0.070166        -1.9093 
 166   0.0000      -0.067745        -1.8434 
 167   0.0000      -0.067629        -1.8403 
 168   0.0000      -0.064817        -1.7638 
 169   0.0000      -0.037592        -1.0229 
 170   0.0000      -0.037170        -1.0114 
 171   0.0000      -0.030840        -0.8392 
 172   0.0000      -0.028418        -0.7733 
 173   0.0000      -0.023286        -0.6336 
 174   0.0000      -0.015047        -0.4094 
 175   0.0000      -0.012596        -0.3428 
 176   0.0000      -0.007669        -0.2087 
 177   0.0000       0.019331         0.5260 
 178   0.0000       0.025862         0.7037 
 179   0.0000       0.029805         0.8110 
 180   0.0000       0.034259         0.9322 
 181   0.0000       0.036413         0.9909 
 182   0.0000       0.041762         1.1364 
 183   0.0000       0.043799         1.1918 
 184   0.0000       0.056306         1.5322 
 185   0.0000       0.057683         1.5696 
 186   0.0000       0.060440         1.6447 
 187   0.0000       0.065067         1.7706 
 188   0.0000       0.065748         1.7891 
 189   0.0000       0.065967         1.7950 
 190   0.0000       0.072283         1.9669 
 191   0.0000       0.073751         2.0069 
 192   0.0000       0.075028         2.0416 
 193   0.0000       0.083655         2.2764 
 194   0.0000       0.087127         2.3708 
 195   0.0000       0.088121         2.3979 
 196   0.0000       0.091085         2.4786 
 197   0.0000       0.095126         2.5885 
 198   0.0000       0.101104         2.7512 
 199   0.0000       0.104033         2.8309 
 200   0.0000       0.112856         3.0710 
 201   0.0000       0.123785         3.3684 
 202   0.0000       0.131834         3.5874 
 203   0.0000       0.134552         3.6613 
 204   0.0000       0.139701         3.8015 
 205   0.0000       0.145096         3.9483 
 206   0.0000       0.146859         3.9962 
 207   0.0000       0.151367         4.1189 
 208   0.0000       0.159138         4.3304 
 209   0.0000       0.159911         4.3514 
 210   0.0000       0.165449         4.5021 
 211   0.0000       0.169404         4.6097 
 212   0.0000       0.173149         4.7116 
 213   0.0000       0.176100         4.7919 
 214   0.0000       0.176210         4.7949 
 215   0.0000       0.176838         4.8120 
 216   0.0000       0.181526         4.9396 
 217   0.0000       0.188389         5.1263 
 218   0.0000       0.195150         5.3103 
 219   0.0000       0.199723         5.4348 
 220   0.0000       0.201972         5.4959 
 221   0.0000       0.207029         5.6335 
 222   0.0000       0.208030         5.6608 
 223   0.0000       0.209004         5.6873 
 224   0.0000       0.216506         5.8914 
[...]
      py      :     2.094443
      dz2     :     1.977341  d :     9.893004
      dxz     :     1.973207
      dyz     :     1.990448
      dx2y2   :     1.986969
      dxy     :     1.965039
      f0      :     0.000629  f :     0.005167
      f+1     :     0.000566
      f-1     :     0.000959
      f+2     :     0.000616
      f-2     :     0.001052
      f+3     :     0.000776
      f-3     :     0.000568
  8 Aus       :     2.536831  s :     2.536831
      pz      :     2.148236  p :     6.566830
      px      :     2.201424
      py      :     2.217170
      dz2     :     1.984521  d :     9.868693
      dxz     :     1.990422
      dyz     :     1.937096
      dx2y2   :     1.968353
      dxy     :     1.988301
      f0      :     0.000805  f :     0.006568
      f+1     :     0.000605
      f-1     :     0.000941
      f+2     :     0.001070
      f-2     :     0.001064
      f+3     :     0.001223
      f-3     :     0.000860
  9 Aus       :     2.473792  s :     2.473792
      pz      :     2.245732  p :     6.639706
      px      :     2.138685
      py      :     2.255288
      dz2     :     1.989869  d :     9.920849
      dxz     :     1.993887
      dyz     :     1.982382
      dx2y2   :     1.979570
      dxy     :     1.975141
      f0      :     0.000909  f :     0.007115
      f+1     :     0.000886
      f-1     :     0.001486
      f+2     :     0.001013
      f-2     :     0.000999
      f+3     :     0.000977
      f-3     :     0.000846
 10 Aus       :     2.553699  s :     2.553699
      pz      :     2.208193  p :     6.488272
      px      :     2.113235
      py      :     2.166844
      dz2     :     1.975673  d :     9.869347
      dxz     :     1.983749
      dyz     :     1.968436
      dx2y2   :     1.980618
      dxy     :     1.960872
      f0      :     0.000727  f :     0.005821
      f+1     :     0.000800
      f-1     :     0.000915
      f+2     :     0.000841
      f-2     :     0.001027
      f+3     :     0.000680
      f-3     :     0.000832
 11 Aus       :     2.517140  s :     2.517140
      pz      :     2.134023  p :     6.517159
      px      :     2.170037
      py      :     2.213100
      dz2     :     1.986535  d :     9.876629
      dxz     :     1.955155
      dyz     :     1.975617
      dx2y2   :     1.982293
      dxy     :     1.977029
      f0      :     0.000831  f :     0.006185
      f+1     :     0.000857
      f-1     :     0.001050
      f+2     :     0.000799
      f-2     :     0.000882
      f+3     :     0.001110
      f-3     :     0.000656
 12 Aus       :     2.552696  s :     2.552696
      pz      :     2.118392  p :     6.520072
      px      :     2.195211
      py      :     2.206469
      dz2     :     1.967526  d :     9.869510
      dxz     :     1.974703
      dyz     :     1.990487
      dx2y2   :     1.964788
      dxy     :     1.972006
      f0      :     0.000778  f :     0.005847
      f+1     :     0.000835
      f-1     :     0.000883
      f+2     :     0.000709
      f-2     :     0.001017
      f+3     :     0.001006
      f-3     :     0.000619
 13 Aus       :     2.549323  s :     2.549323
      pz      :     2.202682  p :     6.499280
      px      :     2.132766
      py      :     2.163832
      dz2     :     1.965509  d :     9.895298
      dxz     :     1.991149
      dyz     :     1.974442
      dx2y2   :     2.000217
      dxy     :     1.963981
      f0      :     0.000621  f :     0.005666
      f+1     :     0.000805
      f-1     :     0.000972
      f+2     :     0.000964
      f-2     :     0.000749
      f+3     :     0.000640
      f-3     :     0.000916
 14 Aus       :     2.552499  s :     2.552499
      pz      :     2.195400  p :     6.520299
      px      :     2.212882
      py      :     2.112017
      dz2     :     1.977894  d :     9.869395
      dxz     :     1.960336
      dyz     :     1.972663
      dx2y2   :     1.961741
      dxy     :     1.996762
      f0      :     0.001062  f :     0.005857
      f+1     :     0.000672
      f-1     :     0.000687
      f+2     :     0.000703
      f-2     :     0.001037
      f+3     :     0.000913
      f-3     :     0.000783
 15 Fes       :     6.255426  s :     6.255426
      pz      :     4.189503  p :    12.557546
      px      :     4.185662
      py      :     4.182382
      dz2     :     1.525759  d :     7.817489
      dxz     :     1.555840
      dyz     :     1.597926
      dx2y2   :     1.365875
      dxy     :     1.772089
      f0      :     0.000072  f :     0.000516
      f+1     :     0.000083
      f-1     :     0.000062
      f+2     :     0.000087
      f-2     :     0.000061
      f+3     :     0.000057
      f-3     :     0.000094

SPIN
  0 Aus       :     0.005748  s :     0.005748
      pz      :    -0.009290  p :    -0.016542
      px      :     0.008357
      py      :    -0.015608
      dz2     :     0.003686  d :     0.019480
      dxz     :     0.001478
      dyz     :    -0.004262
      dx2y2   :    -0.001984
      dxy     :     0.020561
      f0      :     0.000008  f :     0.000125
      f+1     :     0.000010
      f-1     :     0.000011
      f+2     :    -0.000014
      f-2     :     0.000032
      f+3     :     0.000019
      f-3     :     0.000059
  1 Aus       :     0.013387  s :     0.013387
      pz      :     0.000561  p :    -0.008696
      px      :     0.001368
      py      :    -0.010625
      dz2     :    -0.012005  d :    -0.022142
      dxz     :    -0.001397
      dyz     :    -0.002156
      dx2y2   :    -0.002672
      dxy     :    -0.003911
      f0      :    -0.000008  f :    -0.000052
      f+1     :    -0.000013
      f-1     :    -0.000005
      f+2     :    -0.000013
      f-2     :    -0.000003
      f+3     :    -0.000017
      f-3     :     0.000006
  2 Aus       :     0.008374  s :     0.008374
      pz      :     0.009992  p :    -0.025590
      px      :    -0.036537
      py      :     0.000955
      dz2     :     0.000346  d :     0.012385
      dxz     :    -0.003238
      dyz     :     0.017010
      dx2y2   :     0.004391
      dxy     :    -0.006123
      f0      :     0.000011  f :     0.000112
      f+1     :    -0.000009
      f-1     :     0.000035
      f+2     :     0.000073
      f-2     :    -0.000001
      f+3     :    -0.000001
      f-3     :     0.000004
  3 Aus       :    -0.036337  s :    -0.036337
      pz      :     0.007111  p :     0.000144
      px      :    -0.007622
      py      :     0.000655
      dz2     :     0.000925  d :     0.008680
      dxz     :     0.012460
      dyz     :    -0.006337
      dx2y2   :     0.002665
      dxy     :    -0.001032
      f0      :     0.000019  f :     0.000102
      f+1     :     0.000055
      f-1     :    -0.000003
      f+2     :     0.000023
      f-2     :     0.000012
      f+3     :     0.000008
      f-3     :    -0.000011
  4 Aus       :     0.015131  s :     0.015131
      pz      :     0.008653  p :     0.009801
      px      :    -0.001901
      py      :     0.003050
      dz2     :     0.019276  d :     0.008185
      dxz     :     0.002148
      dyz     :    -0.002266
      dx2y2   :    -0.005875
      dxy     :    -0.005099
      f0      :     0.000070  f :     0.000089
      f+1     :     0.000051
      f-1     :     0.000004
      f+2     :    -0.000016
      f-2     :    -0.000017
      f+3     :     0.000003
      f-3     :    -0.000006
  5 Aus       :     0.014806  s :     0.014806
      pz      :     0.000724  p :     0.009552
      px      :     0.005489
      py      :     0.003339
      dz2     :    -0.007503  d :     0.007783
      dxz     :    -0.000066
      dyz     :     0.007844
      dx2y2   :     0.007450
      dxy     :     0.000058
      f0      :     0.000022  f :     0.000087
      f+1     :    -0.000005
      f-1     :     0.000003
      f+2     :     0.000027
      f-2     :     0.000027
      f+3     :     0.000008
      f-3     :     0.000006
  6 Aus       :    -0.005512  s :    -0.005512
      pz      :     0.004546  p :     0.001579
      px      :    -0.003263
      py      :     0.000295
      dz2     :    -0.001056  d :    -0.008981
      dxz     :    -0.005542
      dyz     :    -0.001864
      dx2y2   :    -0.000425
      dxy     :    -0.000094
      f0      :     0.000002  f :    -0.000043
      f+1     :    -0.000005
      f-1     :    -0.000007
      f+2     :    -0.000017
      f-2     :    -0.000001
      f+3     :     0.000002
      f-3     :    -0.000018
  7 Aus       :     0.012710  s :     0.012710
      pz      :     0.013255  p :    -0.009073
      px      :    -0.019984
      py      :    -0.002344
      dz2     :     0.000509  d :    -0.022426
      dxz     :     0.000770
      dyz     :     0.000197
      dx2y2   :    -0.002894
      dxy     :    -0.021009
      f0      :    -0.000016  f :    -0.000052
      f+1     :    -0.000008
      f-1     :    -0.000005
      f+2     :     0.000004
      f-2     :    -0.000001
      f+3     :    -0.000026
      f-3     :     0.000000
  8 Aus       :     0.006083  s :     0.006083
      pz      :     0.008407  p :    -0.016598
      px      :    -0.030476
      py      :     0.005472
      dz2     :     0.005430  d :     0.019280
      dxz     :    -0.002573
      dyz     :     0.018668
      dx2y2   :     0.000944
      dxy     :    -0.003189
      f0      :     0.000028  f :     0.000124
      f+1     :    -0.000008
      f-1     :     0.000071
      f+2     :     0.000039
      f-2     :     0.000002
      f+3     :     0.000001
      f-3     :    -0.000009
  9 Aus       :    -0.048777  s :    -0.048777
      pz      :    -0.003726  p :    -0.008101
      px      :    -0.006325
      py      :     0.001951
      dz2     :     0.001220  d :     0.004062
      dxz     :     0.000257
      dyz     :    -0.006498
      dx2y2   :     0.002292
      dxy     :     0.006791
      f0      :    -0.000020  f :     0.000029
      f+1     :     0.000024
      f-1     :     0.000020
      f+2     :    -0.000025
      f-2     :    -0.000019
      f+3     :     0.000007
      f-3     :     0.000043
 10 Aus       :     0.008215  s :     0.008215
      pz      :    -0.008953  p :    -0.025558
      px      :     0.002099
      py      :    -0.018704
      dz2     :     0.003773  d :     0.012133
      dxz     :    -0.000770
      dyz     :    -0.004745
      dx2y2   :     0.000437
      dxy     :     0.013439
      f0      :     0.000008  f :     0.000109
      f+1     :     0.000015
      f-1     :    -0.000006
      f+2     :    -0.000006
      f-2     :     0.000028
      f+3     :    -0.000003
      f-3     :     0.000074
 11 Aus       :    -0.014748  s :    -0.014748
      pz      :     0.006027  p :     0.001436
      px      :    -0.006182
      py      :     0.001591
      dz2     :     0.001730  d :    -0.002781
      dxz     :     0.008525
      dyz     :    -0.010084
      dx2y2   :     0.000698
      dxy     :    -0.003649
      f0      :     0.000008  f :     0.000041
      f+1     :     0.000040
      f-1     :    -0.000019
      f+2     :     0.000018
      f-2     :     0.000007
      f+3     :    -0.000001
      f-3     :    -0.000011
 12 Aus       :     0.006043  s :     0.006043
      pz      :     0.005979  p :     0.002358
      px      :     0.001885
      py      :    -0.005505
      dz2     :     0.008864  d :     0.001176
      dxz     :     0.004665
      dyz     :    -0.001685
      dx2y2   :    -0.008624
      dxy     :    -0.002042
      f0      :     0.000018  f :     0.000084
      f+1     :     0.000060
      f-1     :     0.000023
      f+2     :     0.000003
      f-2     :    -0.000008
      f+3     :     0.000001
      f-3     :    -0.000012
 13 Aus       :    -0.041123  s :    -0.041123
      pz      :    -0.008415  p :    -0.018116
      px      :    -0.010163
      py      :     0.000463
      dz2     :    -0.004222  d :    -0.010048
      dxz     :     0.000561
      dyz     :    -0.008426
      dx2y2   :    -0.001033
      dxy     :     0.003071
      f0      :     0.000004  f :    -0.000039
      f+1     :    -0.000011
      f-1     :    -0.000004
      f+2     :    -0.000023
      f-2     :     0.000002
      f+3     :     0.000010
      f-3     :    -0.000017
 14 Aus       :     0.005809  s :     0.005809
      pz      :    -0.001072  p :     0.002161
      px      :     0.001082
      py      :     0.002150
      dz2     :    -0.005152  d :     0.001075
      dxz     :    -0.008274
      dyz     :     0.004236
      dx2y2   :     0.010820
      dxy     :    -0.000556
      f0      :     0.000001  f :     0.000084
      f+1     :    -0.000015
      f-1     :     0.000006
      f+2     :     0.000059
      f-2     :    -0.000002
      f+3     :    -0.000026
      f-3     :     0.000061
 15 Fes       :     0.009643  s :     0.009643
      pz      :     0.005095  p :     0.014720
      px      :     0.005187
      py      :     0.004438
      dz2     :     0.710495  d :     3.098374
      dxz     :     0.609094
      dyz     :     0.618402
      dx2y2   :     0.797916
      dxy     :     0.362467
      f0      :     0.000008  f :     0.000031
      f+1     :     0.000001
      f-1     :    -0.000001
      f+2     :     0.000001
      f-2     :     0.000012
      f+3     :     0.000006
      f-3     :     0.000004


                      *****************************
                      * MAYER POPULATION ANALYSIS *
                      *****************************

  NA   - Mulliken gross atomic population
  ZA   - Total nuclear charge
  QA   - Mulliken gross atomic charge
  VA   - Mayer's total valence
  BVA  - Mayer's bonded valence
  FA   - Mayer's free valence

  ATOM       NA         ZA         QA         VA         BVA        FA
  0 Au    18.9826    19.0000     0.0174     1.9405     1.9340     0.0065
  1 Au    18.6248    19.0000     0.3752     1.5159     1.5145     0.0015
  2 Au    18.6945    19.0000     0.3055     1.5828     1.5766     0.0062
  3 Au    18.5954    19.0000     0.4046     1.6446     1.6347     0.0099
  4 Au    19.1580    19.0000    -0.1580     2.0271     2.0198     0.0073
  5 Au    19.1590    19.0000    -0.1590     2.0274     2.0201     0.0073
  6 Au    18.7633    19.0000     0.2367     1.6286     1.6277     0.0009
  7 Au    18.6247    19.0000     0.3753     1.5158     1.5144     0.0015
  8 Au    18.9845    19.0000     0.0155     1.9409     1.9344     0.0066
  9 Au    19.2235    19.0000    -0.2235     2.1720     2.1563     0.0157
 10 Au    18.6940    19.0000     0.3060     1.5825     1.5764     0.0062
 11 Au    18.6894    19.0000     0.3106     1.6405     1.6372     0.0033
 12 Au    18.6831    19.0000     0.3169     1.6507     1.6481     0.0025
 13 Au    18.7481    19.0000     0.2519     1.6475     1.6378     0.0097
 14 Au    18.6832    19.0000     0.3168     1.6510     1.6485     0.0025
 15 Fe    28.6918    26.0000    -2.6918     7.8619     5.3483     2.5136

  Mayer bond orders larger than 0.100000
B(  0-Au,  1-Au) :   0.3544 B(  0-Au,  2-Au) :   0.1271 B(  0-Au,  4-Au) :   0.1269 
B(  0-Au,  9-Au) :   0.2178 B(  0-Au, 11-Au) :   0.1511 B(  0-Au, 14-Au) :   0.2627 
B(  0-Au, 15-Fe) :   0.4910 B(  1-Au,  4-Au) :   0.2541 B(  1-Au,  6-Au) :   0.2399 
B(  1-Au,  9-Au) :   0.3057 B(  2-Au,  3-Au) :   0.1397 B(  2-Au,  4-Au) :   0.2357 
B(  2-Au, 13-Au) :   0.1919 B(  2-Au, 14-Au) :   0.1718 B(  2-Au, 15-Fe) :   0.4525 
B(  3-Au,  4-Au) :   0.2630 B(  3-Au,  5-Au) :   0.2629 B(  3-Au, 10-Au) :   0.1389 
B(  3-Au, 13-Au) :   0.2197 B(  3-Au, 15-Fe) :   0.4013 B(  4-Au,  5-Au) :   0.1294 
B(  4-Au,  6-Au) :   0.2954 B(  4-Au, 15-Fe) :   0.4732 B(  5-Au,  6-Au) :   0.2957 
B(  5-Au,  7-Au) :   0.2534 B(  5-Au,  8-Au) :   0.1272 B(  5-Au, 10-Au) :   0.2359 
B(  5-Au, 15-Fe) :   0.4735 B(  6-Au,  7-Au) :   0.2408 B(  6-Au,  9-Au) :   0.2381 
B(  7-Au,  8-Au) :   0.3540 B(  7-Au,  9-Au) :   0.3059 B(  8-Au,  9-Au) :   0.2179 
B(  8-Au, 10-Au) :   0.1274 B(  8-Au, 11-Au) :   0.1505 B(  8-Au, 12-Au) :   0.2638 
B(  8-Au, 15-Fe) :   0.4906 B(  9-Au, 11-Au) :   0.2659 B(  9-Au, 15-Fe) :   0.3394 
B( 10-Au, 12-Au) :   0.1716 B( 10-Au, 13-Au) :   0.1939 B( 10-Au, 15-Fe) :   0.4512 
B( 11-Au, 12-Au) :   0.2006 B( 11-Au, 14-Au) :   0.2006 B( 11-Au, 15-Fe) :   0.4464 
B( 12-Au, 13-Au) :   0.1924 B( 12-Au, 14-Au) :   0.1823 B( 12-Au, 15-Fe) :   0.3662 
B( 13-Au, 14-Au) :   0.1927 B( 13-Au, 15-Fe) :   0.3680 B( 14-Au, 15-Fe) :   0.3667 


-------
TIMINGS
-------

Total SCF time: 0 days 0 hours 10 min 0 sec 

Total time                  ....     600.379 sec
Sum of individual times     ....     593.981 sec  ( 98.9%)

Fock matrix formation       ....     537.087 sec  ( 89.5%)
  Split-RI-J                ....     174.988 sec  ( 32.6% of F)
  XC integration            ....     356.251 sec  ( 66.3% of F)
    Basis function eval.    ....      42.166 sec  ( 11.8% of XC)
    Density eval.           ....     170.224 sec  ( 47.8% of XC)
    XC-Functional eval.     ....       5.936 sec  (  1.7% of XC)
    XC-Potential eval.      ....     119.476 sec  ( 33.5% of XC)
Diagonalization             ....      35.041 sec  (  5.8%)
Density matrix formation    ....       2.551 sec  (  0.4%)
Population analysis         ....       0.167 sec  (  0.0%)
Initial guess               ....       0.242 sec  (  0.0%)
Orbital Transformation      ....       2.030 sec  (  0.3%)
Orbital Orthonormalization  ....       0.207 sec  (  0.0%)
DIIS solution               ....      15.466 sec  (  2.6%)
Grid generation             ....       1.384 sec  (  0.2%)

Maximum memory used throughout the entire SCF-calculation: 122.4 MB

-------------------------   --------------------
FINAL SINGLE POINT ENERGY     -3300.911968760419
-------------------------   --------------------


                            ***************************************
                            *     ORCA property calculations      *
                            ***************************************

                                    ---------------------
                                    Active property flags
                                    ---------------------
   (+) Dipole Moment


------------------------------------------------------------------------------
                       ORCA ELECTRIC PROPERTIES CALCULATION
------------------------------------------------------------------------------

Dipole Moment Calculation                       ... on
Quadrupole Moment Calculation                   ... off
Polarizability Calculation                      ... off
GBWName                                         ... pbeSP_job2.gbw
Electron density                                ... pbeSP_job2.scfp
The origin for moment calculation is the CENTER OF MASS  = (13.490643, 14.698684 14.322995)

-------------
DIPOLE MOMENT
-------------
                                X             Y             Z
Electronic contribution:     12.86703      13.67793      -7.44573
Nuclear contribution   :    -12.79076     -13.68149       7.52437
                        -----------------------------------------
Total Dipole Moment    :      0.07627      -0.00356       0.07864
                        -----------------------------------------
Magnitude (a.u.)       :      0.10960
Magnitude (Debye)      :      0.27859



--------------------
Rotational spectrum 
--------------------
 
Rotational constants in cm-1:     0.001103     0.000907     0.000844 
Rotational constants in MHz :    33.069183    27.199640    25.314780 

 Dipole components along the rotational axes: 
x,y,z [a.u.] :    -0.009459     0.001318    -0.109188 
x,y,z [Debye]:    -0.024042     0.003349    -0.277533 

 

Timings for individual modules:

Sum of individual times         ...      611.600 sec (=  10.193 min)
GTO integral calculation        ...       11.078 sec (=   0.185 min)   1.8 %
SCF iterations                  ...      600.522 sec (=  10.009 min)  98.2 %



                             ****ORCA TERMINATED NORMALLY****
TOTAL RUN TIME: 0 days 0 hours 13 minutes 39 seconds 830 msec
