
                                 *****************
                                 * O   R   C   A *
                                 *****************

                                            #,                                       
                                            ###                                      
                                            ####                                     
                                            #####                                    
                                            ######                                   
                                           ########,                                 
                                     ,,################,,,,,                         
                               ,,#################################,,                 
                          ,,##########################################,,             
                       ,#########################################, ''#####,          
                    ,#############################################,,   '####,        
                  ,##################################################,,,,####,       
                ,###########''''           ''''###############################       
              ,#####''   ,,,,##########,,,,          '''####'''          '####       
            ,##' ,,,,###########################,,,                        '##       
           ' ,,###''''                  '''############,,,                           
         ,,##''                                '''############,,,,        ,,,,,,###''
      ,#''                                            '''#######################'''  
     '                                                          ''''####''''         
             ,#######,   #######,   ,#######,      ##                                
            ,#'     '#,  ##    ##  ,#'     '#,    #''#        ######   ,####,        
            ##       ##  ##   ,#'  ##            #'  '#       #        #'  '#        
            ##       ##  #######   ##           ,######,      #####,   #    #        
            '#,     ,#'  ##    ##  '#,     ,#' ,#      #,         ##   #,  ,#        
             '#######'   ##     ##  '#######'  #'      '#     #####' # '####'        



                  #######################################################
                  #                        -***-                        #
                  #          Department of theory and spectroscopy      #
                  #    Directorship and core code : Frank Neese         #
                  #        Max Planck Institute fuer Kohlenforschung    #
                  #                Kaiser Wilhelm Platz 1               #
                  #                 D-45470 Muelheim/Ruhr               #
                  #                      Germany                        #
                  #                                                     #
                  #                  All rights reserved                #
                  #                        -***-                        #
                  #######################################################


                         Program Version 5.0.3 -  RELEASE  -


 With contributions from (in alphabetic order):
   Daniel Aravena         : Magnetic Suceptibility
   Michael Atanasov       : Ab Initio Ligand Field Theory (pilot matlab implementation)
   Alexander A. Auer      : GIAO ZORA, VPT2 properties, NMR spectrum
   Ute Becker             : Parallelization
   Giovanni Bistoni       : ED, misc. LED, open-shell LED, HFLD
   Martin Brehm           : Molecular dynamics
   Dmytro Bykov           : SCF Hessian
   Vijay G. Chilkuri      : MRCI spin determinant printing, contributions to CSF-ICE
   Dipayan Datta          : RHF DLPNO-CCSD density
   Achintya Kumar Dutta   : EOM-CC, STEOM-CC
   Dmitry Ganyushin       : Spin-Orbit,Spin-Spin,Magnetic field MRCI
   Miquel Garcia          : C-PCM and meta-GGA Hessian, CC/C-PCM, Gaussian charge scheme
   Yang Guo               : DLPNO-NEVPT2, F12-NEVPT2, CIM, IAO-localization
   Andreas Hansen         : Spin unrestricted coupled pair/coupled cluster methods
   Benjamin Helmich-Paris : MC-RPA, TRAH-SCF, COSX integrals
   Lee Huntington         : MR-EOM, pCC
   Robert Izsak           : Overlap fitted RIJCOSX, COSX-SCS-MP3, EOM
   Marcus Kettner         : VPT2
   Christian Kollmar      : KDIIS, OOCD, Brueckner-CCSD(T), CCSD density, CASPT2, CASPT2-K
   Simone Kossmann        : Meta GGA functionals, TD-DFT gradient, OOMP2, MP2 Hessian
   Martin Krupicka        : Initial AUTO-CI
   Lucas Lang             : DCDCAS
   Marvin Lechner         : AUTO-CI (C++ implementation), FIC-MRCC
   Dagmar Lenk            : GEPOL surface, SMD
   Dimitrios Liakos       : Extrapolation schemes; Compound Job, initial MDCI parallelization
   Dimitrios Manganas     : Further ROCIS development; embedding schemes
   Dimitrios Pantazis     : SARC Basis sets
   Anastasios Papadopoulos: AUTO-CI, single reference methods and gradients
   Taras Petrenko         : DFT Hessian,TD-DFT gradient, ASA, ECA, R-Raman, ABS, FL, XAS/XES, NRVS
   Peter Pinski           : DLPNO-MP2, DLPNO-MP2 Gradient
   Christoph Reimann      : Effective Core Potentials
   Marius Retegan         : Local ZFS, SOC
   Christoph Riplinger    : Optimizer, TS searches, QM/MM, DLPNO-CCSD(T), (RO)-DLPNO pert. Triples
   Tobias Risthaus        : Range-separated hybrids, TD-DFT gradient, RPA, STAB
   Michael Roemelt        : Original ROCIS implementation
   Masaaki Saitow         : Open-shell DLPNO-CCSD energy and density
   Barbara Sandhoefer     : DKH picture change effects
   Avijit Sen             : IP-ROCIS
   Kantharuban Sivalingam : CASSCF convergence, NEVPT2, FIC-MRCI
   Bernardo de Souza      : ESD, SOC TD-DFT
   Georgi Stoychev        : AutoAux, RI-MP2 NMR, DLPNO-MP2 response
   Willem Van den Heuvel  : Paramagnetic NMR
   Boris Wezisla          : Elementary symmetry handling
   Frank Wennmohs         : Technical directorship


 We gratefully acknowledge several colleagues who have allowed us to
 interface, adapt or use parts of their codes:
   Stefan Grimme, W. Hujo, H. Kruse, P. Pracht,  : VdW corrections, initial TS optimization,
                  C. Bannwarth, S. Ehlert          DFT functionals, gCP, sTDA/sTD-DF
   Ed Valeev, F. Pavosevic, A. Kumar             : LibInt (2-el integral package), F12 methods
   Garnet Chan, S. Sharma, J. Yang, R. Olivares  : DMRG
   Ulf Ekstrom                                   : XCFun DFT Library
   Mihaly Kallay                                 : mrcc  (arbitrary order and MRCC methods)
   Jiri Pittner, Ondrej Demel                    : Mk-CCSD
   Frank Weinhold                                : gennbo (NPA and NBO analysis)
   Christopher J. Cramer and Donald G. Truhlar   : smd solvation model
   Lars Goerigk                                  : TD-DFT with DH, B97 family of functionals
   V. Asgeirsson, H. Jonsson                     : NEB implementation
   FAccTs GmbH                                   : IRC, NEB, NEB-TS, DLPNO-Multilevel, CI-OPT
                                                   MM, QMMM, 2- and 3-layer-ONIOM, Crystal-QMMM,
                                                   LR-CPCM, SF, NACMEs, symmetry and pop. for TD-DFT,
                                                   nearIR, NL-DFT gradient (VV10), updates on ESD,
                                                   ML-optimized integration grids
   S Lehtola, MJT Oliveira, MAL Marques          : LibXC Library
   Liviu Ungur et al                             : ANISO software


 Your calculation uses the libint2 library for the computation of 2-el integrals
 For citations please refer to: http://libint.valeyev.net

 Your ORCA version has been built with support for libXC version: 5.1.0
 For citations please refer to: https://tddft.org/programs/libxc/

 This ORCA versions uses:
   CBLAS   interface :  Fast vector & matrix operations
   LAPACKE interface :  Fast linear algebra routines
   SCALAPACK package :  Parallel linear algebra routines
   Shared memory     :  Shared parallel matrices
   BLAS/LAPACK       :  OpenBLAS 0.3.15  USE64BITINT DYNAMIC_ARCH NO_AFFINITY Sandybridge SINGLE_THREADED
        Core in use  :  Sandybridge
   Copyright (c) 2011-2014, The OpenBLAS Project




***************************************
The coordinates will be read from file: pbe.xyz
***************************************


================================================================================

cite the ECPs for Au [Def2-ECP] as follows:
Ce-Yb(ecp-28): M. Dolg, H. Stoll, H.Preuss, J. Chem. Phys., 1989, 90, 1730-1734.
Y-Cd(ecp-28), Hf-Hg(ecp-46): D. Andrae,U. Haeussermann, M. Dolg, H. Stoll, H. Preuss, Theor. Chim. Acta, 1990, 77, 123-141.
In-Sb(ecp-28), Tl-Bi(ecp-46): B. Metz, H. Stoll, M. Dolg, J. Chem. Phys., 2000, 113, 2563-2569.
Te-Xe(ecp-28), Po-Rn(ecp-46): K. A. Peterson, D. Figgen, E. Goll, H. Stoll, M. Dolg, J. Chem. Phys., 2003, 119, 11113-11123.
Rb(ecp-28), Cs(ecp-46): T. Leininger, A. Nicklass, W. Kuechle, H. Stoll, M. Dolg, A. Bergner, Chem. Phys. Lett., 1996, 255, 274-280.
Sr(ecp-28), Ba(ecp-46): M. Kaupp, P. V. Schleyer, H. Stoll and H. Preuss, J. Chem. Phys., 1991, 94, 1360-1366.
La(ecp-46): M. Dolg, H. Stoll, A. Savin, H. Preuss, Theor. Chim. Acta, 1989, 75, 173-194.
Lu(ecp-28): X. Cao, M. Dolg, J. Chem. Phys., 2001, 115, 7348-7355.

ECP parameters for Au [Def2-ECP] have been obtained from:
TURBOMOLE (7.0.2)

----- Orbital basis set information -----
Your calculation utilizes the basis: def2-TZVP
   F. Weigend and R. Ahlrichs, Phys. Chem. Chem. Phys. 7, 3297 (2005).

----- AuxJ basis set information -----
Your calculation utilizes the auxiliary basis: def2/J
   F. Weigend, Phys. Chem. Chem. Phys. 8, 1057 (2006).

----- AuxC basis set information -----
Your calculation utilizes the auxiliary basis: def2-TZVP/C
  H-La, Hf-Rn : A. Hellweg, C. Hattig, S. Hofener and W. Klopper, Theor. Chem. Acc. 117, 587 (2007).
        Ce-Lu : J. Chmela and M. E. Harding, Mol. Phys. (2018).

================================================================================
                                        WARNINGS
                       Please study these warnings very carefully!
================================================================================


WARNING: your system is open-shell and RHF/RKS was chosen
  ===> : WILL SWITCH to UHF/UKS


WARNING: No MP2 level density has been requested!
         To caclulate MP2 level properties use
         %mp2 Density relaxed end
         or
         %mp2 Density unrelaxed end
         Otherwise for double-hybrid DFT only the energy is correct!

WARNING: The frozen-core approximation is turned on by default for 
         the MP2 part of double-hybrid DFT.

INFO   : the flag for use of the SHARK integral package has been found!



***************************************
The coordinates will be read from file: pbe.xyz
***************************************


================================================================================

cite the ECPs for Au [Def2-ECP] as follows:
Ce-Yb(ecp-28): M. Dolg, H. Stoll, H.Preuss, J. Chem. Phys., 1989, 90, 1730-1734.
Y-Cd(ecp-28), Hf-Hg(ecp-46): D. Andrae,U. Haeussermann, M. Dolg, H. Stoll, H. Preuss, Theor. Chim. Acta, 1990, 77, 123-141.
In-Sb(ecp-28), Tl-Bi(ecp-46): B. Metz, H. Stoll, M. Dolg, J. Chem. Phys., 2000, 113, 2563-2569.
Te-Xe(ecp-28), Po-Rn(ecp-46): K. A. Peterson, D. Figgen, E. Goll, H. Stoll, M. Dolg, J. Chem. Phys., 2003, 119, 11113-11123.
Rb(ecp-28), Cs(ecp-46): T. Leininger, A. Nicklass, W. Kuechle, H. Stoll, M. Dolg, A. Bergner, Chem. Phys. Lett., 1996, 255, 274-280.
Sr(ecp-28), Ba(ecp-46): M. Kaupp, P. V. Schleyer, H. Stoll and H. Preuss, J. Chem. Phys., 1991, 94, 1360-1366.
La(ecp-46): M. Dolg, H. Stoll, A. Savin, H. Preuss, Theor. Chim. Acta, 1989, 75, 173-194.
Lu(ecp-28): X. Cao, M. Dolg, J. Chem. Phys., 2001, 115, 7348-7355.

ECP parameters for Au [Def2-ECP] have been obtained from:
TURBOMOLE (7.0.2)

----- Orbital basis set information -----
Your calculation utilizes the basis: def2-TZVP
   F. Weigend and R. Ahlrichs, Phys. Chem. Chem. Phys. 7, 3297 (2005).

----- AuxJ basis set information -----
Your calculation utilizes the auxiliary basis: def2/J
   F. Weigend, Phys. Chem. Chem. Phys. 8, 1057 (2006).

----- AuxC basis set information -----
Your calculation utilizes the auxiliary basis: def2-TZVP/C
  H-La, Hf-Rn : A. Hellweg, C. Hattig, S. Hofener and W. Klopper, Theor. Chem. Acc. 117, 587 (2007).
        Ce-Lu : J. Chmela and M. E. Harding, Mol. Phys. (2018).

================================================================================
                                        WARNINGS
                       Please study these warnings very carefully!
================================================================================


WARNING: No MP2 level density has been requested!
         To caclulate MP2 level properties use
         %mp2 Density relaxed end
         or
         %mp2 Density unrelaxed end
         Otherwise for double-hybrid DFT only the energy is correct!

WARNING: The frozen-core approximation is turned on by default for 
         the MP2 part of double-hybrid DFT.

INFO   : the flag for use of the SHARK integral package has been found!

================================================================================
                                       INPUT FILE
================================================================================
NAME = b2plyp.inp
|  1> !RI-B2PLYP def2-TZVP def2-TZVP/C
|  2> !RIJCOSX VERYSLOWCONV
|  3> 
|  4> %scf
|  5>   AutoTRAHIter 200
|  6>   maxiter 400
|  7> end
|  8> 
|  9> 
| 10> %pal nprocs 6 end 
| 11> 
| 12> *xyzfile 0 6 pbe.xyz
| 13> 
| 14> $new_job
| 15> 
| 16> !RI-B2PLYP def2-TZVP def2-TZVP/C
| 17> !RIJCOSX VERYSLOWCONV
| 18> 
| 19> %scf
| 20>   AutoTRAHIter 200
| 21>   maxiter 400
| 22> end
| 23> 
| 24> 
| 25> %pal nprocs 6 end 
| 26> 
| 27> *xyzfile 0 4 pbe.xyz
| 28> 
| 29> 
| 30> 
| 31> 
| 32> 
| 33>                          ****END OF INPUT****
================================================================================


                 $$$$$$$$$$$$$$$$$$$$$$$$$$$$$$$$$$$$$$$$$$$$$$ 
                 $ THERE ARE  2 JOBS TO BE PROCESSED THIS RUN $
                 $$$$$$$$$$$$$$$$$$$$$$$$$$$$$$$$$$$$$$$$$$$$$$ 




                 $$$$$$$$$$$$$$$$  JOB NUMBER  1 $$$$$$$$$$$$$$


                       ****************************
                       * Single Point Calculation *
                       ****************************

---------------------------------
CARTESIAN COORDINATES (ANGSTROEM)
---------------------------------
  Au     7.553850    8.069317   10.553548
  Au     5.994455    9.970893    9.090443
  Au     8.821568    9.924720    9.137025
  Au     6.281978    5.805841   11.444159
  Au     4.836749    7.463285    9.802049
  Au     9.097764    7.371364    8.102407
  Au     7.729776    5.470403    6.518810
  Au     4.451216    8.749633    5.077740
  Au     3.802784    8.787044    7.744193
  Au     6.479374    7.008604    4.527386
  Au     5.139796    6.485235    6.980795
  Au     7.551486   11.625891    7.362685
  Au     4.978902   11.035154    6.644026
  Au     7.096526    9.556746    5.502119
  Au     9.087445    7.598898    5.283834
  Au     9.668351    9.955571    6.530355
  Mn     6.932899    6.025766    8.905481

----------------------------
CARTESIAN COORDINATES (A.U.)
----------------------------
  NO LB      ZA    FRAG     MASS         X           Y           Z
   0 Au   19.0000*   0   196.966   14.274708   15.248800   19.943315
   1 Au   19.0000*   0   196.966   11.327879   18.842257   17.178447
   2 Au   19.0000*   0   196.966   16.670348   18.755004   17.266475
   3 Au   19.0000*   0   196.966   11.871218   10.971450   21.626326
   4 Au   19.0000*   0   196.966    9.140131   14.103564   18.523188
   5 Au   19.0000*   0   196.966   17.192282   13.929859   15.311331
   6 Au   19.0000*   0   196.966   14.607161   10.337564   12.318766
   7 Au   19.0000*   0   196.966    8.411579   16.534411    9.595539
   8 Au   19.0000*   0   196.966    7.186220   16.605106   14.634403
   9 Au   19.0000*   0   196.966   12.244242   13.244343    8.555519
  10 Au   19.0000*   0   196.966    9.712806   12.255317   13.191790
  11 Au   19.0000*   0   196.966   14.270240   21.969750   13.913458
  12 Au   19.0000*   0   196.966    9.408762   20.853419   12.555390
  13 Au   19.0000*   0   196.966   13.410490   18.059633   10.397498
  14 Au   19.0000*   0   196.966   17.172782   14.359836    9.985000
  15 Au   19.0000*   0   196.966   18.270535   18.813302   12.340583
  16 Mn   25.0000    0    54.940   13.101281   11.387047   16.828920
* core charge reduced due to ECP

--------------------------------
INTERNAL COORDINATES (ANGSTROEM)
--------------------------------
 Au     0   0   0     0.000000000000     0.00000000     0.00000000
 Au     1   0   0     2.861534409471     0.00000000     0.00000000
 Au     1   2   0     2.656344416522    61.52702176     0.00000000
 Au     1   2   3     2.744844599109   117.47606105   195.86279070
 Au     4   1   2     2.744509349630    63.37586922     6.86233637
 Au     3   1   2     2.768816963471    66.59311031   249.17983349
 Au     6   3   1     2.827157940659   141.36206915    80.80373870
 Au     2   1   3     4.469322334056   117.75206385    97.30155204
 Au     5   4   1     2.656349829466   165.79924948    77.49077499
 Au     8   2   1     2.729009973144    95.66856343   331.21573788
 Au     9   5   4     2.769242189651    67.13318473    18.33897022
 Au     3   1   2     2.766834790653   123.52890943   350.77256262
 Au    12   3   1     2.735621600598   117.86425993   346.87352720
 Au    10   8   2     2.797142902190    60.82481400   312.75449204
 Au    10   8   2     2.778974129298   120.46889233   322.07755435
 Au    15  10   8     2.728584199656   120.50533675   358.42575807
 Mn     7   6   3     2.576749632004    59.06292386   288.97529772

---------------------------
INTERNAL COORDINATES (A.U.)
---------------------------
 Au     0   0   0     0.000000000000     0.00000000     0.00000000
 Au     1   0   0     5.407516356692     0.00000000     0.00000000
 Au     1   2   0     5.019763464597    61.52702176     0.00000000
 Au     1   2   3     5.187004572489   117.47606105   195.86279070
 Au     4   1   2     5.186371042787    63.37586922     6.86233637
 Au     3   1   2     5.232305775916    66.59311031   249.17983349
 Au     6   3   1     5.342554245186   141.36206915    80.80373870
 Au     2   1   3     8.445795215583   117.75206385    97.30155204
 Au     5   4   1     5.019773693579   165.79924948    77.49077499
 Au     8   2   1     5.157081465981    95.66856343   331.21573788
 Au     9   5   4     5.233109336942    67.13318473    18.33897022
 Au     3   1   2     5.228560012140   123.52890943   350.77256262
 Au    12   3   1     5.169575631169   117.86425993   346.87352720
 Au    10   8   2     5.285834042581    60.82481400   312.75449204
 Au    10   8   2     5.251500037625   120.46889233   322.07755435
 Au    15  10   8     5.156276870694   120.50533675   358.42575807
 Mn     7   6   3     4.869351120170    59.06292386   288.97529772

---------------------
BASIS SET INFORMATION
---------------------
There are 2 groups of distinct atoms

 Group   1 Type Au  : 8s7p6d1f contracted to 6s4p3d1f pattern {311111/4111/411/1}
 Group   2 Type Mn  : 17s11p7d1f contracted to 6s4p4d1f pattern {842111/6311/4111/1}

Atom   0Au   basis set group =>   1
Atom   1Au   basis set group =>   1
Atom   2Au   basis set group =>   1
Atom   3Au   basis set group =>   1
Atom   4Au   basis set group =>   1
Atom   5Au   basis set group =>   1
Atom   6Au   basis set group =>   1
Atom   7Au   basis set group =>   1
Atom   8Au   basis set group =>   1
Atom   9Au   basis set group =>   1
Atom  10Au   basis set group =>   1
Atom  11Au   basis set group =>   1
Atom  12Au   basis set group =>   1
Atom  13Au   basis set group =>   1
Atom  14Au   basis set group =>   1
Atom  15Au   basis set group =>   1
Atom  16Mn   basis set group =>   2
---------------------------------
AUXILIARY/J BASIS SET INFORMATION
---------------------------------
There are 2 groups of distinct atoms

 Group   1 Type Au  : 11s5p5d3f3g contracted to 8s5p5d2f3g pattern {41111111/11111/11111/21/111}
 Group   2 Type Mn  : 19s5p5d3f3g contracted to 8s5p5d2f3g pattern {121111111/11111/11111/21/111}

Atom   0Au   basis set group =>   1
Atom   1Au   basis set group =>   1
Atom   2Au   basis set group =>   1
Atom   3Au   basis set group =>   1
Atom   4Au   basis set group =>   1
Atom   5Au   basis set group =>   1
Atom   6Au   basis set group =>   1
Atom   7Au   basis set group =>   1
Atom   8Au   basis set group =>   1
Atom   9Au   basis set group =>   1
Atom  10Au   basis set group =>   1
Atom  11Au   basis set group =>   1
Atom  12Au   basis set group =>   1
Atom  13Au   basis set group =>   1
Atom  14Au   basis set group =>   1
Atom  15Au   basis set group =>   1
Atom  16Mn   basis set group =>   2
---------------------------------
AUXILIARY/C BASIS SET INFORMATION
---------------------------------
There are 2 groups of distinct atoms

 Group   1 Type Au  : 8s8p7d5f3g2h contracted to 8s8p7d5f3g2h pattern {11111111/11111111/1111111/11111/111/11}
 Group   2 Type Mn  : 11s9p8d6f5g2h contracted to 9s8p8d6f5g2h pattern {311111111/21111111/11111111/111111/11111/11}

Atom   0Au   basis set group =>   1
Atom   1Au   basis set group =>   1
Atom   2Au   basis set group =>   1
Atom   3Au   basis set group =>   1
Atom   4Au   basis set group =>   1
Atom   5Au   basis set group =>   1
Atom   6Au   basis set group =>   1
Atom   7Au   basis set group =>   1
Atom   8Au   basis set group =>   1
Atom   9Au   basis set group =>   1
Atom  10Au   basis set group =>   1
Atom  11Au   basis set group =>   1
Atom  12Au   basis set group =>   1
Atom  13Au   basis set group =>   1
Atom  14Au   basis set group =>   1
Atom  15Au   basis set group =>   1
Atom  16Mn   basis set group =>   2
-------------------------
ECP PARAMETER INFORMATION
-------------------------

 Group 1, Type Au ECP Def2-ECP (replacing 60 core electrons, lmax=3)

Atom   0Au   ECP group =>   1
Atom   1Au   ECP group =>   1
Atom   2Au   ECP group =>   1
Atom   3Au   ECP group =>   1
Atom   4Au   ECP group =>   1
Atom   5Au   ECP group =>   1
Atom   6Au   ECP group =>   1
Atom   7Au   ECP group =>   1
Atom   8Au   ECP group =>   1
Atom   9Au   ECP group =>   1
Atom  10Au   ECP group =>   1
Atom  11Au   ECP group =>   1
Atom  12Au   ECP group =>   1
Atom  13Au   ECP group =>   1
Atom  14Au   ECP group =>   1
Atom  15Au   ECP group =>   1



           ************************************************************
           *        Program running with 6 parallel MPI-processes     *
           *              working on a common directory               *
           ************************************************************
------------------------------------------------------------------------------
                           ORCA GTO INTEGRAL CALCULATION
                           -- RI-GTO INTEGRALS CHOSEN --
------------------------------------------------------------------------------
------------------------------------------------------------------------------
                   ___                                                        
                  /   \      - P O W E R E D   B Y -                         
                 /     \                                                     
                 |  |  |   _    _      __       _____    __    __             
                 |  |  |  | |  | |    /  \     |  _  \  |  |  /  |          
                  \  \/   | |  | |   /    \    | | | |  |  | /  /          
                 / \  \   | |__| |  /  /\  \   | |_| |  |  |/  /          
                |  |  |   |  __  | /  /__\  \  |    /   |      \           
                |  |  |   | |  | | |   __   |  |    \   |  |\   \          
                \     /   | |  | | |  |  |  |  | |\  \  |  | \   \       
                 \___/    |_|  |_| |__|  |__|  |_| \__\ |__|  \__/        
                                                                              
                      - O R C A' S   B I G   F R I E N D -                    
                                      &                                       
                       - I N T E G R A L  F E E D E R -                       
                                                                              
 v1 FN, 2020, v2 2021                                                         
------------------------------------------------------------------------------


Reading SHARK input file b2plyp.SHARKINP.tmp ... ok
----------------------
SHARK INTEGRAL PACKAGE
----------------------

Number of atoms                             ...     17
Number of basis functions                   ...    685
Number of shells                            ...    239
Maximum angular momentum                    ...      3
Integral batch strategy                     ... SHARK/LIBINT Hybrid
RI-J (if used) integral strategy            ... SPLIT-RIJ (Revised 2003 algorithm where possible)
Printlevel                                  ...      1
Contraction scheme used                     ... SEGMENTED contraction
Coulomb Range Separation                    ... NOT USED
Exchange Range Separation                   ... NOT USED
Finite Nucleus Model                        ... NOT USED
Auxiliary Coulomb fitting basis             ... AVAILABLE
   # of basis functions in Aux-J            ...   1513
   # of shells in Aux-J                     ...    391
   Maximum angular momentum in Aux-J        ...      4
Auxiliary J/K fitting basis                 ... NOT available
Auxiliary Correlation fitting basis         ... AVAILABLE
   # of basis functions in Aux-C            ...   2598
   # of shells in Aux-C                     ...    566
   Maximum angular momentum in Aux-C        ...      5
Auxiliary 'external' fitting basis          ... NOT available
Integral threshold                          ...     1.000000e-10
Primitive cut-off                           ...     1.000000e-11
Primitive pair pre-selection threshold      ...     1.000000e-11

Calculating pre-screening integrals         ... done (  0.4 sec) Dimension = 239
Organizing shell pair data                  ... done (  1.2 sec)
Shell pair information
Total number of shell pairs                 ...     28680
Shell pairs after pre-screening             ...     21709
Total number of primitive shell pairs       ...     75765
Primitive shell pairs kept                  ...     40648
          la=0 lb=0:   3447 shell pairs
          la=1 lb=0:   4942 shell pairs
          la=1 lb=1:   1853 shell pairs
          la=2 lb=0:   4313 shell pairs
          la=2 lb=1:   3060 shell pairs
          la=2 lb=2:   1273 shell pairs
          la=3 lb=0:   1105 shell pairs
          la=3 lb=1:    848 shell pairs
          la=3 lb=2:    760 shell pairs
          la=3 lb=3:    108 shell pairs

Calculating one electron integrals          ... done (  0.1 sec)
Calculating ECP integrals                   ... done ( 26.7 sec)
Calculating RI/J V-Matrix + Cholesky decomp.... done (  0.2 sec)
Calculating RI/C V-Matrix + Cholesky decomp.... done (  0.7 sec)
Calculating Nuclear repulsion               ... done (  0.0 sec) ENN=   6758.870789720933 Eh

SHARK setup successfully completed in  30.2 seconds

Maximum memory used throughout the entire GTOINT-calculation: 60.2 MB


           ************************************************************
           *        Program running with 6 parallel MPI-processes     *
           *              working on a common directory               *
           ************************************************************
-------------------------------------------------------------------------------
                                 ORCA SCF
-------------------------------------------------------------------------------

------------
SCF SETTINGS
------------
Hamiltonian:
 Density Functional     Method          .... DFT(GTOs)
 Exchange Functional    Exchange        .... B88
   X-Alpha parameter    XAlpha          ....  0.666667
   Becke's b parameter  XBeta           ....  0.004200
 Correlation Functional Correlation     .... LYP
 LDA part of GGA corr.  LDAOpt          .... VWN-3
 Gradients option       PostSCFGGA      .... off
 Hybrid DFT is turned on
   Fraction HF Exchange ScalHFX         ....  0.530000
   Scaling of DF-GGA-X  ScalDFX         ....  0.470000
   Scaling of DF-GGA-C  ScalDFC         ....  0.730000
   Scaling of DF-LDA-C  ScalLDAC        ....  0.730000
   Perturbative correction              ....  0.270000
   Density functional embedding theory  .... OFF
   NL short-range parameter             ....  7.800000
 RI-approximation to the Coulomb term is turned on
   Number of AuxJ basis functions       .... 1513
   RIJ-COSX (HFX calculated with COS-X)).... on


General Settings:
 Integral files         IntName         .... b2plyp
 Hartree-Fock type      HFTyp           .... UHF
 Total Charge           Charge          ....    0
 Multiplicity           Mult            ....    6
 Number of Electrons    NEL             ....  329
 Basis Dimension        Dim             ....  685
 Nuclear Repulsion      ENuc            ....   6758.8707897209 Eh

Convergence Acceleration:
 DIIS                   CNVDIIS         .... on
   Start iteration      DIISMaxIt       ....     0
   Startup error        DIISStart       ....  0.200000
   # of expansion vecs  DIISMaxEq       ....     5
   Bias factor          DIISBfac        ....   1.050
   Max. coefficient     DIISMaxC        ....  10.000
 Trust-Rad. Augm. Hess. CNVTRAH         .... auto
   Auto Start mean grad. ratio tolernc. ....  1.125000
   Auto Start start iteration           ....   200
   Auto Start num. interpolation iter.  ....    10
   Max. Number of Micro iterations      ....    16
   Max. Number of Macro iterations      .... Maxiter - #DIIS iter
   Number of Davidson start vectors     ....     2
   Converg. threshold I  (grad. norm)   ....   5.000e-05
   Converg. threshold II (energy diff.) ....   1.000e-06
   Grad. Scal. Fac. for Micro threshold ....   0.100
   Minimum threshold for Micro iter.    ....   0.010
   NR start threshold (gradient norm)   ....   0.001
   Initial trust radius                 ....   0.400
   Minimum AH scaling param. (alpha)    ....   1.000
   Maximum AH scaling param. (alpha)    .... 1000.000
   Orbital update algorithm             .... Taylor
   White noise on init. David. guess    .... on
   Maximum white noise                  ....   0.010
   Quad. conv. algorithm                .... NR
 SOSCF                  CNVSOSCF        .... off
 Level Shifting         CNVShift        .... on
   Level shift para.    LevelShift      ....    0.2500
   Turn off err/grad.   ShiftErr        ....    0.0000
 Zerner damping         CNVZerner       .... off
 Static damping         CNVDamp         .... on
   Fraction old density DampFac         ....    0.9200
   Max. Damping (<1)    DampMax         ....    0.9800
   Min. Damping (>=0)   DampMin         ....    0.0000
   Turn off err/grad.   DampErr         ....    0.0030
 Fernandez-Rico         CNVRico         .... off

SCF Procedure:
 Maximum # iterations   MaxIter         ....   400
 SCF integral mode      SCFMode         .... Direct
   Integral package                     .... SHARK and LIBINT hybrid scheme
 Reset frequency        DirectResetFreq ....    20
 Integral Threshold     Thresh          ....  1.000e-10 Eh
 Primitive CutOff       TCut            ....  1.000e-11 Eh

Convergence Tolerance:
 Convergence Check Mode ConvCheckMode   .... Total+1el-Energy
 Convergence forced     ConvForced      .... 0
 Energy Change          TolE            ....  1.000e-06 Eh
 1-El. energy change                    ....  1.000e-03 Eh
 DIIS Error             TolErr          ....  1.000e-06


Diagonalization of the overlap matrix:
Smallest eigenvalue                        ... 5.499e-04
Time for diagonalization                   ...    0.208 sec
Threshold for overlap eigenvalues          ... 1.000e-08
Number of eigenvalues below threshold      ... 0
Time for construction of square roots      ...    0.162 sec
Total time needed                          ...    0.374 sec

Time for model grid setup =    1.132 sec

------------------------------
INITIAL GUESS: MODEL POTENTIAL
------------------------------
Loading Hartree-Fock densities                     ... done
  calling /home/ehlert/src/miniconda3/envs/orca500/Programs/ORCA501/orca b2plyp_atom79.inp > b2plyp_atom79.out in order to generate an atomic fitting density for atom 0 (Au with ECP) on-the-fly... 
    atom 0 (Au), assumed electronic state with S=2: 1s2 2s2 2p6 3s2 3p6 4s2 3d10 4p6 5s2 4d10 5p6 6s1 4f14 5d10           ... done
Calculating cut-offs                               ... done
Initializing the effective Hamiltonian             ... done
Setting up the integral package (SHARK)            ... done
Starting the Coulomb interaction                   ... done (   1.4 sec)
Reading the grid                                   ... done
Mapping shells                                     ... done
Starting the XC term evaluation                    ... done (   1.2 sec)
  promolecular density results
     # of electrons  =   1289.015816646
     EX              =  -5928.800058754
     EC              =    -26.208579360
     EX+EC           =  -5955.008638114
Transforming the Hamiltonian                       ... done (   0.2 sec)
Diagonalizing the Hamiltonian                      ... done (   0.2 sec)
Back transforming the eigenvectors                 ... done (   0.1 sec)
Now organizing SCF variables                       ... done
                      ------------------
                      INITIAL GUESS DONE (   5.2 sec)
                      ------------------
-------------------
DFT GRID GENERATION
-------------------

General Integration Accuracy     IntAcc      ... 4.388
Radial Grid Type                 RadialGrid  ... OptM3 with GC (2021)
Angular Grid (max. ang.)         AngularGrid ... 4 (Lebedev-302)
Angular grid pruning method      GridPruning ... 4 (adaptive)
Weight generation scheme         WeightScheme... Becke
Basis function cutoff            BFCut       ... 1.0000e-10
Integration weight cutoff        WCut        ... 1.0000e-14
Angular grids for H and He will be reduced by one unit
Partially contracted basis set               ... off
Rotationally invariant grid construction     ... off

Total number of grid points                  ...   187441
Total number of batches                      ...     2937
Average number of points per batch           ...       63
Average number of grid points per atom       ...    11026
Time for grid setup =    3.445 sec

--------------------
COSX GRID GENERATION
--------------------

GRIDX 1
-------
General Integration Accuracy     IntAcc      ... 3.816
Radial Grid Type                 RadialGrid  ... OptM3 with GC (2021)
Angular Grid (max. ang.)         AngularGrid ... 1 (Lebedev-50)
Angular grid pruning method      GridPruning ... 4 (adaptive)
Weight generation scheme         WeightScheme... Becke
Basis function cutoff            BFCut       ... 1.0000e-10
Integration weight cutoff        WCut        ... 1.0000e-14
Angular grids for H and He will be reduced by one unit
Partially contracted basis set               ... on
Rotationally invariant grid construction     ... off

Total number of grid points                  ...    19558
Total number of batches                      ...      314
Average number of points per batch           ...       62
Average number of grid points per atom       ...     1150
UseSFitting                                  ... on

GRIDX 2
-------
General Integration Accuracy     IntAcc      ... 4.020
Radial Grid Type                 RadialGrid  ... OptM3 with GC (2021)
Angular Grid (max. ang.)         AngularGrid ... 2 (Lebedev-110)
Angular grid pruning method      GridPruning ... 4 (adaptive)
Weight generation scheme         WeightScheme... Becke
Basis function cutoff            BFCut       ... 1.0000e-10
Integration weight cutoff        WCut        ... 1.0000e-14
Angular grids for H and He will be reduced by one unit
Partially contracted basis set               ... on
Rotationally invariant grid construction     ... off

Total number of grid points                  ...    59406
Total number of batches                      ...      937
Average number of points per batch           ...       63
Average number of grid points per atom       ...     3494
UseSFitting                                  ... on

GRIDX 3
-------
General Integration Accuracy     IntAcc      ... 4.338
Radial Grid Type                 RadialGrid  ... OptM3 with GC (2021)
Angular Grid (max. ang.)         AngularGrid ... 3 (Lebedev-194)
Angular grid pruning method      GridPruning ... 4 (adaptive)
Weight generation scheme         WeightScheme... Becke
Basis function cutoff            BFCut       ... 1.0000e-10
Integration weight cutoff        WCut        ... 1.0000e-14
Angular grids for H and He will be reduced by one unit
Partially contracted basis set               ... on
Rotationally invariant grid construction     ... off

Total number of grid points                  ...   107607
Total number of batches                      ...     1690
Average number of points per batch           ...       63
Average number of grid points per atom       ...     6330
UseSFitting                                  ... on

Time for X-Grid setup             =    3.910 sec

--------------
SCF ITERATIONS
--------------
ITER       Energy         Delta-E        Max-DP      RMS-DP      [F,P]     Damp
               ***  Starting incremental Fock matrix formation  ***
  0  -3315.0742142334   0.000000000000 0.11526681  0.00057887  0.3290205 0.9200
  1  -3315.6913628534  -0.617148620013 0.10516469  0.00053288  0.2540196 0.9200
                               ***Turning on DIIS***
  2  -3316.0127347282  -0.321371874737 0.08877552  0.00045775  0.2335382 0.9200
  3  -3316.1250150239  -0.112280295761 0.02672707  0.00025019  0.2147211 0.9200
  4  -3316.2177870334  -0.092772009516 0.02543281  0.00023351  0.1973668 0.9200
  5  -3316.3040636283  -0.086276594818 0.02452019  0.00021680  0.1814775 0.9200
  6  -3316.3793403653  -0.075276737020 0.02201877  0.00019852  0.1670189 0.9200
  7  -3316.4550254586  -0.075685093299 0.01962862  0.00018908  0.1537731 0.9200
  8  -3316.5376357268  -0.082610268182 0.01844919  0.00017895  0.1415216 0.9200
  9  -3316.6126844584  -0.075048731690 0.01746700  0.00016554  0.1302011 0.9200
 10  -3316.6825911809  -0.069906722468 0.01727758  0.00015547  0.1197526 0.9200
 11  -3316.7469620702  -0.064370889310 0.01647562  0.00014551  0.1101348 0.9200
 12  -3316.8083338702  -0.061371800007 0.01483422  0.00013521  0.1013139 0.9200
 13  -3316.8680397223  -0.059705852074 0.01335032  0.00012632  0.0932178 0.9200
 14  -3316.9246021212  -0.056562398864 0.01253616  0.00011807  0.0857712 0.9200
 15  -3316.9776278250  -0.053025703832 0.01202469  0.00011050  0.0789099 0.9200
 16  -3317.0273072348  -0.049679409828 0.01137827  0.00010319  0.0725875 0.9200
 17  -3317.0740317368  -0.046724502009 0.01052105  0.00009571  0.0667711 0.9200
 18  -3317.1181328759  -0.044101139015 0.00962724  0.00008857  0.0614264 0.9200
 19  -3317.1596602043  -0.041527328443 0.00884908  0.00008215  0.0565142 0.9200
               *** Restarting incremental Fock matrix formation ***
                                   *** Resetting DIIS ***
 20  -3317.2011640422  -0.041503837876 0.00835155  0.00007301  0.0519943 0.9200
 21  -3317.2380980384  -0.036933996210 0.00762197  0.00006715  0.0478176 0.9200
 22  -3317.2725126689  -0.034414630516 0.00695239  0.00006284  0.0439814 0.9200
 23  -3317.3044954211  -0.031982752218 0.00638984  0.00005949  0.0404661 0.9200
 24  -3317.3341909959  -0.029695574777 0.00591993  0.00005632  0.0372396 0.9200
 25  -3317.3618046691  -0.027613673174 0.00552248  0.00005274  0.0342714 0.9200
 26  -3317.3875566116  -0.025751942579 0.00514651  0.00004927  0.0315337 0.9200
 27  -3317.4115337540  -0.023977142328 0.00478214  0.00004599  0.0290111 0.9200
 28  -3317.4338260509  -0.022292296943 0.00443386  0.00004287  0.0266897 0.9200
 29  -3317.4545387148  -0.020712663898 0.00410630  0.00003989  0.0245594 0.9200
 30  -3317.4737794045  -0.019240689668 0.00380196  0.00003705  0.0226014 0.9200
 31  -3317.4916481109  -0.017868706392 0.00352058  0.00003440  0.0207997 0.9200
 32  -3317.5082332396  -0.016585128715 0.00325995  0.00003193  0.0191418 0.9200
 33  -3317.5236165642  -0.015383324636 0.00301749  0.00002965  0.0176161 0.9200
 34  -3317.5378766613  -0.014260097094 0.00279150  0.00002753  0.0162121 0.9200
 35  -3317.5510890676  -0.013212406311 0.00258109  0.00002555  0.0149199 0.9200
 36  -3317.5633253641  -0.012236296495 0.00238592  0.00002371  0.0137308 0.9200
 37  -3317.5746526952  -0.011327331066 0.00220544  0.00002200  0.0126365 0.9200
 38  -3317.5851340658  -0.010481370593 0.00203878  0.00002043  0.0116295 0.9200
 39  -3317.5948287261  -0.009694660328 0.00187673  0.00001909  0.0107028 0.9200
               *** Restarting incremental Fock matrix formation ***
                                   *** Resetting DIIS ***
 40  -3317.6037905930  -0.008961866873 0.00175190  0.00001620  0.0098500 0.9200
 41  -3317.6121004108  -0.008309817839 0.00158471  0.00001466  0.0090730 0.9200
 42  -3317.6197737757  -0.007673364881 0.00143656  0.00001379  0.0083562 0.9200
 43  -3317.6268541978  -0.007080422098 0.00131945  0.00001323  0.0076942 0.9200
 44  -3317.6333847948  -0.006530597037 0.00122635  0.00001271  0.0070830 0.9200
 45  -3317.6394080899  -0.006023295092 0.00114799  0.00001201  0.0065195 0.9200
 46  -3317.6449659627  -0.005557872752 0.00107206  0.00001131  0.0060007 0.9200
 47  -3317.6500937903  -0.005127827597 0.00099780  0.00001064  0.0055232 0.9200
 48  -3317.6548240918  -0.004730301566 0.00092723  0.00000999  0.0050835 0.9200
 49  -3317.6591872441  -0.004363152285 0.00086097  0.00000937  0.0046788 0.9200
 50  -3317.6632114564  -0.004024212270 0.00079919  0.00000877  0.0043062 0.9200
 51  -3317.6669227327  -0.003711276301 0.00074445  0.00000821  0.0039634 0.9200
 52  -3317.6703449862  -0.003422253526 0.00070090  0.00000768  0.0036478 0.9200
 53  -3317.6735003217  -0.003155335510 0.00066258  0.00000719  0.0033575 0.9200
 54  -3317.6764091960  -0.002908874278 0.00062572  0.00000672  0.0030902 0.9200
 55  -3317.6790905612  -0.002681365226 0.00735621  0.00007862  0.0028442 0.0000
 56  -3317.7103285936  -0.031238032373 0.00097124  0.00000562  0.0003821 0.0000
               *** Restarting incremental Fock matrix formation ***
                                   *** Resetting DIIS ***
 57  -3317.7077406932   0.002587900451 0.00668112  0.00011192  0.0006752 0.0000
 58  -3317.7079472841  -0.000206590978 0.00214380  0.00003830  0.0001545 0.0000
 59  -3317.7079763098  -0.000029025645 0.00063512  0.00001297  0.0001485 0.0000
 60  -3317.7079827425  -0.000006432731 0.00027646  0.00000549  0.0000718 0.0000
 61  -3317.7079853764  -0.000002633838 0.00025240  0.00000276  0.0000469 0.0000
 62  -3317.7079864976  -0.000001121212 0.00026228  0.00000213  0.0000433 0.0000
 63  -3317.7079873833  -0.000000885718 0.00020834  0.00000170  0.0000347 0.0000
 64  -3317.7079878127  -0.000000429437 0.00021069  0.00000162  0.0000291 0.0000
 65  -3317.7079883262  -0.000000513468 0.00020603  0.00000150  0.0000273 0.0000
 66  -3317.7079885356  -0.000000209453 0.00018917  0.00000134  0.0000215 0.0000
 67  -3317.7079887929  -0.000000257292 0.00017652  0.00000117  0.0000193 0.0000
 68  -3317.7079888120  -0.000000019062 0.00015719  0.00000099  0.0000164 0.0000
 69  -3317.7079889614  -0.000000149440 0.00013772  0.00000080  0.0000132 0.0000
                 **** Energy Check signals convergence ****

               *****************************************************
               *                     SUCCESS                       *
               *           SCF CONVERGED AFTER  70 CYCLES          *
               *****************************************************

Old exchange energy                            =   -128.186621652 Eh
New exchange energy                            =   -128.186449054 Eh
Exchange energy change after final integration =      0.000172598 Eh
Total energy after final integration           =  -3317.707816315 Eh
Final COS-X integration done in                =    51.307 sec

----------------
TOTAL SCF ENERGY
----------------

Total Energy       :        -3317.70781632 Eh          -90279.41940 eV

Components:
Nuclear Repulsion  :         6758.87078972 Eh          183918.22441 eV
Electronic Energy  :       -10076.57860604 Eh         -274197.64381 eV
One Electron Energy:       -18915.98711339 Eh         -514730.17773 eV
Two Electron Energy:         8839.40850735 Eh          240532.53392 eV
Max COSX asymmetry :            0.00000840 Eh               0.00023 eV

Virial components:
Potential Energy   :        -5202.60815725 Eh         -141570.16525 eV
Kinetic Energy     :         1884.90034094 Eh           51290.74585 eV
Virial Ratio       :            2.76015026


DFT components:
N(Alpha)           :      166.999935971272 electrons
N(Beta)            :      161.999930932303 electrons
N(Total)           :      328.999866903575 electrons
E(X)               :     -115.527001474685 Eh       
E(C)               :       -9.033502180491 Eh       
E(XC)              :     -124.560503655176 Eh       
DFET-embed. en.    :        0.000000000000 Eh       

---------------
SCF CONVERGENCE
---------------

  Last Energy change         ...    4.7677e-08  Tolerance :   1.0000e-06
  Last MAX-Density change    ...    0.0000e+00  Tolerance :   1.0000e-05
  Last RMS-Density change    ...    0.0000e+00  Tolerance :   1.0000e-06
  Last DIIS Error            ...    1.1930e-05  Tolerance :   1.0000e-06

             **** THE GBW FILE WAS UPDATED (b2plyp.gbw) ****
             **** DENSITY b2plyp.scfp WAS UPDATED ****
             **** ENERGY FILE WAS UPDATED (b2plyp.en.tmp) ****
----------------------
UHF SPIN CONTAMINATION
----------------------

Warning: in a DFT calculation there is little theoretical justification to 
         calculate <S**2> as in Hartree-Fock theory. We will do it anyways
         but you should keep in mind that the values have only limited relevance

Expectation value of <S**2>     :     8.776898
Ideal value S*(S+1) for S=2.5   :     8.750000
Deviation                       :     0.026898

             **** THE GBW FILE WAS UPDATED (b2plyp.gbw) ****
             **** DENSITY b2plyp.scfp WAS UPDATED ****
----------------
ORBITAL ENERGIES
----------------
                 SPIN UP ORBITALS
  NO   OCC          E(Eh)            E(eV) 
   0   1.0000    -237.637139     -6466.4353 
   1   1.0000     -28.143780      -765.8312 
   2   1.0000     -24.061753      -654.7536 
   3   1.0000     -24.061061      -654.7348 
   4   1.0000     -24.060295      -654.7139 
   5   1.0000      -4.412483      -120.0698 
   6   1.0000      -4.410701      -120.0213 
   7   1.0000      -4.410599      -120.0185 
   8   1.0000      -4.404869      -119.8626 
   9   1.0000      -4.398849      -119.6988 
  10   1.0000      -4.396783      -119.6426 
  11   1.0000      -4.396772      -119.6422 
  12   1.0000      -4.394100      -119.5695 
  13   1.0000      -4.394017      -119.5673 
  14   1.0000      -4.392239      -119.5189 
  15   1.0000      -4.391879      -119.5091 
  16   1.0000      -4.390579      -119.4737 
  17   1.0000      -4.390354      -119.4676 
  18   1.0000      -4.389871      -119.4545 
  19   1.0000      -4.389609      -119.4473 
  20   1.0000      -4.384665      -119.3128 
  21   1.0000      -3.622942       -98.5853 
  22   1.0000      -2.536385       -69.0185 
  23   1.0000      -2.531973       -68.8985 
  24   1.0000      -2.531272       -68.8794 
  25   1.0000      -2.528099       -68.7931 
  26   1.0000      -2.527525       -68.7775 
  27   1.0000      -2.526792       -68.7575 
  28   1.0000      -2.526315       -68.7445 
  29   1.0000      -2.525710       -68.7281 
  30   1.0000      -2.524787       -68.7029 
  31   1.0000      -2.522886       -68.6512 
  32   1.0000      -2.520774       -68.5938 
  33   1.0000      -2.520445       -68.5848 
  34   1.0000      -2.520059       -68.5743 
  35   1.0000      -2.519947       -68.5712 
  36   1.0000      -2.517245       -68.4977 
  37   1.0000      -2.517142       -68.4949 
  38   1.0000      -2.515539       -68.4513 
  39   1.0000      -2.514979       -68.4361 
  40   1.0000      -2.514824       -68.4318 
  41   1.0000      -2.514480       -68.4225 
  42   1.0000      -2.513133       -68.3858 
  43   1.0000      -2.512672       -68.3733 
  44   1.0000      -2.511562       -68.3431 
  45   1.0000      -2.511494       -68.3412 
  46   1.0000      -2.510907       -68.3253 
  47   1.0000      -2.510858       -68.3239 
  48   1.0000      -2.510225       -68.3067 
  49   1.0000      -2.509991       -68.3003 
  50   1.0000      -2.509337       -68.2825 
  51   1.0000      -2.508697       -68.2651 
  52   1.0000      -2.508331       -68.2552 
  53   1.0000      -2.508175       -68.2509 
  54   1.0000      -2.507805       -68.2408 
  55   1.0000      -2.507687       -68.2376 
  56   1.0000      -2.507359       -68.2287 
  57   1.0000      -2.506844       -68.2147 
  58   1.0000      -2.506718       -68.2113 
  59   1.0000      -2.506322       -68.2005 
  60   1.0000      -2.505805       -68.1864 
  61   1.0000      -2.505782       -68.1858 
  62   1.0000      -2.505260       -68.1716 
  63   1.0000      -2.505140       -68.1683 
  64   1.0000      -2.504434       -68.1491 
  65   1.0000      -2.504307       -68.1457 
  66   1.0000      -2.504091       -68.1398 
  67   1.0000      -2.502908       -68.1076 
  68   1.0000      -2.502392       -68.0936 
  69   1.0000      -2.498163       -67.9785 
  70   1.0000      -2.424352       -65.9700 
  71   1.0000      -2.423345       -65.9426 
  72   1.0000      -2.422986       -65.9328 
  73   1.0000      -0.534292       -14.5388 
  74   1.0000      -0.521568       -14.1926 
  75   1.0000      -0.521484       -14.1903 
  76   1.0000      -0.515505       -14.0276 
  77   1.0000      -0.509987       -13.8774 
  78   1.0000      -0.482886       -13.1400 
  79   1.0000      -0.473056       -12.8725 
  80   1.0000      -0.472742       -12.8640 
  81   1.0000      -0.468276       -12.7424 
  82   1.0000      -0.466423       -12.6920 
  83   1.0000      -0.465915       -12.6782 
  84   1.0000      -0.461698       -12.5634 
  85   1.0000      -0.459772       -12.5110 
  86   1.0000      -0.458359       -12.4726 
  87   1.0000      -0.457333       -12.4447 
  88   1.0000      -0.455852       -12.4044 
  89   1.0000      -0.454775       -12.3751 
  90   1.0000      -0.451793       -12.2939 
  91   1.0000      -0.450426       -12.2567 
  92   1.0000      -0.449499       -12.2315 
  93   1.0000      -0.446898       -12.1607 
  94   1.0000      -0.444181       -12.0868 
  95   1.0000      -0.443208       -12.0603 
  96   1.0000      -0.441774       -12.0213 
  97   1.0000      -0.440706       -11.9922 
  98   1.0000      -0.439314       -11.9543 
  99   1.0000      -0.438227       -11.9248 
 100   1.0000      -0.437741       -11.9115 
 101   1.0000      -0.436084       -11.8665 
 102   1.0000      -0.433005       -11.7827 
 103   1.0000      -0.429640       -11.6911 
 104   1.0000      -0.424907       -11.5623 
 105   1.0000      -0.424434       -11.5494 
 106   1.0000      -0.419877       -11.4254 
 107   1.0000      -0.418102       -11.3771 
 108   1.0000      -0.416301       -11.3281 
 109   1.0000      -0.412180       -11.2160 
 110   1.0000      -0.411008       -11.1841 
 111   1.0000      -0.410927       -11.1819 
 112   1.0000      -0.404082       -10.9956 
 113   1.0000      -0.403893       -10.9905 
 114   1.0000      -0.402378       -10.9493 
 115   1.0000      -0.399302       -10.8656 
 116   1.0000      -0.399033       -10.8582 
 117   1.0000      -0.396316       -10.7843 
 118   1.0000      -0.394275       -10.7288 
 119   1.0000      -0.393404       -10.7051 
 120   1.0000      -0.386742       -10.5238 
 121   1.0000      -0.385284       -10.4841 
 122   1.0000      -0.384167       -10.4537 
 123   1.0000      -0.383706       -10.4412 
 124   1.0000      -0.382636       -10.4121 
 125   1.0000      -0.380649       -10.3580 
 126   1.0000      -0.377800       -10.2804 
 127   1.0000      -0.377440       -10.2707 
 128   1.0000      -0.377153       -10.2628 
 129   1.0000      -0.376840       -10.2543 
 130   1.0000      -0.370754       -10.0887 
 131   1.0000      -0.369434       -10.0528 
 132   1.0000      -0.368317       -10.0224 
 133   1.0000      -0.366505        -9.9731 
 134   1.0000      -0.364731        -9.9248 
 135   1.0000      -0.361218        -9.8292 
 136   1.0000      -0.361030        -9.8241 
 137   1.0000      -0.358969        -9.7681 
 138   1.0000      -0.358481        -9.7548 
 139   1.0000      -0.354748        -9.6532 
 140   1.0000      -0.351610        -9.5678 
 141   1.0000      -0.351358        -9.5609 
 142   1.0000      -0.350495        -9.5374 
 143   1.0000      -0.349930        -9.5221 
 144   1.0000      -0.348749        -9.4899 
 145   1.0000      -0.347229        -9.4486 
 146   1.0000      -0.345415        -9.3992 
 147   1.0000      -0.344461        -9.3733 
 148   1.0000      -0.343570        -9.3490 
 149   1.0000      -0.341171        -9.2837 
 150   1.0000      -0.340416        -9.2632 
 151   1.0000      -0.336223        -9.1491 
 152   1.0000      -0.334894        -9.1129 
 153   1.0000      -0.332838        -9.0570 
 154   1.0000      -0.332464        -9.0468 
 155   1.0000      -0.328633        -8.9426 
 156   1.0000      -0.325648        -8.8613 
 157   1.0000      -0.321387        -8.7454 
 158   1.0000      -0.319504        -8.6941 
 159   1.0000      -0.318346        -8.6626 
 160   1.0000      -0.316568        -8.6143 
 161   1.0000      -0.315783        -8.5929 
 162   1.0000      -0.260849        -7.0981 
 163   1.0000      -0.245411        -6.6780 
 164   1.0000      -0.240682        -6.5493 
 165   1.0000      -0.223335        -6.0773 
 166   1.0000      -0.216879        -5.9016 
 167   0.0000      -0.112711        -3.0670 
 168   0.0000      -0.074447        -2.0258 
 169   0.0000      -0.070211        -1.9105 
 170   0.0000      -0.066360        -1.8057 
 171   0.0000      -0.061812        -1.6820 
 172   0.0000      -0.056053        -1.5253 
 173   0.0000      -0.053609        -1.4588 
 174   0.0000      -0.050998        -1.3877 
 175   0.0000      -0.041135        -1.1194 
 176   0.0000      -0.013440        -0.3657 
 177   0.0000      -0.010671        -0.2904 
 178   0.0000       0.004229         0.1151 
 179   0.0000       0.023288         0.6337 
 180   0.0000       0.025889         0.7045 
 181   0.0000       0.037812         1.0289 
 182   0.0000       0.041910         1.1404 
 183   0.0000       0.043346         1.1795 
 184   0.0000       0.045390         1.2351 
 185   0.0000       0.049199         1.3388 
 186   0.0000       0.050956         1.3866 
 187   0.0000       0.054969         1.4958 
 188   0.0000       0.064630         1.7587 
 189   0.0000       0.071607         1.9485 
 190   0.0000       0.072098         1.9619 
 191   0.0000       0.073653         2.0042 
 192   0.0000       0.078696         2.1414 
 193   0.0000       0.092539         2.5181 
 194   0.0000       0.097514         2.6535 
 195   0.0000       0.102347         2.7850 
 196   0.0000       0.106627         2.9015 
 197   0.0000       0.106944         2.9101 
 198   0.0000       0.108032         2.9397 
 199   0.0000       0.112516         3.0617 
 200   0.0000       0.114638         3.1195 
 201   0.0000       0.121981         3.3193 
 202   0.0000       0.128209         3.4887 
 203   0.0000       0.129206         3.5159 
 204   0.0000       0.134063         3.6480 
 205   0.0000       0.136800         3.7225 
 206   0.0000       0.139633         3.7996 
 207   0.0000       0.143079         3.8934 
 208   0.0000       0.143801         3.9130 
 209   0.0000       0.145730         3.9655 
 210   0.0000       0.148101         4.0300 
 211   0.0000       0.151011         4.1092 
 212   0.0000       0.154266         4.1978 
 213   0.0000       0.171023         4.6538 
 214   0.0000       0.173324         4.7164 
 215   0.0000       0.176268         4.7965 
 216   0.0000       0.186827         5.0838 
 217   0.0000       0.192143         5.2285 
 218   0.0000       0.197822         5.3830 
 219   0.0000       0.198758         5.4085 
 220   0.0000       0.200322         5.4510 
 221   0.0000       0.201651         5.4872 
 222   0.0000       0.210087         5.7168 
 223   0.0000       0.219000         5.9593 
 224   0.0000       0.220037         5.9875 
 225   0.0000       0.224453         6.1077 
 226   0.0000       0.226373         6.1599 
 227   0.0000       0.243621         6.6293 
 228   0.0000       0.245963         6.6930 
 229   0.0000       0.247570         6.7367 
 230   0.0000       0.258423         7.0321 
 231   0.0000       0.265203         7.2165 
 232   0.0000       0.272785         7.4228 
 233   0.0000       0.275356         7.4928 
 234   0.0000       0.278822         7.5871 
 235   0.0000       0.279910         7.6167 
 236   0.0000       0.288489         7.8502 
 237   0.0000       0.296846         8.0776 
 238   0.0000       0.298132         8.1126 
 239   0.0000       0.304972         8.2987 
 240   0.0000       0.311127         8.4662 
 241   0.0000       0.314777         8.5655 
 242   0.0000       0.319705         8.6996 
 243   0.0000       0.321338         8.7441 
 244   0.0000       0.328575         8.9410 
 245   0.0000       0.329075         8.9546 
 246   0.0000       0.332141         9.0380 
 247   0.0000       0.342053         9.3077 
 248   0.0000       0.345695         9.4068 
 249   0.0000       0.347323         9.4511 
 250   0.0000       0.357936         9.7399 
 251   0.0000       0.358260         9.7487 
 252   0.0000       0.362692         9.8694 
 253   0.0000       0.374291        10.1850 
 254   0.0000       0.376771        10.2525 
 255   0.0000       0.388009        10.5583 
 256   0.0000       0.389152        10.5894 
 257   0.0000       0.395196        10.7538 
 258   0.0000       0.397738        10.8230 
 259   0.0000       0.400716        10.9040 
 260   0.0000       0.407222        11.0811 
 261   0.0000       0.412639        11.2285 
 262   0.0000       0.414137        11.2692 
 263   0.0000       0.417748        11.3675 
 264   0.0000       0.422513        11.4972 
 265   0.0000       0.424955        11.5636 
 266   0.0000       0.425665        11.5829 
 267   0.0000       0.430124        11.7043 
 268   0.0000       0.430982        11.7276 
 269   0.0000       0.439271        11.9532 
 270   0.0000       0.443649        12.0723 
 271   0.0000       0.444172        12.0865 
 272   0.0000       0.446193        12.1415 
 273   0.0000       0.447566        12.1789 
 274   0.0000       0.449426        12.2295 
 275   0.0000       0.454479        12.3670 
 276   0.0000       0.464132        12.6297 
 277   0.0000       0.468128        12.7384 
 278   0.0000       0.471116        12.8197 
 279   0.0000       0.479435        13.0461 
 280   0.0000       0.482882        13.1399 
 281   0.0000       0.485820        13.2198 
 282   0.0000       0.488848        13.3022 
 283   0.0000       0.492886        13.4121 
 284   0.0000       0.494516        13.4565 
 285   0.0000       0.498710        13.5706 
 286   0.0000       0.503053        13.6888 
 287   0.0000       0.503933        13.7127 
 288   0.0000       0.510373        13.8880 
 289   0.0000       0.512144        13.9361 
 290   0.0000       0.515432        14.0256 
 291   0.0000       0.518439        14.1074 
 292   0.0000       0.527213        14.3462 
 293   0.0000       0.531365        14.4592 
 294   0.0000       0.537383        14.6229 
 295   0.0000       0.548396        14.9226 
 296   0.0000       0.550937        14.9918 
 297   0.0000       0.551830        15.0161 
 298   0.0000       0.559763        15.2319 
 299   0.0000       0.561776        15.2867 
 300   0.0000       0.566141        15.4055 
 301   0.0000       0.571647        15.5553 
 302   0.0000       0.574336        15.6285 
 303   0.0000       0.576407        15.6848 
 304   0.0000       0.577768        15.7219 
 305   0.0000       0.578211        15.7339 
 306   0.0000       0.586638        15.9632 
 307   0.0000       0.594674        16.1819 
 308   0.0000       0.596620        16.2348 
 309   0.0000       0.597696        16.2641 
 310   0.0000       0.603274        16.4159 
 311   0.0000       0.608672        16.5628 
 312   0.0000       0.610735        16.6189 
 313   0.0000       0.616671        16.7805 
 314   0.0000       0.622404        16.9365 
 315   0.0000       0.630977        17.1698 
 316   0.0000       0.635843        17.3022 
 317   0.0000       0.641018        17.4430 
 318   0.0000       0.643076        17.4990 
 319   0.0000       0.645651        17.5691 
 320   0.0000       0.657292        17.8858 
 321   0.0000       0.661394        17.9974 
 322   0.0000       0.666922        18.1479 
 323   0.0000       0.676063        18.3966 
 324   0.0000       0.683348        18.5948 
 325   0.0000       0.684564        18.6279 
 326   0.0000       0.718454        19.5501 
 327   0.0000       0.728083        19.8121 
 328   0.0000       0.778507        21.1842 
 329   0.0000       0.790852        21.5202 
 330   0.0000       0.795649        21.6507 
 331   0.0000       0.803264        21.8579 
 332   0.0000       0.810128        22.0447 
 333   0.0000       0.835919        22.7465 
 334   0.0000       0.850706        23.1489 
 335   0.0000       0.859856        23.3979 
 336   0.0000       0.861130        23.4325 
 337   0.0000       0.874667        23.8009 
 338   0.0000       0.878623        23.9085 
 339   0.0000       0.885338        24.0913 
 340   0.0000       0.886356        24.1190 
 341   0.0000       0.889522        24.2051 
 342   0.0000       0.896917        24.4064 
 343   0.0000       0.905849        24.6494 
 344   0.0000       0.916229        24.9319 
 345   0.0000       0.933380        25.3986 
 346   0.0000       0.937880        25.5210 
 347   0.0000       0.948544        25.8112 
 348   0.0000       0.950134        25.8545 
 349   0.0000       0.951984        25.9048 
 350   0.0000       0.959039        26.0968 
 351   0.0000       0.969540        26.3825 
 352   0.0000       0.979002        26.6400 
 353   0.0000       0.980690        26.6859 
 354   0.0000       0.993596        27.0371 
 355   0.0000       1.000948        27.2372 
 356   0.0000       1.006136        27.3784 
 357   0.0000       1.027040        27.9472 
 358   0.0000       1.031691        28.0737 
 359   0.0000       1.035907        28.1885 
 360   0.0000       1.040831        28.3225 
 361   0.0000       1.045281        28.4435 
 362   0.0000       1.048820        28.5398 
 363   0.0000       1.057274        28.7699 
 364   0.0000       1.066762        29.0281 
 365   0.0000       1.077413        29.3179 
 366   0.0000       1.079058        29.3627 
 367   0.0000       1.081888        29.4397 
 368   0.0000       1.086050        29.5529 
 369   0.0000       1.089190        29.6384 
 370   0.0000       1.095350        29.8060 
 371   0.0000       1.096173        29.8284 
 372   0.0000       1.127524        30.6815 
 373   0.0000       1.136544        30.9269 
 374   0.0000       1.152531        31.3620 
 375   0.0000       1.163587        31.6628 
 376   0.0000       1.180304        32.1177 
 377   0.0000       1.182992        32.1908 
 378   0.0000       1.217748        33.1366 
 379   0.0000       1.225729        33.3538 
 380   0.0000       1.263437        34.3799 
 381   0.0000       1.366399        37.1816 
 382   0.0000       1.376623        37.4598 
 383   0.0000       1.377541        37.4848 
 384   0.0000       1.408903        38.3382 
 385   0.0000       1.421611        38.6840 
 386   0.0000       1.439657        39.1751 
 387   0.0000       1.453526        39.5525 
 388   0.0000       1.460046        39.7299 
 389   0.0000       1.462090        39.7855 
 390   0.0000       1.470997        40.0279 
 391   0.0000       1.477697        40.2102 
 392   0.0000       1.480069        40.2747 
 393   0.0000       1.493919        40.6516 
 394   0.0000       1.501182        40.8492 
 395   0.0000       1.502406        40.8825 
 396   0.0000       1.513652        41.1886 
 397   0.0000       1.514992        41.2250 
 398   0.0000       1.525729        41.5172 
 399   0.0000       1.535695        41.7884 
 400   0.0000       1.540441        41.9175 
 401   0.0000       1.550672        42.1959 
 402   0.0000       1.555427        42.3253 
 403   0.0000       1.556557        42.3561 
 404   0.0000       1.556692        42.3597 
 405   0.0000       1.566950        42.6389 
 406   0.0000       1.574611        42.8473 
 407   0.0000       1.575435        42.8698 
 408   0.0000       1.577844        42.9353 
 409   0.0000       1.585455        43.1424 
 410   0.0000       1.587493        43.1979 
 411   0.0000       1.594949        43.4008 
 412   0.0000       1.596958        43.4554 
 413   0.0000       1.601534        43.5799 
 414   0.0000       1.605186        43.6793 
 415   0.0000       1.605684        43.6929 
 416   0.0000       1.611788        43.8590 
 417   0.0000       1.612397        43.8756 
 418   0.0000       1.616088        43.9760 
 419   0.0000       1.621216        44.1155 
 420   0.0000       1.624617        44.2081 
 421   0.0000       1.627901        44.2974 
 422   0.0000       1.629545        44.3422 
 423   0.0000       1.634395        44.4741 
 424   0.0000       1.636125        44.5212 
 425   0.0000       1.637748        44.5654 
 426   0.0000       1.641486        44.6671 
 427   0.0000       1.643243        44.7149 
 428   0.0000       1.644543        44.7503 
 429   0.0000       1.647921        44.8422 
 430   0.0000       1.650195        44.9041 
 431   0.0000       1.652867        44.9768 
 432   0.0000       1.656145        45.0660 
 433   0.0000       1.658255        45.1234 
 434   0.0000       1.658886        45.1406 
 435   0.0000       1.663461        45.2651 
 436   0.0000       1.663892        45.2768 
 437   0.0000       1.664207        45.2854 
 438   0.0000       1.668223        45.3946 
 439   0.0000       1.669748        45.4362 
 440   0.0000       1.670094        45.4456 
 441   0.0000       1.675670        45.5973 
 442   0.0000       1.677767        45.6544 
 443   0.0000       1.680626        45.7322 
 444   0.0000       1.681412        45.7535 
 445   0.0000       1.683025        45.7974 
 446   0.0000       1.684462        45.8366 
 447   0.0000       1.688406        45.9439 
 448   0.0000       1.690005        45.9874 
 449   0.0000       1.690372        45.9974 
 450   0.0000       1.690728        46.0070 
 451   0.0000       1.692320        46.0504 
 452   0.0000       1.694982        46.1228 
 453   0.0000       1.696665        46.1686 
 454   0.0000       1.697432        46.1895 
 455   0.0000       1.698106        46.2078 
 456   0.0000       1.700279        46.2669 
 457   0.0000       1.702572        46.3294 
 458   0.0000       1.703225        46.3471 
 459   0.0000       1.705146        46.3994 
 460   0.0000       1.705278        46.4030 
 461   0.0000       1.706599        46.4389 
 462   0.0000       1.707752        46.4703 
 463   0.0000       1.709092        46.5068 
 464   0.0000       1.709843        46.5272 
 465   0.0000       1.711446        46.5708 
 466   0.0000       1.712275        46.5934 
 467   0.0000       1.716025        46.6954 
 468   0.0000       1.716610        46.7113 
 469   0.0000       1.719237        46.7828 
 470   0.0000       1.720329        46.8125 
 471   0.0000       1.721109        46.8338 
 472   0.0000       1.723361        46.8950 
 473   0.0000       1.724491        46.9258 
 474   0.0000       1.726542        46.9816 
 475   0.0000       1.728612        47.0379 
 476   0.0000       1.729669        47.0667 
 477   0.0000       1.732369        47.1402 
 478   0.0000       1.732869        47.1538 
 479   0.0000       1.735204        47.2173 
 480   0.0000       1.736482        47.2521 
 481   0.0000       1.737786        47.2876 
 482   0.0000       1.739484        47.3338 
 483   0.0000       1.740148        47.3518 
 484   0.0000       1.742965        47.4285 
 485   0.0000       1.744257        47.4636 
 486   0.0000       1.746105        47.5139 
 487   0.0000       1.750349        47.6294 
 488   0.0000       1.752912        47.6992 
 489   0.0000       1.754977        47.7554 
 490   0.0000       1.756999        47.8104 
 491   0.0000       1.758847        47.8607 
 492   0.0000       1.759807        47.8868 
 493   0.0000       1.761984        47.9460 
 494   0.0000       1.764346        48.0103 
 495   0.0000       1.767471        48.0953 
 496   0.0000       1.769067        48.1388 
 497   0.0000       1.770143        48.1680 
 498   0.0000       1.773743        48.2660 
 499   0.0000       1.774778        48.2942 
 500   0.0000       1.774857        48.2963 
 501   0.0000       1.776287        48.3352 
 502   0.0000       1.778107        48.3848 
 503   0.0000       1.781544        48.4783 
 504   0.0000       1.783022        48.5185 
 505   0.0000       1.786808        48.6215 
 506   0.0000       1.788121        48.6573 
 507   0.0000       1.793301        48.7982 
 508   0.0000       1.794489        48.8305 
 509   0.0000       1.794870        48.8409 
 510   0.0000       1.795949        48.8702 
 511   0.0000       1.798139        48.9298 
 512   0.0000       1.800401        48.9914 
 513   0.0000       1.802322        49.0437 
 514   0.0000       1.802645        49.0525 
 515   0.0000       1.806682        49.1623 
 516   0.0000       1.807958        49.1970 
 517   0.0000       1.809151        49.2295 
 518   0.0000       1.814922        49.3865 
 519   0.0000       1.816695        49.4348 
 520   0.0000       1.817291        49.4510 
 521   0.0000       1.820939        49.5503 
 522   0.0000       1.827474        49.7281 
 523   0.0000       1.832640        49.8687 
 524   0.0000       1.833239        49.8850 
 525   0.0000       1.836684        49.9787 
 526   0.0000       1.840046        50.0702 
 527   0.0000       1.843958        50.1766 
 528   0.0000       1.847008        50.2596 
 529   0.0000       1.850681        50.3596 
 530   0.0000       1.860051        50.6146 
 531   0.0000       1.863136        50.6985 
 532   0.0000       1.870123        50.8886 
 533   0.0000       1.872471        50.9525 
 534   0.0000       1.874726        51.0139 
 535   0.0000       1.884056        51.2678 
 536   0.0000       1.885402        51.3044 
 537   0.0000       1.891575        51.4724 
 538   0.0000       1.904962        51.8367 
 539   0.0000       1.910319        51.9824 
 540   0.0000       1.920327        52.2548 
 541   0.0000       1.925310        52.3903 
 542   0.0000       1.938175        52.7404 
 543   0.0000       1.938274        52.7431 
 544   0.0000       1.941803        52.8391 
 545   0.0000       1.950522        53.0764 
 546   0.0000       1.954046        53.1723 
 547   0.0000       1.964673        53.4615 
 548   0.0000       1.975870        53.7662 
 549   0.0000       1.986478        54.0548 
 550   0.0000       1.997732        54.3610 
 551   0.0000       2.002736        54.4972 
 552   0.0000       2.007290        54.6211 
 553   0.0000       2.007540        54.6279 
 554   0.0000       2.017138        54.8891 
 555   0.0000       2.020412        54.9782 
 556   0.0000       2.025441        55.1151 
 557   0.0000       2.026339        55.1395 
 558   0.0000       2.041334        55.5475 
 559   0.0000       2.042928        55.5909 
 560   0.0000       2.052478        55.8508 
 561   0.0000       2.061299        56.0908 
 562   0.0000       2.071238        56.3612 
 563   0.0000       2.071586        56.3707 
 564   0.0000       2.079492        56.5859 
 565   0.0000       2.080135        56.6034 
 566   0.0000       2.086939        56.7885 
 567   0.0000       2.087828        56.8127 
 568   0.0000       2.111679        57.4617 
 569   0.0000       2.121825        57.7378 
 570   0.0000       2.134053        58.0705 
 571   0.0000       2.137462        58.1633 
 572   0.0000       2.161647        58.8214 
 573   0.0000       2.171884        59.1000 
 574   0.0000       2.246869        61.1404 
 575   0.0000       2.304408        62.7061 
 576   0.0000       2.369118        64.4670 
 577   0.0000       2.490143        67.7602 
 578   0.0000       2.553095        69.4732 
 579   0.0000       2.554636        69.5152 
 580   0.0000       2.609067        70.9963 
 581   0.0000       2.679411        72.9105 
 582   0.0000       2.693749        73.3006 
 583   0.0000       2.718037        73.9616 
 584   0.0000       2.722203        74.0749 
 585   0.0000       2.764428        75.2239 
 586   0.0000       2.766722        75.2863 
 587   0.0000       2.778063        75.5949 
 588   0.0000       2.797760        76.1309 
 589   0.0000       2.816142        76.6311 
 590   0.0000       2.827492        76.9400 
 591   0.0000       2.855653        77.7063 
 592   0.0000       3.012491        81.9740 
 593   0.0000       3.401954        92.5719 
 594   0.0000       3.418958        93.0346 
 595   0.0000       3.423318        93.1532 
 596   0.0000       3.426389        93.2368 
 597   0.0000       3.437598        93.5418 
 598   0.0000       3.437667        93.5437 
 599   0.0000       3.456032        94.0434 
 600   0.0000       3.469743        94.4165 
 601   0.0000       3.523337        95.8749 
 602   0.0000       3.556613        96.7803 
 603   0.0000       3.580615        97.4335 
 604   0.0000       3.715698       101.1093 
 605   0.0000      23.849471       648.9771 
 606   0.0000      24.223824       659.1638 
 607   0.0000      24.263566       660.2452 
 608   0.0000      24.310503       661.5224 
 609   0.0000      24.454936       665.4526 
 610   0.0000      24.630601       670.2327 
 611   0.0000      24.793296       674.6599 
 612   0.0000      24.929781       678.3738 
 613   0.0000      25.157710       684.5761 
 614   0.0000      25.160992       684.6654 
 615   0.0000      25.212591       686.0695 
 616   0.0000      25.302372       688.5125 
 617   0.0000      25.310238       688.7266 
 618   0.0000      25.345726       689.6923 
 619   0.0000      25.534307       694.8238 
 620   0.0000      25.636706       697.6102 
 621   0.0000      25.646948       697.8889 
 622   0.0000      25.713721       699.7059 
 623   0.0000      25.814961       702.4608 
 624   0.0000      25.841430       703.1811 
 625   0.0000      25.862475       703.7537 
 626   0.0000      25.878146       704.1801 
 627   0.0000      26.134582       711.1581 
 628   0.0000      26.145541       711.4563 
 629   0.0000      26.189225       712.6451 
 630   0.0000      26.222228       713.5431 
 631   0.0000      26.363001       717.3737 
 632   0.0000      26.413551       718.7493 
 633   0.0000      26.449435       719.7257 
 634   0.0000      26.687351       726.1998 
 635   0.0000      26.758324       728.1310 
 636   0.0000      26.782463       728.7879 
 637   0.0000      26.908145       732.2079 
 638   0.0000      26.946438       733.2499 
 639   0.0000      26.964139       733.7315 
 640   0.0000      27.083095       736.9685 
 641   0.0000      27.087482       737.0879 
 642   0.0000      27.189271       739.8577 
 643   0.0000      27.233102       741.0504 
 644   0.0000      27.366292       744.6747 
 645   0.0000      27.733891       754.6775 
 646   0.0000      27.745342       754.9891 
 647   0.0000      27.937050       760.2058 
 648   0.0000      27.969395       761.0859 
 649   0.0000      28.099906       764.6373 
 650   0.0000      28.236136       768.3443 
 651   0.0000      28.426571       773.5263 
 652   0.0000      28.503344       775.6154 
 653   0.0000      44.073846      1199.3103 
 654   0.0000      44.205097      1202.8818 
 655   0.0000      44.257185      1204.2992 
 656   0.0000      44.258391      1204.3320 
 657   0.0000      44.284056      1205.0304 
 658   0.0000      44.360746      1207.1173 
 659   0.0000      44.370766      1207.3899 
 660   0.0000      44.377707      1207.5788 
 661   0.0000      44.379738      1207.6341 
 662   0.0000      44.389891      1207.9103 
 663   0.0000      44.422456      1208.7965 
 664   0.0000      44.423291      1208.8192 
 665   0.0000      44.440419      1209.2853 
 666   0.0000      44.467953      1210.0345 
 667   0.0000      44.475224      1210.2324 
 668   0.0000      44.483731      1210.4639 
 669   0.0000     202.658555      5514.6196 
 670   0.0000     202.704039      5515.8573 
 671   0.0000     202.732685      5516.6368 
 672   0.0000     202.733398      5516.6562 
 673   0.0000     202.742423      5516.9018 
 674   0.0000     202.776717      5517.8350 
 675   0.0000     202.780268      5517.9316 
 676   0.0000     202.784720      5518.0528 
 677   0.0000     202.785137      5518.0641 
 678   0.0000     202.792459      5518.2633 
 679   0.0000     202.801191      5518.5010 
 680   0.0000     202.803260      5518.5573 
 681   0.0000     202.810729      5518.7605 
 682   0.0000     202.821353      5519.0496 
 683   0.0000     202.830530      5519.2993 
 684   0.0000     202.833581      5519.3823 

                 SPIN DOWN ORBITALS
  NO   OCC          E(Eh)            E(eV) 
   0   1.0000    -237.634870     -6466.3736 
   1   1.0000     -28.041416      -763.0457 
   2   1.0000     -23.967394      -652.1859 
   3   1.0000     -23.966991      -652.1750 
   4   1.0000     -23.966940      -652.1736 
   5   1.0000      -4.410981      -120.0289 
   6   1.0000      -4.409413      -119.9862 
   7   1.0000      -4.409304      -119.9833 
   8   1.0000      -4.403305      -119.8200 
   9   1.0000      -4.398660      -119.6936 
  10   1.0000      -4.395164      -119.5985 
  11   1.0000      -4.395156      -119.5983 
  12   1.0000      -4.394030      -119.5676 
  13   1.0000      -4.393946      -119.5653 
  14   1.0000      -4.392218      -119.5183 
  15   1.0000      -4.391861      -119.5086 
  16   1.0000      -4.390559      -119.4732 
  17   1.0000      -4.390334      -119.4671 
  18   1.0000      -4.389895      -119.4551 
  19   1.0000      -4.389636      -119.4481 
  20   1.0000      -4.384716      -119.3142 
  21   1.0000      -3.334722       -90.7424 
  22   1.0000      -2.534135       -68.9573 
  23   1.0000      -2.530342       -68.8541 
  24   1.0000      -2.528952       -68.8163 
  25   1.0000      -2.526064       -68.7377 
  26   1.0000      -2.525320       -68.7174 
  27   1.0000      -2.524842       -68.7044 
  28   1.0000      -2.524138       -68.6853 
  29   1.0000      -2.523719       -68.6739 
  30   1.0000      -2.523645       -68.6719 
  31   1.0000      -2.521873       -68.6237 
  32   1.0000      -2.520139       -68.5765 
  33   1.0000      -2.519746       -68.5658 
  34   1.0000      -2.519121       -68.5488 
  35   1.0000      -2.518550       -68.5332 
  36   1.0000      -2.515453       -68.4489 
  37   1.0000      -2.514769       -68.4303 
  38   1.0000      -2.514478       -68.4224 
  39   1.0000      -2.514344       -68.4188 
  40   1.0000      -2.513481       -68.3953 
  41   1.0000      -2.513260       -68.3893 
  42   1.0000      -2.513074       -68.3842 
  43   1.0000      -2.512615       -68.3717 
  44   1.0000      -2.511303       -68.3360 
  45   1.0000      -2.511198       -68.3332 
  46   1.0000      -2.510754       -68.3211 
  47   1.0000      -2.510449       -68.3128 
[...]
      f0      :     0.000149  f :     0.000413
      f+1     :     0.000136
      f-1     :     0.000093
      f+2     :     0.000002
      f-2     :     0.000034
      f+3     :     0.000003
      f-3     :    -0.000004
  7 Aus       :    -0.062274  s :    -0.062274
      pz      :    -0.006604  p :    -0.059043
      px      :    -0.055872
      py      :     0.003433
      dz2     :    -0.006945  d :    -0.021627
      dxz     :    -0.003209
      dyz     :    -0.000840
      dx2y2   :    -0.007228
      dxy     :    -0.003405
      f0      :    -0.000002  f :    -0.000055
      f+1     :    -0.000001
      f-1     :    -0.000029
      f+2     :     0.000001
      f-2     :    -0.000002
      f+3     :    -0.000012
      f-3     :    -0.000010
  8 Aus       :    -0.043650  s :    -0.043650
      pz      :    -0.045151  p :    -0.091262
      px      :    -0.018985
      py      :    -0.027126
      dz2     :     0.000530  d :    -0.019800
      dxz     :    -0.007859
      dyz     :    -0.000215
      dx2y2   :    -0.003873
      dxy     :    -0.008383
      f0      :    -0.000004  f :    -0.000079
      f+1     :    -0.000025
      f-1     :    -0.000023
      f+2     :    -0.000002
      f-2     :    -0.000009
      f+3     :    -0.000010
      f-3     :    -0.000007
  9 Aus       :    -0.046063  s :    -0.046063
      pz      :    -0.003454  p :    -0.080793
      px      :    -0.036657
      py      :    -0.040682
      dz2     :    -0.001136  d :    -0.013374
      dxz     :    -0.005438
      dyz     :    -0.002044
      dx2y2   :    -0.004244
      dxy     :    -0.000512
      f0      :     0.000002  f :    -0.000059
      f+1     :     0.000000
      f-1     :    -0.000011
      f+2     :    -0.000016
      f-2     :    -0.000019
      f+3     :    -0.000001
      f-3     :    -0.000014
 10 Aus       :    -0.043013  s :    -0.043013
      pz      :    -0.016150  p :    -0.029219
      px      :    -0.013266
      py      :     0.000198
      dz2     :     0.009267  d :     0.012619
      dxz     :    -0.000300
      dyz     :     0.001326
      dx2y2   :     0.003092
      dxy     :    -0.000767
      f0      :     0.000029  f :     0.000247
      f+1     :     0.000093
      f-1     :     0.000015
      f+2     :     0.000050
      f-2     :     0.000042
      f+3     :     0.000010
      f-3     :     0.000008
 11 Aus       :     0.008516  s :     0.008516
      pz      :    -0.050262  p :    -0.084938
      px      :    -0.033132
      py      :    -0.001544
      dz2     :    -0.000298  d :    -0.016935
      dxz     :     0.000467
      dyz     :    -0.010604
      dx2y2   :    -0.001416
      dxy     :    -0.005085
      f0      :    -0.000012  f :    -0.000091
      f+1     :    -0.000013
      f-1     :    -0.000015
      f+2     :     0.000000
      f-2     :    -0.000015
      f+3     :    -0.000004
      f-3     :    -0.000032
 12 Aus       :     0.009027  s :     0.009027
      pz      :    -0.035041  p :    -0.084570
      px      :    -0.042635
      py      :    -0.006894
      dz2     :    -0.003770  d :    -0.017027
      dxz     :    -0.002474
      dyz     :    -0.003210
      dx2y2   :     0.000136
      dxy     :    -0.007709
      f0      :    -0.000011  f :    -0.000093
      f+1     :    -0.000011
      f-1     :    -0.000017
      f+2     :    -0.000005
      f-2     :    -0.000014
      f+3     :    -0.000025
      f-3     :    -0.000010
 13 Aus       :    -0.101755  s :    -0.101755
      pz      :    -0.003477  p :     0.003334
      px      :     0.012329
      py      :    -0.005519
      dz2     :    -0.001208  d :    -0.037833
      dxz     :    -0.006364
      dyz     :    -0.003776
      dx2y2   :    -0.020179
      dxy     :    -0.006305
      f0      :    -0.000003  f :    -0.000033
      f+1     :    -0.000010
      f-1     :    -0.000026
      f+2     :    -0.000008
      f-2     :     0.000003
      f+3     :     0.000003
      f-3     :     0.000007
 14 Aus       :    -0.043489  s :    -0.043489
      pz      :    -0.019100  p :    -0.081601
      px      :    -0.016010
      py      :    -0.046492
      dz2     :    -0.004414  d :    -0.013108
      dxz     :    -0.000120
      dyz     :    -0.000361
      dx2y2   :     0.001645
      dxy     :    -0.009858
      f0      :    -0.000001  f :    -0.000060
      f+1     :     0.000005
      f-1     :    -0.000046
      f+2     :    -0.000003
      f-2     :    -0.000011
      f+3     :    -0.000004
      f-3     :     0.000000
 15 Aus       :    -0.062305  s :    -0.062305
      pz      :    -0.038507  p :    -0.058161
      px      :    -0.024852
      py      :     0.005198
      dz2     :    -0.005142  d :    -0.021650
      dxz     :    -0.006275
      dyz     :    -0.003328
      dx2y2   :    -0.006637
      dxy     :    -0.000267
      f0      :    -0.000003  f :    -0.000056
      f+1     :    -0.000006
      f-1     :    -0.000019
      f+2     :    -0.000014
      f-2     :    -0.000002
      f+3     :    -0.000013
      f-3     :     0.000001
 16 Mns       :     0.023291  s :     0.023291
      pz      :     0.018473  p :     0.036691
      px      :     0.013113
      py      :     0.005106
      dz2     :     0.906392  d :     4.703636
      dxz     :     0.928200
      dyz     :     0.953106
      dx2y2   :     0.961816
      dxy     :     0.954122
      f0      :     0.000000  f :     0.000011
      f+1     :     0.000003
      f-1     :     0.000001
      f+2     :     0.000001
      f-2     :     0.000003
      f+3     :     0.000002
      f-3     :     0.000000


                      *****************************
                      * MAYER POPULATION ANALYSIS *
                      *****************************

  NA   - Mulliken gross atomic population
  ZA   - Total nuclear charge
  QA   - Mulliken gross atomic charge
  VA   - Mayer's total valence
  BVA  - Mayer's bonded valence
  FA   - Mayer's free valence

  ATOM       NA         ZA         QA         VA         BVA        FA
  0 Au    19.0303    19.0000    -0.0303     1.8534     1.8475     0.0060
  1 Au    19.3448    19.0000    -0.3448     1.8790     1.7951     0.0839
  2 Au    18.9772    19.0000     0.0228     1.6900     1.6599     0.0302
  3 Au    18.7116    19.0000     0.2884     1.3150     1.2713     0.0438
  4 Au    19.0337    19.0000    -0.0337     1.8544     1.8483     0.0061
  5 Au    19.1310    19.0000    -0.1310     1.5940     1.5750     0.0190
  6 Au    18.7804    19.0000     0.2196     1.4407     1.4126     0.0281
  7 Au    18.6673    19.0000     0.3327     1.4294     1.3926     0.0369
  8 Au    18.9637    19.0000     0.0363     1.6821     1.6520     0.0301
  9 Au    18.8593    19.0000     0.1407     1.5538     1.5313     0.0225
 10 Au    19.1417    19.0000    -0.1417     1.6038     1.5844     0.0194
 11 Au    18.7519    19.0000     0.2481     1.4977     1.4955     0.0023
 12 Au    18.7591    19.0000     0.2409     1.5011     1.4988     0.0023
 13 Au    20.0509    19.0000    -1.0509     2.4582     2.3544     0.1038
 14 Au    18.8743    19.0000     0.1257     1.5645     1.5429     0.0216
 15 Au    18.6620    19.0000     0.3380     1.4189     1.3827     0.0361
 16 Mn    25.2608    25.0000    -0.2608     7.6025     2.9070     4.6955

  Mayer bond orders larger than 0.100000
B(  0-Au,  1-Au) :   0.2676 B(  0-Au,  2-Au) :   0.4050 B(  0-Au,  3-Au) :   0.3069 
B(  0-Au,  4-Au) :   0.1459 B(  0-Au,  5-Au) :   0.1773 B(  0-Au, 16-Mn) :   0.3690 
B(  1-Au,  2-Au) :   0.2736 B(  1-Au,  4-Au) :   0.2733 B(  1-Au,  8-Au) :   0.2708 
B(  1-Au, 11-Au) :   0.2163 B(  1-Au, 12-Au) :   0.2169 B(  1-Au, 13-Au) :   0.1081 
B(  2-Au,  5-Au) :   0.2050 B(  2-Au, 11-Au) :   0.2618 B(  2-Au, 15-Au) :   0.2744 
B(  3-Au,  4-Au) :   0.3079 B(  3-Au, 16-Mn) :   0.4890 B(  4-Au,  8-Au) :   0.4028 
B(  4-Au, 10-Au) :   0.1706 B(  4-Au, 16-Mn) :   0.3719 B(  5-Au,  6-Au) :   0.1752 
B(  5-Au, 14-Au) :   0.2997 B(  5-Au, 15-Au) :   0.1074 B(  5-Au, 16-Mn) :   0.4425 
B(  6-Au,  9-Au) :   0.1968 B(  6-Au, 10-Au) :   0.1798 B(  6-Au, 14-Au) :   0.1987 
B(  6-Au, 16-Mn) :   0.4952 B(  7-Au,  8-Au) :   0.2731 B(  7-Au,  9-Au) :   0.3008 
B(  7-Au, 10-Au) :   0.1193 B(  7-Au, 12-Au) :   0.1986 B(  7-Au, 13-Au) :   0.3051 
B(  8-Au, 10-Au) :   0.2084 B(  8-Au, 12-Au) :   0.2620 B(  9-Au, 10-Au) :   0.2910 
B(  9-Au, 13-Au) :   0.3319 B(  9-Au, 14-Au) :   0.2181 B( 10-Au, 16-Mn) :   0.4431 
B( 11-Au, 12-Au) :   0.2840 B( 11-Au, 13-Au) :   0.3400 B( 11-Au, 15-Au) :   0.1962 
B( 12-Au, 13-Au) :   0.3396 B( 13-Au, 14-Au) :   0.3297 B( 13-Au, 15-Au) :   0.3062 
B( 14-Au, 15-Au) :   0.3020 

-------
TIMINGS
-------

Total SCF time: 0 days 0 hours 16 min 49 sec 

Total time                  ....    1009.365 sec
Sum of individual times     ....    1005.134 sec  ( 99.6%)

Fock matrix formation       ....     972.206 sec  ( 96.3%)
  Split-RI-J                ....      60.574 sec  (  6.2% of F)
  Chain of spheres X        ....     818.165 sec  ( 84.2% of F)
  XC integration            ....      91.501 sec  (  9.4% of F)
    Basis function eval.    ....      10.489 sec  ( 11.5% of XC)
    Density eval.           ....      43.719 sec  ( 47.8% of XC)
    XC-Functional eval.     ....       1.051 sec  (  1.1% of XC)
    XC-Potential eval.      ....      21.172 sec  ( 23.1% of XC)
Diagonalization             ....      17.014 sec  (  1.7%)
Density matrix formation    ....       0.562 sec  (  0.1%)
Population analysis         ....       0.558 sec  (  0.1%)
Initial guess               ....       0.962 sec  (  0.1%)
Orbital Transformation      ....       0.000 sec  (  0.0%)
Orbital Orthonormalization  ....       0.877 sec  (  0.1%)
DIIS solution               ....       6.416 sec  (  0.6%)
Grid generation             ....       7.416 sec  (  0.7%)

Maximum memory used throughout the entire SCF-calculation: 167.2 MB


           ************************************************************
           *        Program running with 6 parallel MPI-processes     *
           *              working on a common directory               *
           ************************************************************

------------------------------------------------------------------------------
                                ORCA  MP2 
------------------------------------------------------------------------------

Freezing NCore=10 chemical core electrons

   <<< Use J-auxbasis for calculation of Separable RI-J derivative contributions (Dim=1513) >>> 


-------------
RI-MP2 ENERGY
-------------
Dimension of the basis                    ...  685
Memory devoted to MP2                     ...  256 MB   
Data format for buffers                   ... DOUBLE
Compression type for matrix containers    ... UNCOMPRESSED
Overall scaling of the MP2 energy         ...   2.700e-01
Calculating two index integrals           ... done (    0.092 sec)
Cholesky decomposition of V**-1           ... done (    1.283 sec)

-----------------
RI-TRANSFORMATION (AUX index driven)
-----------------

Dimension of the orbital-basis         ... 685
Dimension of the aux-basis             ... 2598
Transformation of internal/external MOs...    5- 165 to  166- 684
Number Format for Storage              ... Double (8 Byte)
Integral mode                          ... Direct

First Phase: integral generation and transformation of MO indices
  Aux angular momentum 0               ... done (    0.560 sec)
  Aux angular momentum 1               ... done (    1.688 sec)
  Aux angular momentum 2               ... done (    2.380 sec)
  Aux angular momentum 3               ... done (    2.408 sec)
  Aux angular momentum 4               ... done (    1.962 sec)
  Aux angular momentum 5               ... done (    1.801 sec)
Closing buffer VIA ( 1.62 GB; CompressionRatio= 1.00)
  Phase 1 completed in    18.277 sec
Second Phase: sorting and transformation of aux index

IA-Transformation
Memory available                       ... 150 MB 
Max. # MO pairs treated in a batch     ... 13    
# of internal orbitals                 ... 161
# batches for internal orbitals        ... 3
Closing buffer IAV ( 1.62 GB; CompressionRatio= 1.00)
(ia|v) transformation done in    15.076 sec

  Phase 2 completed in    24.833 sec
RI-Integral transformation completed in    43.111 sec

-----------------
RI-TRANSFORMATION (AUX index driven)
-----------------

Dimension of the orbital-basis         ... 685
Dimension of the aux-basis             ... 2598
Transformation of internal/external MOs...    5- 162 to  163- 684
Number Format for Storage              ... Double (8 Byte)
Integral mode                          ... Direct

First Phase: integral generation and transformation of MO indices
  Aux angular momentum 0               ... done (    0.930 sec)
  Aux angular momentum 1               ... done (    2.126 sec)
  Aux angular momentum 2               ... done (    2.286 sec)
  Aux angular momentum 3               ... done (    2.524 sec)
  Aux angular momentum 4               ... done (    1.926 sec)
  Aux angular momentum 5               ... done (    2.721 sec)
Closing buffer VIA ( 1.60 GB; CompressionRatio= 1.00)
  Phase 1 completed in    12.659 sec
Second Phase: sorting and transformation of aux index

IA-Transformation
Memory available                       ... 150 MB 
Max. # MO pairs treated in a batch     ... 13    
# of internal orbitals                 ... 158
# batches for internal orbitals        ... 3
Closing buffer IAV ( 1.60 GB; CompressionRatio= 1.00)
(ia|v) transformation done in    14.484 sec

  Phase 2 completed in    14.914 sec
RI-Integral transformation completed in    27.574 sec
Opening buffers                              ... done

Starting loop over batches of integrals:

Operator 0  - window                       ... (  5-165)x(166-684)
Operator 0  - Memory available             ...   256 MB
Operator 0  - Memory needed per MO         ...  10.3 MB
Operator 0  - Number of orbitals per batch ... 15
Operator 0  - Number of batches            ... 2

OPERATOR  0   PASS   0:  MOs     5 ...   19 +   20 ...   34 +   35 ...   49 +   50 ...   64
                            +   65 ...   79 +   80 ...   94
  Reading integrals       ... ok
  Internal MO   7
  Internal MO  10
  Internal MO  13
  Internal MO  16
  Internal MO  19
OPERATOR  0   PASS   1:  MOs    95 ...  106 +  107 ...  118 +  119 ...  130 +  131 ...  142
                            +  143 ...  154 +  155 ...  165
  Reading integrals       ... ok
  Internal MO 157
  Internal MO 160
  Internal MO 163

Operator 1  - window                       ... (  5-162)x(163-684)
Operator 1  - Memory available             ...   256 MB
Operator 1  - Memory needed per MO         ...  10.3 MB
Operator 1  - Number of orbitals per batch ... 15
Operator 1  - Number of batches            ... 2

OPERATOR  1   PASS   0:  MOs     5 ...   19 +   20 ...   34 +   35 ...   49 +   50 ...   64
                            +   65 ...   79 +   80 ...   94
  Reading integrals       ... ok
  Internal MO   7
  Internal MO  10
  Internal MO  13
  Internal MO  16
  Internal MO  19
OPERATOR  1   PASS   1:  MOs    95 ...  106 +  107 ...  118 +  119 ...  129 +  130 ...  140
                            +  141 ...  151 +  152 ...  162
  Reading integrals       ... ok
  Internal MO 154
  Internal MO 157
  Internal MO 160
Time spent in pair loops =  1307.695 sec
Deleting buffer (Ka|jb)[aa] ...done
Deleting buffer (Ka|jb)[ba] ...done
Deleting buffer (Ka|jb)[ab] ...done
Deleting buffer (Ka|jb)[bb] ...done

Correlation energy components}
 E2 and T2 for alpha/alpha pairs :     -0.480915312 Eh      0.000000000
 E2 and T2 for beta/beta   pairs :     -0.475037709 Eh      0.000000000
 E2 and T2 for alpha/beta  pairs :     -1.611392071 Eh      0.000000000


-----------------------------------------------
 RI-MP2 CORRELATION ENERGY:     -2.567345093 Eh
-----------------------------------------------


-------
TIMINGS
-------

Total time                : 1379.854 sec
Integral trafo            :   70.721 sec (  5.1%)
I/O of integrals          :    0.314 sec (  0.0%)
K(i,j) Operators          :  834.141 sec ( 60.5%)
T(i,j) pair energies      :   13.120 sec (  1.0%)
V-calculation             :    0.092 sec (  0.0%)
V**(-1/2)                 :    1.283 sec (  0.1%)
Gamma(ia|P)               :    0.000 sec (  0.0%)
Gamma-Trafo               :    0.000 sec (  0.0%)
D(virtual)                :    0.000 sec (  0.0%)
D(internal)               :    0.000 sec (  0.0%)
W(virtual)                :    0.000 sec (  0.0%)
W(internal)               :    0.000 sec (  0.0%)
L(virtual)                :    0.000 sec (  0.0%)
L(internal)               :    0.000 sec (  0.0%)
G(D)                      :    0.000 sec (  0.0%)
G(Z)                      :    0.000 sec (  0.0%)
Z-Vector Solution         :    0.000 sec (  0.0%)
3-Index Derivative        :    0.000 sec (  0.0%)
2-Index Derivative        :    0.000 sec (  0.0%)
Separable Gradient (RIJ)  :    0.000 sec (  0.0%)
Separable Gradient (COSX) :    0.000 sec (  0.0%)


---------------------------------------
MP2 TOTAL ENERGY:    -3320.242788770 Eh
---------------------------------------

Maximum memory used throughout the entire MP2-calculation: 298.8 MB

-------------------------   --------------------
FINAL SINGLE POINT ENERGY     -3320.242788769601
-------------------------   --------------------


                            ***************************************
                            *     ORCA property calculations      *
                            ***************************************


  WARNING: The energy has been calculated at the MP2 level but the densities
           used in the property calculations are still SCF densities
           MP2 response densities have not been calculated 
           use %mp2 Density relaxed end
           or  %mp2 Density unrelaxed end

                                    ---------------------
                                    Active property flags
                                    ---------------------
   (+) Dipole Moment


------------------------------------------------------------------------------
                       ORCA ELECTRIC PROPERTIES CALCULATION
------------------------------------------------------------------------------

Dipole Moment Calculation                       ... on
Quadrupole Moment Calculation                   ... off
Polarizability Calculation                      ... off
GBWName                                         ... b2plyp_job2.gbw
Electron density                                ... b2plyp_job2.scfp
The origin for moment calculation is the CENTER OF MASS  = (12.827976, 15.852381 14.253463)

-------------
DIPOLE MOMENT
-------------
                                X             Y             Z
Electronic contribution:     -5.39030      87.32704     -50.19760
Nuclear contribution   :      5.38419     -87.96850      50.73733
                        -----------------------------------------
Total Dipole Moment    :     -0.00610      -0.64147       0.53973
                        -----------------------------------------
Magnitude (a.u.)       :      0.83835
Magnitude (Debye)      :      2.13092



--------------------
Rotational spectrum 
--------------------
 
Rotational constants in cm-1:     0.000876     0.000748     0.000731 
Rotational constants in MHz :    26.268852    22.437778    21.909043 

 Dipole components along the rotational axes: 
x,y,z [a.u.] :     0.761236    -0.006538     0.351151 
x,y,z [Debye]:     1.934909    -0.016618     0.892554 

 

Timings for individual modules:

Sum of individual times         ...     2424.069 sec (=  40.401 min)
GTO integral calculation        ...       33.797 sec (=   0.563 min)   1.4 %
SCF iterations                  ...     1009.656 sec (=  16.828 min)  41.7 %
MP2 module                      ...     1380.617 sec (=  23.010 min)  57.0 %



                             ****ORCA TERMINATED NORMALLY****
TOTAL RUN TIME: 0 days 1 hours 34 minutes 32 seconds 927 msec
