
                                 *****************
                                 * O   R   C   A *
                                 *****************

                                            #,                                       
                                            ###                                      
                                            ####                                     
                                            #####                                    
                                            ######                                   
                                           ########,                                 
                                     ,,################,,,,,                         
                               ,,#################################,,                 
                          ,,##########################################,,             
                       ,#########################################, ''#####,          
                    ,#############################################,,   '####,        
                  ,##################################################,,,,####,       
                ,###########''''           ''''###############################       
              ,#####''   ,,,,##########,,,,          '''####'''          '####       
            ,##' ,,,,###########################,,,                        '##       
           ' ,,###''''                  '''############,,,                           
         ,,##''                                '''############,,,,        ,,,,,,###''
      ,#''                                            '''#######################'''  
     '                                                          ''''####''''         
             ,#######,   #######,   ,#######,      ##                                
            ,#'     '#,  ##    ##  ,#'     '#,    #''#        ######   ,####,        
            ##       ##  ##   ,#'  ##            #'  '#       #        #'  '#        
            ##       ##  #######   ##           ,######,      #####,   #    #        
            '#,     ,#'  ##    ##  '#,     ,#' ,#      #,         ##   #,  ,#        
             '#######'   ##     ##  '#######'  #'      '#     #####' # '####'        



                  #######################################################
                  #                        -***-                        #
                  #          Department of theory and spectroscopy      #
                  #    Directorship and core code : Frank Neese         #
                  #        Max Planck Institute fuer Kohlenforschung    #
                  #                Kaiser Wilhelm Platz 1               #
                  #                 D-45470 Muelheim/Ruhr               #
                  #                      Germany                        #
                  #                                                     #
                  #                  All rights reserved                #
                  #                        -***-                        #
                  #######################################################


                         Program Version 5.0.3 -  RELEASE  -


 With contributions from (in alphabetic order):
   Daniel Aravena         : Magnetic Suceptibility
   Michael Atanasov       : Ab Initio Ligand Field Theory (pilot matlab implementation)
   Alexander A. Auer      : GIAO ZORA, VPT2 properties, NMR spectrum
   Ute Becker             : Parallelization
   Giovanni Bistoni       : ED, misc. LED, open-shell LED, HFLD
   Martin Brehm           : Molecular dynamics
   Dmytro Bykov           : SCF Hessian
   Vijay G. Chilkuri      : MRCI spin determinant printing, contributions to CSF-ICE
   Dipayan Datta          : RHF DLPNO-CCSD density
   Achintya Kumar Dutta   : EOM-CC, STEOM-CC
   Dmitry Ganyushin       : Spin-Orbit,Spin-Spin,Magnetic field MRCI
   Miquel Garcia          : C-PCM and meta-GGA Hessian, CC/C-PCM, Gaussian charge scheme
   Yang Guo               : DLPNO-NEVPT2, F12-NEVPT2, CIM, IAO-localization
   Andreas Hansen         : Spin unrestricted coupled pair/coupled cluster methods
   Benjamin Helmich-Paris : MC-RPA, TRAH-SCF, COSX integrals
   Lee Huntington         : MR-EOM, pCC
   Robert Izsak           : Overlap fitted RIJCOSX, COSX-SCS-MP3, EOM
   Marcus Kettner         : VPT2
   Christian Kollmar      : KDIIS, OOCD, Brueckner-CCSD(T), CCSD density, CASPT2, CASPT2-K
   Simone Kossmann        : Meta GGA functionals, TD-DFT gradient, OOMP2, MP2 Hessian
   Martin Krupicka        : Initial AUTO-CI
   Lucas Lang             : DCDCAS
   Marvin Lechner         : AUTO-CI (C++ implementation), FIC-MRCC
   Dagmar Lenk            : GEPOL surface, SMD
   Dimitrios Liakos       : Extrapolation schemes; Compound Job, initial MDCI parallelization
   Dimitrios Manganas     : Further ROCIS development; embedding schemes
   Dimitrios Pantazis     : SARC Basis sets
   Anastasios Papadopoulos: AUTO-CI, single reference methods and gradients
   Taras Petrenko         : DFT Hessian,TD-DFT gradient, ASA, ECA, R-Raman, ABS, FL, XAS/XES, NRVS
   Peter Pinski           : DLPNO-MP2, DLPNO-MP2 Gradient
   Christoph Reimann      : Effective Core Potentials
   Marius Retegan         : Local ZFS, SOC
   Christoph Riplinger    : Optimizer, TS searches, QM/MM, DLPNO-CCSD(T), (RO)-DLPNO pert. Triples
   Tobias Risthaus        : Range-separated hybrids, TD-DFT gradient, RPA, STAB
   Michael Roemelt        : Original ROCIS implementation
   Masaaki Saitow         : Open-shell DLPNO-CCSD energy and density
   Barbara Sandhoefer     : DKH picture change effects
   Avijit Sen             : IP-ROCIS
   Kantharuban Sivalingam : CASSCF convergence, NEVPT2, FIC-MRCI
   Bernardo de Souza      : ESD, SOC TD-DFT
   Georgi Stoychev        : AutoAux, RI-MP2 NMR, DLPNO-MP2 response
   Willem Van den Heuvel  : Paramagnetic NMR
   Boris Wezisla          : Elementary symmetry handling
   Frank Wennmohs         : Technical directorship


 We gratefully acknowledge several colleagues who have allowed us to
 interface, adapt or use parts of their codes:
   Stefan Grimme, W. Hujo, H. Kruse, P. Pracht,  : VdW corrections, initial TS optimization,
                  C. Bannwarth, S. Ehlert          DFT functionals, gCP, sTDA/sTD-DF
   Ed Valeev, F. Pavosevic, A. Kumar             : LibInt (2-el integral package), F12 methods
   Garnet Chan, S. Sharma, J. Yang, R. Olivares  : DMRG
   Ulf Ekstrom                                   : XCFun DFT Library
   Mihaly Kallay                                 : mrcc  (arbitrary order and MRCC methods)
   Jiri Pittner, Ondrej Demel                    : Mk-CCSD
   Frank Weinhold                                : gennbo (NPA and NBO analysis)
   Christopher J. Cramer and Donald G. Truhlar   : smd solvation model
   Lars Goerigk                                  : TD-DFT with DH, B97 family of functionals
   V. Asgeirsson, H. Jonsson                     : NEB implementation
   FAccTs GmbH                                   : IRC, NEB, NEB-TS, DLPNO-Multilevel, CI-OPT
                                                   MM, QMMM, 2- and 3-layer-ONIOM, Crystal-QMMM,
                                                   LR-CPCM, SF, NACMEs, symmetry and pop. for TD-DFT,
                                                   nearIR, NL-DFT gradient (VV10), updates on ESD,
                                                   ML-optimized integration grids
   S Lehtola, MJT Oliveira, MAL Marques          : LibXC Library
   Liviu Ungur et al                             : ANISO software


 Your calculation uses the libint2 library for the computation of 2-el integrals
 For citations please refer to: http://libint.valeyev.net

 Your ORCA version has been built with support for libXC version: 5.1.0
 For citations please refer to: https://tddft.org/programs/libxc/

 This ORCA versions uses:
   CBLAS   interface :  Fast vector & matrix operations
   LAPACKE interface :  Fast linear algebra routines
   SCALAPACK package :  Parallel linear algebra routines
   Shared memory     :  Shared parallel matrices
   BLAS/LAPACK       :  OpenBLAS 0.3.15  USE64BITINT DYNAMIC_ARCH NO_AFFINITY Sandybridge SINGLE_THREADED
        Core in use  :  Sandybridge
   Copyright (c) 2011-2014, The OpenBLAS Project




***************************************
The coordinates will be read from file: pbe.xyz
***************************************


================================================================================

cite the ECPs for Au [Def2-ECP] as follows:
Ce-Yb(ecp-28): M. Dolg, H. Stoll, H.Preuss, J. Chem. Phys., 1989, 90, 1730-1734.
Y-Cd(ecp-28), Hf-Hg(ecp-46): D. Andrae,U. Haeussermann, M. Dolg, H. Stoll, H. Preuss, Theor. Chim. Acta, 1990, 77, 123-141.
In-Sb(ecp-28), Tl-Bi(ecp-46): B. Metz, H. Stoll, M. Dolg, J. Chem. Phys., 2000, 113, 2563-2569.
Te-Xe(ecp-28), Po-Rn(ecp-46): K. A. Peterson, D. Figgen, E. Goll, H. Stoll, M. Dolg, J. Chem. Phys., 2003, 119, 11113-11123.
Rb(ecp-28), Cs(ecp-46): T. Leininger, A. Nicklass, W. Kuechle, H. Stoll, M. Dolg, A. Bergner, Chem. Phys. Lett., 1996, 255, 274-280.
Sr(ecp-28), Ba(ecp-46): M. Kaupp, P. V. Schleyer, H. Stoll and H. Preuss, J. Chem. Phys., 1991, 94, 1360-1366.
La(ecp-46): M. Dolg, H. Stoll, A. Savin, H. Preuss, Theor. Chim. Acta, 1989, 75, 173-194.
Lu(ecp-28): X. Cao, M. Dolg, J. Chem. Phys., 2001, 115, 7348-7355.

ECP parameters for Au [Def2-ECP] have been obtained from:
TURBOMOLE (7.0.2)

----- Orbital basis set information -----
Your calculation utilizes the basis: def2-TZVP
   F. Weigend and R. Ahlrichs, Phys. Chem. Chem. Phys. 7, 3297 (2005).

----- AuxJ basis set information -----
Your calculation utilizes the auxiliary basis: def2/J
   F. Weigend, Phys. Chem. Chem. Phys. 8, 1057 (2006).

================================================================================
                                        WARNINGS
                       Please study these warnings very carefully!
================================================================================


WARNING: your system is open-shell and RHF/RKS was chosen
  ===> : WILL SWITCH to UHF/UKS


INFO   : the flag for use of the SHARK integral package has been found!



***************************************
The coordinates will be read from file: pbe.xyz
***************************************


================================================================================

cite the ECPs for Au [Def2-ECP] as follows:
Ce-Yb(ecp-28): M. Dolg, H. Stoll, H.Preuss, J. Chem. Phys., 1989, 90, 1730-1734.
Y-Cd(ecp-28), Hf-Hg(ecp-46): D. Andrae,U. Haeussermann, M. Dolg, H. Stoll, H. Preuss, Theor. Chim. Acta, 1990, 77, 123-141.
In-Sb(ecp-28), Tl-Bi(ecp-46): B. Metz, H. Stoll, M. Dolg, J. Chem. Phys., 2000, 113, 2563-2569.
Te-Xe(ecp-28), Po-Rn(ecp-46): K. A. Peterson, D. Figgen, E. Goll, H. Stoll, M. Dolg, J. Chem. Phys., 2003, 119, 11113-11123.
Rb(ecp-28), Cs(ecp-46): T. Leininger, A. Nicklass, W. Kuechle, H. Stoll, M. Dolg, A. Bergner, Chem. Phys. Lett., 1996, 255, 274-280.
Sr(ecp-28), Ba(ecp-46): M. Kaupp, P. V. Schleyer, H. Stoll and H. Preuss, J. Chem. Phys., 1991, 94, 1360-1366.
La(ecp-46): M. Dolg, H. Stoll, A. Savin, H. Preuss, Theor. Chim. Acta, 1989, 75, 173-194.
Lu(ecp-28): X. Cao, M. Dolg, J. Chem. Phys., 2001, 115, 7348-7355.

ECP parameters for Au [Def2-ECP] have been obtained from:
TURBOMOLE (7.0.2)

----- Orbital basis set information -----
Your calculation utilizes the basis: def2-TZVP
   F. Weigend and R. Ahlrichs, Phys. Chem. Chem. Phys. 7, 3297 (2005).

----- AuxJ basis set information -----
Your calculation utilizes the auxiliary basis: def2/J
   F. Weigend, Phys. Chem. Chem. Phys. 8, 1057 (2006).

================================================================================
                                        WARNINGS
                       Please study these warnings very carefully!
================================================================================


INFO   : the flag for use of the SHARK integral package has been found!

================================================================================
                                       INPUT FILE
================================================================================
NAME = pbeSP.inp
|  1> !PBE def2-TZVP VERYSLOWCONV
|  2> !KDIIS
|  3> 
|  4> %scf
|  5>   AutoTRAHIter 200
|  6>   maxiter 400
|  7> end
|  8> 
|  9> 
| 10> %pal nprocs 6 end 
| 11> 
| 12> *xyzfile 0 6 pbe.xyz
| 13> 
| 14> $new_job
| 15> 
| 16> !PBE def2-TZVP VERYSLOWCONV
| 17> !KDIIS
| 18> 
| 19> %scf
| 20>   AutoTRAHIter 200
| 21>   maxiter 400
| 22> end
| 23>  
| 24> 
| 25> %pal nprocs 6 end 
| 26> 
| 27> *xyzfile 0 4 pbe.xyz
| 28> 
| 29> 
| 30> 
| 31> 
| 32> 
| 33>                          ****END OF INPUT****
================================================================================


                 $$$$$$$$$$$$$$$$$$$$$$$$$$$$$$$$$$$$$$$$$$$$$$ 
                 $ THERE ARE  2 JOBS TO BE PROCESSED THIS RUN $
                 $$$$$$$$$$$$$$$$$$$$$$$$$$$$$$$$$$$$$$$$$$$$$$ 




                 $$$$$$$$$$$$$$$$  JOB NUMBER  1 $$$$$$$$$$$$$$


                       ****************************
                       * Single Point Calculation *
                       ****************************

---------------------------------
CARTESIAN COORDINATES (ANGSTROEM)
---------------------------------
  Au     9.066252    6.810736    8.556787
  Au     9.000919    9.511091    7.546276
  Au     7.916612    9.616141    4.962143
  Au     9.043649    7.265093    5.844002
  Au     6.368438   10.988417    6.857036
  Au     7.756942   11.384502    9.194946
  Au     6.439604    6.700014    9.547191
  Au     5.582964    9.650762    9.453358
  Au     3.877062    9.764245    7.242295
  Au     3.867892    7.583181    8.918145
  Au     4.697005    5.098051    8.013328
  Au     5.175760    9.368957    4.846374
  Au     4.180812    7.086663    6.137360
  Au     7.186386    5.476470    6.955020
  Au     8.120389    8.800522   10.178319
  Au     6.557762    6.954462    4.642405
  Mn     6.530586    8.205715    7.181047

----------------------------
CARTESIAN COORDINATES (A.U.)
----------------------------
  NO LB      ZA    FRAG     MASS         X           Y           Z
   0 Au   19.0000*   0   196.966   17.132733   12.870426   16.169983
   1 Au   19.0000*   0   196.966   17.009272   17.973357   14.260395
   2 Au   19.0000*   0   196.966   14.960228   18.171874    9.377091
   3 Au   19.0000*   0   196.966   17.090020   13.729036   11.043563
   4 Au   19.0000*   0   196.966   12.034604   20.765099   12.957920
   5 Au   19.0000*   0   196.966   14.658495   21.513590   17.375930
   6 Au   19.0000*   0   196.966   12.169087   12.661192   18.041577
   7 Au   19.0000*   0   196.966   10.550273   18.237297   17.864258
   8 Au   19.0000*   0   196.966    7.326586   18.451750   13.685954
   9 Au   19.0000*   0   196.966    7.309256   14.330136   16.852851
  10 Au   19.0000*   0   196.966    8.876053    9.633920   15.142996
  11 Au   19.0000*   0   196.966    9.780770   17.704764    9.158319
  12 Au   19.0000*   0   196.966    7.900590   13.391852   11.597930
  13 Au   19.0000*   0   196.966   13.580301   10.349029   13.143083
  14 Au   19.0000*   0   196.966   15.345311   16.630576   19.234236
  15 Au   19.0000*   0   196.966   12.392373   13.142028    8.772874
  16 Mn   25.0000    0    54.940   12.341018   15.506554   13.570211
* core charge reduced due to ECP

--------------------------------
INTERNAL COORDINATES (ANGSTROEM)
--------------------------------
 Au     0   0   0     0.000000000000     0.00000000     0.00000000
 Au     1   0   0     2.883975801205     0.00000000     0.00000000
 Au     2   1   0     2.804372227947   111.51249107     0.00000000
 Au     1   2   3     2.750663671384    59.97268321    24.20891748
 Au     3   2   1     2.805459210356    67.00233384   116.12585129
 Au     5   3   2     2.747844442824   111.48911654    14.06512510
 Au     1   2   3     2.809348835761    98.00430625   275.37114612
 Au     6   5   3     2.792634775067    66.16374489   246.71448540
 Au     8   6   5     2.794955907423   112.13119091   346.35241453
 Au     8   6   5     2.739126643572   159.71295128    47.95819772
 Au    10   8   6     2.771641384873   123.59283524    38.70184815
 Au     9   8   6     2.753780993867   113.24189246    53.42443470
 Au    11  10   8     2.782137760270    61.55812175   272.19860257
 Au    11  10   8     2.731343004604   105.95648244   339.80163987
 Au     1   2   3     2.735556859517    61.23598367   226.46618368
 Au     4   1   2     2.778482186359   114.54417554   259.70486400
 Mn    13  11  10     2.804103257527    83.03887650    70.84610572

---------------------------
INTERNAL COORDINATES (A.U.)
---------------------------
 Au     0   0   0     0.000000000000     0.00000000     0.00000000
 Au     1   0   0     5.449924441133     0.00000000     0.00000000
 Au     2   1   0     5.299495488395   111.51249107     0.00000000
 Au     1   2   3     5.198001025443    59.97268321    24.20891748
 Au     3   2   1     5.301549587461    67.00233384   116.12585129
 Au     5   3   2     5.192673455554   111.48911654    14.06512510
 Au     1   2   3     5.308899914240    98.00430625   275.37114612
 Au     6   5   3     5.277314916941    66.16374489   246.71448540
 Au     8   6   5     5.281701221415   112.13119091   346.35241453
 Au     8   6   5     5.176199202478   159.71295128    47.95819772
 Au    10   8   6     5.237643158852   123.59283524    38.70184815
 Au     9   8   6     5.203891911206   113.24189246    53.42443470
 Au    11  10   8     5.257478433751    61.55812175   272.19860257
 Au    11  10   8     5.161490256503   105.95648244   339.80163987
 Au     1   2   3     5.169453288257    61.23598367   226.46618368
 Au     4   1   2     5.250570400197   114.54417554   259.70486400
 Mn    13  11  10     5.298987207962    83.03887650    70.84610572

---------------------
BASIS SET INFORMATION
---------------------
There are 2 groups of distinct atoms

 Group   1 Type Au  : 8s7p6d1f contracted to 6s4p3d1f pattern {311111/4111/411/1}
 Group   2 Type Mn  : 17s11p7d1f contracted to 6s4p4d1f pattern {842111/6311/4111/1}

Atom   0Au   basis set group =>   1
Atom   1Au   basis set group =>   1
Atom   2Au   basis set group =>   1
Atom   3Au   basis set group =>   1
Atom   4Au   basis set group =>   1
Atom   5Au   basis set group =>   1
Atom   6Au   basis set group =>   1
Atom   7Au   basis set group =>   1
Atom   8Au   basis set group =>   1
Atom   9Au   basis set group =>   1
Atom  10Au   basis set group =>   1
Atom  11Au   basis set group =>   1
Atom  12Au   basis set group =>   1
Atom  13Au   basis set group =>   1
Atom  14Au   basis set group =>   1
Atom  15Au   basis set group =>   1
Atom  16Mn   basis set group =>   2
---------------------------------
AUXILIARY/J BASIS SET INFORMATION
---------------------------------
There are 2 groups of distinct atoms

 Group   1 Type Au  : 11s5p5d3f3g contracted to 8s5p5d2f3g pattern {41111111/11111/11111/21/111}
 Group   2 Type Mn  : 19s5p5d3f3g contracted to 8s5p5d2f3g pattern {121111111/11111/11111/21/111}

Atom   0Au   basis set group =>   1
Atom   1Au   basis set group =>   1
Atom   2Au   basis set group =>   1
Atom   3Au   basis set group =>   1
Atom   4Au   basis set group =>   1
Atom   5Au   basis set group =>   1
Atom   6Au   basis set group =>   1
Atom   7Au   basis set group =>   1
Atom   8Au   basis set group =>   1
Atom   9Au   basis set group =>   1
Atom  10Au   basis set group =>   1
Atom  11Au   basis set group =>   1
Atom  12Au   basis set group =>   1
Atom  13Au   basis set group =>   1
Atom  14Au   basis set group =>   1
Atom  15Au   basis set group =>   1
Atom  16Mn   basis set group =>   2
-------------------------
ECP PARAMETER INFORMATION
-------------------------

 Group 1, Type Au ECP Def2-ECP (replacing 60 core electrons, lmax=3)

Atom   0Au   ECP group =>   1
Atom   1Au   ECP group =>   1
Atom   2Au   ECP group =>   1
Atom   3Au   ECP group =>   1
Atom   4Au   ECP group =>   1
Atom   5Au   ECP group =>   1
Atom   6Au   ECP group =>   1
Atom   7Au   ECP group =>   1
Atom   8Au   ECP group =>   1
Atom   9Au   ECP group =>   1
Atom  10Au   ECP group =>   1
Atom  11Au   ECP group =>   1
Atom  12Au   ECP group =>   1
Atom  13Au   ECP group =>   1
Atom  14Au   ECP group =>   1
Atom  15Au   ECP group =>   1



           ************************************************************
           *        Program running with 6 parallel MPI-processes     *
           *              working on a common directory               *
           ************************************************************
------------------------------------------------------------------------------
                           ORCA GTO INTEGRAL CALCULATION
                           -- RI-GTO INTEGRALS CHOSEN --
------------------------------------------------------------------------------
------------------------------------------------------------------------------
                   ___                                                        
                  /   \      - P O W E R E D   B Y -                         
                 /     \                                                     
                 |  |  |   _    _      __       _____    __    __             
                 |  |  |  | |  | |    /  \     |  _  \  |  |  /  |          
                  \  \/   | |  | |   /    \    | | | |  |  | /  /          
                 / \  \   | |__| |  /  /\  \   | |_| |  |  |/  /          
                |  |  |   |  __  | /  /__\  \  |    /   |      \           
                |  |  |   | |  | | |   __   |  |    \   |  |\   \          
                \     /   | |  | | |  |  |  |  | |\  \  |  | \   \       
                 \___/    |_|  |_| |__|  |__|  |_| \__\ |__|  \__/        
                                                                              
                      - O R C A' S   B I G   F R I E N D -                    
                                      &                                       
                       - I N T E G R A L  F E E D E R -                       
                                                                              
 v1 FN, 2020, v2 2021                                                         
------------------------------------------------------------------------------


Reading SHARK input file pbeSP.SHARKINP.tmp ... ok
----------------------
SHARK INTEGRAL PACKAGE
----------------------

Number of atoms                             ...     17
Number of basis functions                   ...    685
Number of shells                            ...    239
Maximum angular momentum                    ...      3
Integral batch strategy                     ... SHARK/LIBINT Hybrid
RI-J (if used) integral strategy            ... SPLIT-RIJ (Revised 2003 algorithm where possible)
Printlevel                                  ...      1
Contraction scheme used                     ... SEGMENTED contraction
Coulomb Range Separation                    ... NOT USED
Exchange Range Separation                   ... NOT USED
Finite Nucleus Model                        ... NOT USED
Auxiliary Coulomb fitting basis             ... AVAILABLE
   # of basis functions in Aux-J            ...   1513
   # of shells in Aux-J                     ...    391
   Maximum angular momentum in Aux-J        ...      4
Auxiliary J/K fitting basis                 ... NOT available
Auxiliary Correlation fitting basis         ... NOT available
Auxiliary 'external' fitting basis          ... NOT available
Integral threshold                          ...     1.000000e-10
Primitive cut-off                           ...     1.000000e-11
Primitive pair pre-selection threshold      ...     1.000000e-11

Calculating pre-screening integrals         ... done (  0.4 sec) Dimension = 239
Organizing shell pair data                  ... done (  2.3 sec)
Shell pair information
Total number of shell pairs                 ...     28680
Shell pairs after pre-screening             ...     22470
Total number of primitive shell pairs       ...     75765
Primitive shell pairs kept                  ...     42669
          la=0 lb=0:   3552 shell pairs
          la=1 lb=0:   5120 shell pairs
          la=1 lb=1:   1927 shell pairs
          la=2 lb=0:   4464 shell pairs
          la=2 lb=1:   3142 shell pairs
          la=2 lb=2:   1301 shell pairs
          la=3 lb=0:   1156 shell pairs
          la=3 lb=1:    894 shell pairs
          la=3 lb=2:    796 shell pairs
          la=3 lb=3:    118 shell pairs

Calculating one electron integrals          ... done (  0.1 sec)
Calculating ECP integrals                   ... done ( 20.9 sec)
Calculating RI/J V-Matrix + Cholesky decomp.... done (  0.2 sec)
Calculating Nuclear repulsion               ... done (  0.0 sec) ENN=   7090.320424335641 Eh

SHARK setup successfully completed in  24.6 seconds

Maximum memory used throughout the entire GTOINT-calculation: 41.3 MB


           ************************************************************
           *        Program running with 6 parallel MPI-processes     *
           *              working on a common directory               *
           ************************************************************
-------------------------------------------------------------------------------
                                 ORCA SCF
-------------------------------------------------------------------------------

------------
SCF SETTINGS
------------
Hamiltonian:
 Density Functional     Method          .... DFT(GTOs)
 Exchange Functional    Exchange        .... PBE
   PBE kappa parameter   XKappa         ....  0.804000
   PBE mue parameter    XMuePBE         ....  0.219520
 Correlation Functional Correlation     .... PBE
   PBE beta parameter  CBetaPBE         ....  0.066725
 LDA part of GGA corr.  LDAOpt          .... PW91-LDA
 Gradients option       PostSCFGGA      .... off
   Density functional embedding theory  .... OFF
   NL short-range parameter             ....  6.400000
 RI-approximation to the Coulomb term is turned on
   Number of AuxJ basis functions       .... 1513


General Settings:
 Integral files         IntName         .... pbeSP
 Hartree-Fock type      HFTyp           .... UHF
 Total Charge           Charge          ....    0
 Multiplicity           Mult            ....    6
 Number of Electrons    NEL             ....  329
 Basis Dimension        Dim             ....  685
 Nuclear Repulsion      ENuc            ....   7090.3204243356 Eh

Convergence Acceleration:
 DIIS                   CNVDIIS         .... off
 Trust-Rad. Augm. Hess. CNVTRAH         .... auto
   Auto Start mean grad. ratio tolernc. ....  1.125000
   Auto Start start iteration           ....   200
   Auto Start num. interpolation iter.  ....    10
   Max. Number of Micro iterations      ....    16
   Max. Number of Macro iterations      .... Maxiter - #DIIS iter
   Number of Davidson start vectors     ....     2
   Converg. threshold I  (grad. norm)   ....   5.000e-05
   Converg. threshold II (energy diff.) ....   1.000e-06
   Grad. Scal. Fac. for Micro threshold ....   0.100
   Minimum threshold for Micro iter.    ....   0.010
   NR start threshold (gradient norm)   ....   0.001
   Initial trust radius                 ....   0.400
   Minimum AH scaling param. (alpha)    ....   1.000
   Maximum AH scaling param. (alpha)    .... 1000.000
   Orbital update algorithm             .... Taylor
   White noise on init. David. guess    .... on
   Maximum white noise                  ....   0.010
   Quad. conv. algorithm                .... NR
 SOSCF                  CNVSOSCF        .... off
 Level Shifting         CNVShift        .... off
 Zerner damping         CNVZerner       .... off
 Static damping         CNVDamp         .... off
 Fernandez-Rico         CNVRico         .... off

SCF Procedure:
 Maximum # iterations   MaxIter         ....   400
 SCF integral mode      SCFMode         .... Direct
   Integral package                     .... SHARK and LIBINT hybrid scheme
 Reset frequency        DirectResetFreq ....    20
 Integral Threshold     Thresh          ....  1.000e-10 Eh
 Primitive CutOff       TCut            ....  1.000e-11 Eh

Convergence Tolerance:
 Convergence Check Mode ConvCheckMode   .... All-Criteria
 Convergence forced     ConvForced      .... 0
 Energy Change          TolE            ....  1.000e-06 Eh
 Max Density Change     TolMaxP         ....  1.000e-05
 RMS Density Change     TolRMSP         ....  1.000e-06


Diagonalization of the overlap matrix:
Smallest eigenvalue                        ... 2.740e-04
Time for diagonalization                   ...    0.150 sec
Threshold for overlap eigenvalues          ... 1.000e-08
Number of eigenvalues below threshold      ... 0
Time for construction of square roots      ...    0.133 sec
Total time needed                          ...    0.285 sec

Time for model grid setup =    1.105 sec

------------------------------
INITIAL GUESS: MODEL POTENTIAL
------------------------------
Loading Hartree-Fock densities                     ... done
  calling /home/ehlert/src/miniconda3/envs/orca500/Programs/ORCA501/orca pbeSP_atom79.inp > pbeSP_atom79.out in order to generate an atomic fitting density for atom 0 (Au with ECP) on-the-fly... 
    atom 0 (Au), assumed electronic state with S=2: 1s2 2s2 2p6 3s2 3p6 4s2 3d10 4p6 5s2 4d10 5p6 6s1 4f14 5d10           ... done
Calculating cut-offs                               ... done
Initializing the effective Hamiltonian             ... done
Setting up the integral package (SHARK)            ... done
Starting the Coulomb interaction                   ... done (   1.5 sec)
Reading the grid                                   ... done
Mapping shells                                     ... done
Starting the XC term evaluation                    ... done (   1.3 sec)
  promolecular density results
     # of electrons  =   1289.015444438
     EX              =  -5903.822075961
     EC              =    -78.635845863
     EX+EC           =  -5982.457921824
Transforming the Hamiltonian                       ... done (   0.1 sec)
Diagonalizing the Hamiltonian                      ... done (   0.2 sec)
Back transforming the eigenvectors                 ... done (   0.1 sec)
Now organizing SCF variables                       ... done
                      ------------------
                      INITIAL GUESS DONE (   5.5 sec)
                      ------------------
-------------------
DFT GRID GENERATION
-------------------

General Integration Accuracy     IntAcc      ... 4.388
Radial Grid Type                 RadialGrid  ... OptM3 with GC (2021)
Angular Grid (max. ang.)         AngularGrid ... 4 (Lebedev-302)
Angular grid pruning method      GridPruning ... 4 (adaptive)
Weight generation scheme         WeightScheme... Becke
Basis function cutoff            BFCut       ... 1.0000e-10
Integration weight cutoff        WCut        ... 1.0000e-14
Angular grids for H and He will be reduced by one unit
Partially contracted basis set               ... off
Rotationally invariant grid construction     ... off

Total number of grid points                  ...   186667
Total number of batches                      ...     2926
Average number of points per batch           ...       63
Average number of grid points per atom       ...    10980
Time for grid setup =    3.212 sec

--------------
SCF ITERATIONS
--------------
ITER       Energy         Delta-E        Max-DP      RMS-DP      [F,P]   Gradient Norm
               ***  Starting incremental Fock matrix formation  ***
                             ****Resetting KDIIS****
                             ****Turning on KDIIS(Cayley)****
  0  -3321.5798126257   0.000000000000 0.26866491  0.00119281  0.4695886   0.224057911
  1  -3322.9678852015  -1.388072575858 0.48402912  0.00154667  0.2871699   0.167819291
  2  -3323.5418906598  -0.574005458335 0.21927395  0.00118983  0.2267974   0.125831965
  3  -3323.8375360095  -0.295645349625 0.18065318  0.00151650  0.1323187   0.074405069
  4  -3323.9436604275  -0.106124418018 0.06578058  0.00063752  0.0347254   0.024236940
  5  -3324.0004222521  -0.056761824574 0.21752686  0.00063880  0.0252076   0.010223379
  6  -3324.0374754611  -0.037053209027 0.11195617  0.00088786  0.0375324   0.008128238
  7  -3324.0719216503  -0.034446189210 0.08324373  0.00026798  0.0070616   0.004992394
  8  -3324.0718373913   0.000084259000 0.02015700  0.00018836  0.0092050   0.006980581
  9  -3324.0774717165  -0.005634325224 0.04007814  0.00008498  0.0064787   0.003861014
 10  -3324.0786143371  -0.001142620549 0.02241385  0.00008531  0.0040619   0.001745526
 11  -3324.0791781485  -0.000563811426 0.01632282  0.00005004  0.0031046   0.001609864
 12  -3324.0794269563  -0.000248807766 0.00207910  0.00002444  0.0018868   0.001075996
 13  -3324.0794684962  -0.000041539946 0.00474140  0.00002800  0.0016902   0.000835247
 14  -3324.0795586582  -0.000090161966 0.00450712  0.00001667  0.0008595   0.000493865
 15  -3324.0795926648  -0.000034006643 0.00424144  0.00001270  0.0004703   0.000188596
 16  -3324.0795866177   0.000006047116 0.00522051  0.00001242  0.0004906   0.000396965
 17  -3324.0796046392  -0.000018021530 0.00137447  0.00000472  0.0003428   0.000131119
 18  -3324.0796067281  -0.000002088898 0.00189078  0.00001307  0.0003413   0.000108539
 19  -3324.0796107487  -0.000004020566 0.00082012  0.00000530  0.0002139   0.000132068
               *** Restarting incremental Fock matrix formation ***
                             ****Resetting KDIIS****
                          ***Energy convergence achieved***
                           ***RMSP convergence achieved***
 20  -3324.0796106306   0.000000118068 0.00022691  0.00000086  0.0002426   0.000086064
 21  -3324.0796114467  -0.000000816058 0.00037519  0.00000107  0.0002386   0.000053455
 22  -3324.0796120743  -0.000000627604 0.00063806  0.00000217  0.0002274   0.000044726
 23  -3324.0796130047  -0.000000930380 0.00403962  0.00001517  0.0002107   0.000032287
 24  -3324.0796148049  -0.000001800201 0.00044483  0.00000265  0.0000824   0.000047406
                          ***Energy convergence achieved***
 25  -3324.0796154110  -0.000000606175 0.00184862  0.00000438  0.0000390   0.000012632
                           ***RMSP convergence achieved***
 26  -3324.0796158065  -0.000000395490 0.00015559  0.00000090  0.0000441   0.000020509
 27  -3324.0796155526   0.000000253940 0.00031007  0.00000081  0.0000307   0.000005605
 28  -3324.0796157578  -0.000000205174 0.00029017  0.00000113  0.0000221   0.000005807
                           ***RMSP convergence achieved***

            ***Energy convergence in two consecutive cycles with***
                    ***'reasonable' density convergence***
                       *** signaling convergence ***

                    *** KDIIS BlockDiag ( 0.532 sec) ***

               *****************************************************
               *                     SUCCESS                       *
               *           SCF CONVERGED AFTER  29 CYCLES          *
               *****************************************************


----------------
TOTAL SCF ENERGY
----------------

Total Energy       :        -3324.07961552 Eh          -90452.80487 eV

Components:
Nuclear Repulsion  :         7090.32042434 Eh          192937.42750 eV
Electronic Energy  :       -10414.40003986 Eh         -283390.23237 eV
One Electron Energy:       -19570.87730942 Eh         -532550.64594 eV
Two Electron Energy:         9156.47726956 Eh          249160.41358 eV

Virial components:
Potential Energy   :        -5205.63535889 Eh         -141652.53959 eV
Kinetic Energy     :         1881.55574337 Eh           51199.73472 eV
Virial Ratio       :            2.76666550


DFT components:
N(Alpha)           :      166.999894079460 electrons
N(Beta)            :      161.999889717346 electrons
N(Total)           :      328.999783796805 electrons
E(X)               :     -243.709907994851 Eh       
E(C)               :      -14.386012259241 Eh       
E(XC)              :     -258.095920254092 Eh       
DFET-embed. en.    :        0.000000000000 Eh       

---------------
SCF CONVERGENCE
---------------

  Last Energy change         ...    2.3707e-07  Tolerance :   1.0000e-06
  Last MAX-Density change    ...    7.2393e-05  Tolerance :   1.0000e-05
  Last RMS-Density change    ...    3.4477e-07  Tolerance :   1.0000e-06

             **** THE GBW FILE WAS UPDATED (pbeSP.gbw) ****
             **** DENSITY pbeSP.scfp WAS UPDATED ****
             **** ENERGY FILE WAS UPDATED (pbeSP.en.tmp) ****
----------------------
UHF SPIN CONTAMINATION
----------------------

Warning: in a DFT calculation there is little theoretical justification to 
         calculate <S**2> as in Hartree-Fock theory. We will do it anyways
         but you should keep in mind that the values have only limited relevance

Expectation value of <S**2>     :     8.762037
Ideal value S*(S+1) for S=2.5   :     8.750000
Deviation                       :     0.012037

             **** THE GBW FILE WAS UPDATED (pbeSP.gbw) ****
             **** DENSITY pbeSP.scfp WAS UPDATED ****
----------------
ORBITAL ENERGIES
----------------
                 SPIN UP ORBITALS
  NO   OCC          E(Eh)            E(eV) 
   0   1.0000    -234.209210     -6373.1566 
   1   1.0000     -26.901986      -732.0402 
   2   1.0000     -23.050574      -627.2380 
   3   1.0000     -23.050073      -627.2244 
   4   1.0000     -23.050022      -627.2230 
   5   1.0000      -4.037867      -109.8760 
   6   1.0000      -4.037025      -109.8530 
   7   1.0000      -4.036573      -109.8407 
   8   1.0000      -4.035828      -109.8205 
   9   1.0000      -4.034839      -109.7936 
  10   1.0000      -4.034190      -109.7759 
  11   1.0000      -4.033483      -109.7566 
  12   1.0000      -4.033028      -109.7443 
  13   1.0000      -4.029914      -109.6595 
  14   1.0000      -4.029775      -109.6558 
  15   1.0000      -4.028660      -109.6254 
  16   1.0000      -4.028459      -109.6200 
  17   1.0000      -4.028234      -109.6138 
  18   1.0000      -4.027343      -109.5896 
  19   1.0000      -4.025390      -109.5364 
  20   1.0000      -4.023731      -109.4913 
  21   1.0000      -3.116094       -84.7932 
  22   1.0000      -2.253650       -61.3249 
  23   1.0000      -2.253448       -61.3194 
  24   1.0000      -2.252300       -61.2882 
  25   1.0000      -2.251711       -61.2722 
  26   1.0000      -2.250365       -61.2356 
  27   1.0000      -2.250018       -61.2261 
  28   1.0000      -2.249924       -61.2235 
  29   1.0000      -2.249262       -61.2055 
  30   1.0000      -2.248965       -61.1975 
  31   1.0000      -2.248849       -61.1943 
  32   1.0000      -2.248663       -61.1892 
  33   1.0000      -2.248422       -61.1827 
  34   1.0000      -2.248157       -61.1755 
  35   1.0000      -2.247980       -61.1706 
  36   1.0000      -2.247320       -61.1527 
  37   1.0000      -2.247028       -61.1447 
  38   1.0000      -2.246756       -61.1373 
  39   1.0000      -2.246660       -61.1347 
  40   1.0000      -2.246464       -61.1294 
  41   1.0000      -2.245903       -61.1141 
  42   1.0000      -2.245826       -61.1120 
  43   1.0000      -2.245482       -61.1027 
  44   1.0000      -2.245414       -61.1008 
  45   1.0000      -2.244993       -61.0894 
  46   1.0000      -2.244721       -61.0820 
  47   1.0000      -2.244506       -61.0761 
  48   1.0000      -2.242814       -61.0301 
  49   1.0000      -2.242577       -61.0236 
  50   1.0000      -2.242395       -61.0187 
  51   1.0000      -2.241929       -61.0060 
  52   1.0000      -2.241742       -61.0009 
  53   1.0000      -2.241558       -60.9959 
  54   1.0000      -2.241095       -60.9833 
  55   1.0000      -2.240828       -60.9760 
  56   1.0000      -2.240591       -60.9696 
  57   1.0000      -2.240249       -60.9603 
  58   1.0000      -2.240185       -60.9585 
  59   1.0000      -2.239394       -60.9370 
  60   1.0000      -2.239306       -60.9346 
  61   1.0000      -2.239190       -60.9315 
  62   1.0000      -2.239146       -60.9303 
  63   1.0000      -2.238830       -60.9217 
  64   1.0000      -2.238190       -60.9043 
  65   1.0000      -2.237632       -60.8891 
  66   1.0000      -2.237099       -60.8746 
  67   1.0000      -2.237044       -60.8731 
  68   1.0000      -2.236672       -60.8629 
  69   1.0000      -2.235513       -60.8314 
  70   1.0000      -2.019342       -54.9491 
  71   1.0000      -2.018661       -54.9306 
  72   1.0000      -2.018526       -54.9269 
  73   1.0000      -0.441398       -12.0111 
  74   1.0000      -0.397649       -10.8206 
  75   1.0000      -0.397338       -10.8121 
  76   1.0000      -0.393545       -10.7089 
  77   1.0000      -0.381352       -10.3771 
  78   1.0000      -0.379241       -10.3197 
  79   1.0000      -0.377644       -10.2762 
  80   1.0000      -0.375143       -10.2081 
  81   1.0000      -0.374737       -10.1971 
  82   1.0000      -0.372806       -10.1446 
  83   1.0000      -0.366206        -9.9650 
  84   1.0000      -0.364686        -9.9236 
  85   1.0000      -0.361054        -9.8248 
  86   1.0000      -0.359197        -9.7742 
  87   1.0000      -0.357800        -9.7362 
  88   1.0000      -0.355740        -9.6802 
  89   1.0000      -0.354753        -9.6533 
  90   1.0000      -0.353618        -9.6224 
  91   1.0000      -0.352746        -9.5987 
  92   1.0000      -0.351915        -9.5761 
  93   1.0000      -0.351763        -9.5720 
  94   1.0000      -0.349261        -9.5039 
  95   1.0000      -0.347655        -9.4602 
  96   1.0000      -0.347573        -9.4579 
  97   1.0000      -0.345708        -9.4072 
  98   1.0000      -0.341966        -9.3054 
  99   1.0000      -0.338479        -9.2105 
 100   1.0000      -0.337045        -9.1715 
 101   1.0000      -0.335301        -9.1240 
 102   1.0000      -0.333308        -9.0698 
 103   1.0000      -0.331581        -9.0228 
 104   1.0000      -0.327990        -8.9251 
 105   1.0000      -0.326537        -8.8855 
 106   1.0000      -0.323108        -8.7922 
 107   1.0000      -0.321879        -8.7588 
 108   1.0000      -0.318661        -8.6712 
 109   1.0000      -0.317809        -8.6480 
 110   1.0000      -0.314356        -8.5541 
 111   1.0000      -0.310106        -8.4384 
 112   1.0000      -0.308497        -8.3946 
 113   1.0000      -0.305164        -8.3039 
 114   1.0000      -0.302387        -8.2284 
 115   1.0000      -0.300394        -8.1741 
 116   1.0000      -0.297793        -8.1034 
 117   1.0000      -0.293689        -7.9917 
 118   1.0000      -0.291522        -7.9327 
 119   1.0000      -0.290083        -7.8936 
 120   1.0000      -0.287671        -7.8279 
 121   1.0000      -0.285951        -7.7811 
 122   1.0000      -0.284600        -7.7444 
 123   1.0000      -0.283539        -7.7155 
 124   1.0000      -0.281589        -7.6624 
 125   1.0000      -0.280846        -7.6422 
 126   1.0000      -0.279393        -7.6027 
 127   1.0000      -0.277599        -7.5538 
 128   1.0000      -0.277006        -7.5377 
 129   1.0000      -0.276416        -7.5217 
 130   1.0000      -0.275451        -7.4954 
 131   1.0000      -0.274026        -7.4566 
 132   1.0000      -0.273401        -7.4396 
 133   1.0000      -0.271172        -7.3790 
 134   1.0000      -0.270798        -7.3688 
 135   1.0000      -0.269852        -7.3431 
 136   1.0000      -0.269690        -7.3386 
 137   1.0000      -0.267789        -7.2869 
 138   1.0000      -0.265622        -7.2279 
 139   1.0000      -0.263674        -7.1749 
 140   1.0000      -0.263431        -7.1683 
 141   1.0000      -0.263110        -7.1596 
 142   1.0000      -0.261560        -7.1174 
 143   1.0000      -0.259598        -7.0640 
 144   1.0000      -0.258887        -7.0447 
 145   1.0000      -0.257484        -7.0065 
 146   1.0000      -0.256938        -6.9916 
 147   1.0000      -0.255901        -6.9634 
 148   1.0000      -0.255383        -6.9493 
 149   1.0000      -0.254033        -6.9126 
 150   1.0000      -0.253154        -6.8887 
 151   1.0000      -0.252312        -6.8658 
 152   1.0000      -0.251605        -6.8465 
 153   1.0000      -0.250019        -6.8034 
 154   1.0000      -0.249181        -6.7806 
 155   1.0000      -0.248614        -6.7651 
 156   1.0000      -0.247926        -6.7464 
 157   1.0000      -0.245954        -6.6928 
 158   1.0000      -0.243633        -6.6296 
 159   1.0000      -0.240016        -6.5312 
 160   1.0000      -0.238233        -6.4826 
 161   1.0000      -0.236204        -6.4274 
 162   1.0000      -0.223250        -6.0749 
 163   1.0000      -0.217967        -5.9312 
 164   1.0000      -0.210462        -5.7270 
 165   1.0000      -0.206397        -5.6164 
 166   1.0000      -0.202666        -5.5148 
 167   0.0000      -0.160402        -4.3648 
 168   0.0000      -0.142779        -3.8852 
 169   0.0000      -0.134475        -3.6593 
 170   0.0000      -0.132548        -3.6068 
 171   0.0000      -0.128051        -3.4844 
 172   0.0000      -0.125895        -3.4258 
 173   0.0000      -0.122626        -3.3368 
 174   0.0000      -0.111764        -3.0413 
 175   0.0000      -0.087677        -2.3858 
 176   0.0000      -0.081803        -2.2260 
 177   0.0000      -0.080625        -2.1939 
 178   0.0000      -0.047753        -1.2994 
 179   0.0000      -0.047059        -1.2805 
 180   0.0000      -0.032998        -0.8979 
 181   0.0000      -0.032162        -0.8752 
 182   0.0000      -0.028189        -0.7670 
 183   0.0000      -0.020705        -0.5634 
 184   0.0000      -0.017039        -0.4636 
 185   0.0000      -0.012689        -0.3453 
 186   0.0000      -0.007685        -0.2091 
 187   0.0000      -0.005671        -0.1543 
 188   0.0000      -0.003562        -0.0969 
 189   0.0000       0.017290         0.4705 
 190   0.0000       0.018838         0.5126 
 191   0.0000       0.023891         0.6501 
 192   0.0000       0.027185         0.7397 
 193   0.0000       0.043405         1.1811 
 194   0.0000       0.055631         1.5138 
 195   0.0000       0.057435         1.5629 
 196   0.0000       0.060243         1.6393 
 197   0.0000       0.061657         1.6778 
 198   0.0000       0.062850         1.7102 
 199   0.0000       0.064257         1.7485 
 200   0.0000       0.067693         1.8420 
 201   0.0000       0.068294         1.8584 
 202   0.0000       0.069762         1.8983 
 203   0.0000       0.071769         1.9529 
 204   0.0000       0.073618         2.0033 
 205   0.0000       0.075436         2.0527 
 206   0.0000       0.077563         2.1106 
 207   0.0000       0.082150         2.2354 
 208   0.0000       0.083472         2.2714 
 209   0.0000       0.093158         2.5350 
 210   0.0000       0.099482         2.7071 
 211   0.0000       0.103689         2.8215 
 212   0.0000       0.109905         2.9907 
 213   0.0000       0.115963         3.1555 
 214   0.0000       0.129836         3.5330 
 215   0.0000       0.132185         3.5969 
 216   0.0000       0.136251         3.7076 
 217   0.0000       0.139067         3.7842 
 218   0.0000       0.146353         3.9825 
 219   0.0000       0.148333         4.0364 
 220   0.0000       0.149927         4.0797 
 221   0.0000       0.153241         4.1699 
 222   0.0000       0.155091         4.2202 
 223   0.0000       0.156774         4.2660 
 224   0.0000       0.158626         4.3164 
 225   0.0000       0.160490         4.3672 
 226   0.0000       0.162205         4.4138 
 227   0.0000       0.164109         4.4656 
 228   0.0000       0.166115         4.5202 
 229   0.0000       0.170516         4.6400 
 230   0.0000       0.175658         4.7799 
 231   0.0000       0.180381         4.9084 
 232   0.0000       0.195225         5.3123 
 233   0.0000       0.199388         5.4256 
 234   0.0000       0.203934         5.5493 
 235   0.0000       0.207500         5.6464 
 236   0.0000       0.210574         5.7300 
 237   0.0000       0.213329         5.8050 
 238   0.0000       0.218518         5.9462 
 239   0.0000       0.221125         6.0171 
 240   0.0000       0.228392         6.2149 
 241   0.0000       0.230742         6.2788 
 242   0.0000       0.235295         6.4027 
 243   0.0000       0.239927         6.5287 
 244   0.0000       0.246719         6.7136 
 245   0.0000       0.249630         6.7928 
 246   0.0000       0.250264         6.8100 
 247   0.0000       0.254910         6.9364 
 248   0.0000       0.260027         7.0757 
 249   0.0000       0.263149         7.1606 
 250   0.0000       0.263849         7.1797 
 251   0.0000       0.268033         7.2935 
 252   0.0000       0.275399         7.4940 
 253   0.0000       0.278888         7.5889 
 254   0.0000       0.283136         7.7045 
 255   0.0000       0.289272         7.8715 
 256   0.0000       0.291752         7.9390 
 257   0.0000       0.296556         8.0697 
 258   0.0000       0.300668         8.1816 
 259   0.0000       0.306416         8.3380 
 260   0.0000       0.310404         8.4465 
 261   0.0000       0.312715         8.5094 
 262   0.0000       0.316714         8.6182 
 263   0.0000       0.322349         8.7716 
 264   0.0000       0.325992         8.8707 
 265   0.0000       0.327292         8.9061 
 266   0.0000       0.331505         9.0207 
 267   0.0000       0.338287         9.2053 
 268   0.0000       0.338504         9.2112 
 269   0.0000       0.340293         9.2598 
 270   0.0000       0.343171         9.3382 
 271   0.0000       0.355602         9.6764 
 272   0.0000       0.357038         9.7155 
 273   0.0000       0.362528         9.8649 
 274   0.0000       0.370637        10.0855 
 275   0.0000       0.378798        10.3076 
 276   0.0000       0.380962        10.3665 
 277   0.0000       0.383209        10.4277 
 278   0.0000       0.388717        10.5775 
 279   0.0000       0.390374        10.6226 
 280   0.0000       0.395930        10.7738 
 281   0.0000       0.397610        10.8195 
 282   0.0000       0.405768        11.0415 
 283   0.0000       0.406422        11.0593 
 284   0.0000       0.408187        11.1073 
 285   0.0000       0.411460        11.1964 
 286   0.0000       0.414313        11.2740 
 287   0.0000       0.418291        11.3823 
 288   0.0000       0.425478        11.5779 
 289   0.0000       0.433412        11.7937 
 290   0.0000       0.437048        11.8927 
 291   0.0000       0.438120        11.9218 
 292   0.0000       0.441168        12.0048 
 293   0.0000       0.447848        12.1866 
 294   0.0000       0.453723        12.3464 
 295   0.0000       0.457885        12.4597 
 296   0.0000       0.461567        12.5599 
 297   0.0000       0.466724        12.7002 
 298   0.0000       0.468116        12.7381 
 299   0.0000       0.472133        12.8474 
 300   0.0000       0.476004        12.9527 
 301   0.0000       0.478014        13.0074 
 302   0.0000       0.479755        13.0548 
 303   0.0000       0.482818        13.1381 
 304   0.0000       0.487548        13.2668 
 305   0.0000       0.493287        13.4230 
 306   0.0000       0.494617        13.4592 
 307   0.0000       0.497614        13.5408 
 308   0.0000       0.502164        13.6646 
 309   0.0000       0.503942        13.7129 
 310   0.0000       0.505488        13.7550 
 311   0.0000       0.506930        13.7943 
 312   0.0000       0.512208        13.9379 
 313   0.0000       0.522150        14.2084 
 314   0.0000       0.522564        14.2197 
 315   0.0000       0.529549        14.4098 
 316   0.0000       0.531592        14.4653 
 317   0.0000       0.536784        14.6066 
 318   0.0000       0.541933        14.7467 
 319   0.0000       0.548465        14.9245 
 320   0.0000       0.550669        14.9845 
 321   0.0000       0.553395        15.0586 
 322   0.0000       0.559066        15.2130 
 323   0.0000       0.559480        15.2242 
 324   0.0000       0.577958        15.7270 
 325   0.0000       0.583767        15.8851 
 326   0.0000       0.589712        16.0469 
 327   0.0000       0.606494        16.5035 
 328   0.0000       0.655619        17.8403 
 329   0.0000       0.659676        17.9507 
 330   0.0000       0.668515        18.1912 
 331   0.0000       0.677137        18.4258 
 332   0.0000       0.684680        18.6311 
 333   0.0000       0.697083        18.9686 
 334   0.0000       0.697960        18.9924 
 335   0.0000       0.709008        19.2931 
 336   0.0000       0.715948        19.4819 
 337   0.0000       0.724203        19.7066 
 338   0.0000       0.725332        19.7373 
 339   0.0000       0.729935        19.8626 
 340   0.0000       0.735635        20.0176 
 341   0.0000       0.744738        20.2654 
 342   0.0000       0.757655        20.6168 
 343   0.0000       0.760201        20.6861 
 344   0.0000       0.771684        20.9986 
 345   0.0000       0.778612        21.1871 
 346   0.0000       0.783061        21.3082 
 347   0.0000       0.793816        21.6008 
 348   0.0000       0.802548        21.8384 
 349   0.0000       0.808587        22.0028 
 350   0.0000       0.815868        22.2009 
 351   0.0000       0.821501        22.3542 
 352   0.0000       0.831939        22.6382 
 353   0.0000       0.836263        22.7559 
 354   0.0000       0.844450        22.9786 
 355   0.0000       0.849229        23.1087 
 356   0.0000       0.852751        23.2045 
 357   0.0000       0.862095        23.4588 
 358   0.0000       0.863959        23.5095 
 359   0.0000       0.871198        23.7065 
 360   0.0000       0.878200        23.8970 
 361   0.0000       0.881874        23.9970 
 362   0.0000       0.892754        24.2931 
 363   0.0000       0.901842        24.5404 
 364   0.0000       0.903805        24.5938 
 365   0.0000       0.913400        24.8549 
 366   0.0000       0.920713        25.0539 
 367   0.0000       0.934431        25.4272 
 368   0.0000       0.937278        25.5046 
 369   0.0000       0.944431        25.6993 
 370   0.0000       0.957634        26.0586 
 371   0.0000       0.962472        26.1902 
 372   0.0000       0.973797        26.4984 
 373   0.0000       1.021723        27.8025 
 374   0.0000       1.039318        28.2813 
 375   0.0000       1.072998        29.1978 
 376   0.0000       1.127852        30.6904 
 377   0.0000       1.136446        30.9243 
 378   0.0000       1.173872        31.9427 
 379   0.0000       1.181747        32.1570 
 380   0.0000       1.206753        32.8374 
 381   0.0000       1.213543        33.0222 
 382   0.0000       1.219841        33.1936 
 383   0.0000       1.233892        33.5759 
 384   0.0000       1.238570        33.7032 
 385   0.0000       1.244270        33.8583 
 386   0.0000       1.246525        33.9197 
 387   0.0000       1.252263        34.0758 
 388   0.0000       1.265978        34.4490 
 389   0.0000       1.271722        34.6053 
 390   0.0000       1.276975        34.7483 
 391   0.0000       1.282628        34.9021 
 392   0.0000       1.290169        35.1073 
 393   0.0000       1.300543        35.3896 
 394   0.0000       1.311332        35.6832 
 395   0.0000       1.314595        35.7720 
 396   0.0000       1.317263        35.8446 
 397   0.0000       1.328070        36.1386 
 398   0.0000       1.329881        36.1879 
 399   0.0000       1.331702        36.2375 
 400   0.0000       1.340142        36.4671 
 401   0.0000       1.347679        36.6722 
 402   0.0000       1.352858        36.8131 
 403   0.0000       1.361299        37.0428 
 404   0.0000       1.368982        37.2519 
 405   0.0000       1.377238        37.4766 
 406   0.0000       1.380983        37.5785 
 407   0.0000       1.387139        37.7460 
 408   0.0000       1.397169        38.0189 
 409   0.0000       1.400454        38.1083 
 410   0.0000       1.401602        38.1395 
 411   0.0000       1.406087        38.2616 
 412   0.0000       1.411721        38.4149 
 413   0.0000       1.414734        38.4969 
 414   0.0000       1.417771        38.5795 
 415   0.0000       1.419960        38.6391 
 416   0.0000       1.421839        38.6902 
 417   0.0000       1.425115        38.7793 
 418   0.0000       1.426756        38.8240 
 419   0.0000       1.431648        38.9571 
 420   0.0000       1.434190        39.0263 
 421   0.0000       1.437438        39.1147 
 422   0.0000       1.439393        39.1679 
 423   0.0000       1.443330        39.2750 
 424   0.0000       1.445621        39.3373 
 425   0.0000       1.448588        39.4181 
 426   0.0000       1.449754        39.4498 
 427   0.0000       1.451282        39.4914 
 428   0.0000       1.454008        39.5656 
 429   0.0000       1.458081        39.6764 
 430   0.0000       1.462817        39.8053 
 431   0.0000       1.466271        39.8993 
 432   0.0000       1.469753        39.9940 
 433   0.0000       1.470111        40.0037 
 434   0.0000       1.471575        40.0436 
 435   0.0000       1.473394        40.0931 
 436   0.0000       1.476483        40.1772 
 437   0.0000       1.479417        40.2570 
 438   0.0000       1.481006        40.3002 
 439   0.0000       1.482671        40.3455 
 440   0.0000       1.484375        40.3919 
 441   0.0000       1.485413        40.4201 
 442   0.0000       1.486565        40.4515 
 443   0.0000       1.488816        40.5127 
 444   0.0000       1.490353        40.5546 
 445   0.0000       1.491434        40.5840 
 446   0.0000       1.493650        40.6443 
 447   0.0000       1.494403        40.6648 
 448   0.0000       1.495889        40.7052 
 449   0.0000       1.497530        40.7499 
 450   0.0000       1.499489        40.8032 
 451   0.0000       1.500154        40.8213 
 452   0.0000       1.501083        40.8465 
 453   0.0000       1.501638        40.8616 
 454   0.0000       1.502997        40.8986 
 455   0.0000       1.504513        40.9399 
 456   0.0000       1.506489        40.9936 
 457   0.0000       1.507139        41.0113 
 458   0.0000       1.508869        41.0584 
 459   0.0000       1.509141        41.0658 
 460   0.0000       1.509634        41.0792 
 461   0.0000       1.510329        41.0981 
 462   0.0000       1.511759        41.1371 
 463   0.0000       1.513175        41.1756 
 464   0.0000       1.513462        41.1834 
 465   0.0000       1.515992        41.2522 
 466   0.0000       1.516768        41.2734 
 467   0.0000       1.517615        41.2964 
 468   0.0000       1.519327        41.3430 
 469   0.0000       1.520095        41.3639 
 470   0.0000       1.521533        41.4030 
 471   0.0000       1.521941        41.4141 
 472   0.0000       1.525762        41.5181 
 473   0.0000       1.526174        41.5293 
 474   0.0000       1.527722        41.5714 
 475   0.0000       1.528495        41.5925 
 476   0.0000       1.530815        41.6556 
 477   0.0000       1.533047        41.7163 
 478   0.0000       1.535410        41.7806 
 479   0.0000       1.536033        41.7976 
 480   0.0000       1.540272        41.9129 
 481   0.0000       1.541722        41.9524 
 482   0.0000       1.547405        42.1070 
 483   0.0000       1.550024        42.1783 
 484   0.0000       1.551297        42.2129 
 485   0.0000       1.554613        42.3032 
 486   0.0000       1.555325        42.3226 
 487   0.0000       1.557039        42.3692 
 488   0.0000       1.558027        42.3961 
 489   0.0000       1.560814        42.4719 
 490   0.0000       1.562319        42.5129 
 491   0.0000       1.563297        42.5395 
 492   0.0000       1.568072        42.6694 
 493   0.0000       1.569149        42.6987 
 494   0.0000       1.570778        42.7430 
 495   0.0000       1.573068        42.8054 
 496   0.0000       1.575090        42.8604 
 497   0.0000       1.578051        42.9409 
 498   0.0000       1.580998        43.0211 
 499   0.0000       1.583543        43.0904 
 500   0.0000       1.584412        43.1140 
 501   0.0000       1.586997        43.1844 
 502   0.0000       1.589490        43.2522 
 503   0.0000       1.590201        43.2716 
 504   0.0000       1.595639        43.4195 
 505   0.0000       1.597252        43.4634 
 506   0.0000       1.598990        43.5107 
 507   0.0000       1.600381        43.5486 
 508   0.0000       1.602254        43.5995 
 509   0.0000       1.604856        43.6704 
 510   0.0000       1.606357        43.7112 
 511   0.0000       1.609485        43.7963 
 512   0.0000       1.610443        43.8224 
 513   0.0000       1.615307        43.9547 
 514   0.0000       1.619925        44.0804 
 515   0.0000       1.621906        44.1343 
 516   0.0000       1.625439        44.2304 
 517   0.0000       1.627391        44.2836 
 518   0.0000       1.629843        44.3503 
 519   0.0000       1.630807        44.3765 
 520   0.0000       1.636091        44.5203 
 521   0.0000       1.639154        44.6037 
 522   0.0000       1.642520        44.6952 
 523   0.0000       1.645081        44.7649 
 524   0.0000       1.650231        44.9051 
 525   0.0000       1.653956        45.0064 
 526   0.0000       1.658516        45.1305 
 527   0.0000       1.665458        45.3194 
 528   0.0000       1.674120        45.5551 
 529   0.0000       1.677074        45.6355 
 530   0.0000       1.681974        45.7688 
 531   0.0000       1.688111        45.9358 
 532   0.0000       1.696399        46.1614 
 533   0.0000       1.701684        46.3052 
 534   0.0000       1.708156        46.4813 
 535   0.0000       1.712151        46.5900 
 536   0.0000       1.723924        46.9104 
 537   0.0000       1.728123        47.0246 
 538   0.0000       1.733308        47.1657 
 539   0.0000       1.740492        47.3612 
 540   0.0000       1.743638        47.4468 
 541   0.0000       1.746070        47.5130 
 542   0.0000       1.756462        47.7958 
 543   0.0000       1.765769        48.0490 
 544   0.0000       1.770989        48.1910 
 545   0.0000       1.774606        48.2895 
 546   0.0000       1.777032        48.3555 
 547   0.0000       1.780363        48.4461 
 548   0.0000       1.783773        48.5389 
 549   0.0000       1.793098        48.7927 
 550   0.0000       1.795854        48.8677 
 551   0.0000       1.803410        49.0733 
 552   0.0000       1.810498        49.2661 
 553   0.0000       1.815222        49.3947 
 554   0.0000       1.817101        49.4458 
 555   0.0000       1.820969        49.5511 
 556   0.0000       1.828840        49.7653 
 557   0.0000       1.833147        49.8825 
 558   0.0000       1.845526        50.2193 
 559   0.0000       1.856484        50.5175 
 560   0.0000       1.859185        50.5910 
 561   0.0000       1.864393        50.7327 
 562   0.0000       1.867684        50.8223 
 563   0.0000       1.872484        50.9529 
 564   0.0000       1.886598        51.3370 
 565   0.0000       1.901786        51.7502 
 566   0.0000       1.918079        52.1936 
 567   0.0000       1.928210        52.4693 
 568   0.0000       1.964630        53.4603 
 569   0.0000       2.010422        54.7064 
 570   0.0000       2.080321        56.6084 
 571   0.0000       2.111613        57.4599 
 572   0.0000       2.141093        58.2621 
 573   0.0000       2.186009        59.4843 
 574   0.0000       2.228979        60.6536 
 575   0.0000       2.244890        61.0866 
 576   0.0000       2.275650        61.9236 
 577   0.0000       2.345723        63.8304 
 578   0.0000       2.363750        64.3209 
 579   0.0000       2.378776        64.7298 
 580   0.0000       2.404610        65.4328 
 581   0.0000       2.444222        66.5107 
 582   0.0000       2.452662        66.7403 
 583   0.0000       2.455296        66.8120 
 584   0.0000       2.477497        67.4161 
 585   0.0000       2.500525        68.0428 
 586   0.0000       2.504942        68.1629 
 587   0.0000       2.514514        68.4234 
 588   0.0000       2.523371        68.6644 
 589   0.0000       2.536119        69.0113 
 590   0.0000       2.554740        69.5180 
 591   0.0000       2.567777        69.8728 
 592   0.0000       3.202976        87.1574 
 593   0.0000       3.242066        88.2211 
 594   0.0000       3.243155        88.2507 
 595   0.0000       3.245886        88.3251 
 596   0.0000       3.249299        88.4179 
 597   0.0000       3.250880        88.4609 
 598   0.0000       3.253330        88.5276 
 599   0.0000       3.259674        88.7002 
 600   0.0000       3.404250        92.6344 
 601   0.0000       3.454315        93.9967 
 602   0.0000       3.490740        94.9879 
 603   0.0000       3.501695        95.2860 
 604   0.0000       3.537219        96.2526 
 605   0.0000      24.007726       653.2834 
 606   0.0000      24.178728       657.9366 
 607   0.0000      24.231634       659.3763 
 608   0.0000      24.334985       662.1886 
 609   0.0000      24.530451       667.5075 
 610   0.0000      24.602972       669.4809 
 611   0.0000      24.639458       670.4737 
 612   0.0000      24.769280       674.0064 
 613   0.0000      24.866315       676.6468 
 614   0.0000      25.008705       680.5215 
 615   0.0000      25.188455       685.4127 
 616   0.0000      25.337577       689.4705 
 617   0.0000      25.374610       690.4782 
 618   0.0000      25.437750       692.1964 
 619   0.0000      25.619585       697.1443 
 620   0.0000      25.682279       698.8503 
 621   0.0000      25.764673       701.0924 
 622   0.0000      25.893053       704.5858 
 623   0.0000      25.964599       706.5327 
 624   0.0000      25.985918       707.1128 
 625   0.0000      26.055749       709.0130 
 626   0.0000      26.094666       710.0719 
 627   0.0000      26.167285       712.0480 
 628   0.0000      26.241233       714.0603 
 629   0.0000      26.307272       715.8573 
 630   0.0000      26.391916       718.1606 
 631   0.0000      26.409579       718.6412 
 632   0.0000      26.485562       720.7088 
 633   0.0000      26.563909       722.8407 
 634   0.0000      26.647273       725.1092 
 635   0.0000      26.719405       727.0720 
 636   0.0000      26.797199       729.1889 
 637   0.0000      26.914730       732.3870 
 638   0.0000      27.020367       735.2616 
 639   0.0000      27.033628       735.6224 
 640   0.0000      27.210017       740.4222 
 641   0.0000      27.519155       748.8343 
 642   0.0000      27.636217       752.0197 
 643   0.0000      27.739455       754.8290 
 644   0.0000      27.934026       760.1235 
 645   0.0000      27.945911       760.4469 
 646   0.0000      28.210450       767.6454 
 647   0.0000      28.241452       768.4890 
 648   0.0000      28.789433       783.4003 
 649   0.0000      29.497256       802.6612 
 650   0.0000      30.061342       818.0107 
 651   0.0000      30.236337       822.7725 
 652   0.0000      31.680423       862.0681 
 653   0.0000      43.911342      1194.8884 
 654   0.0000      44.033034      1198.1998 
 655   0.0000      44.059653      1198.9241 
 656   0.0000      44.067082      1199.1263 
 657   0.0000      44.118097      1200.5144 
 658   0.0000      44.151279      1201.4174 
 659   0.0000      44.158037      1201.6013 
 660   0.0000      44.161385      1201.6924 
 661   0.0000      44.165315      1201.7993 
 662   0.0000      44.170183      1201.9318 
 663   0.0000      44.174927      1202.0609 
 664   0.0000      44.191012      1202.4986 
 665   0.0000      44.199491      1202.7293 
 666   0.0000      44.226687      1203.4693 
 667   0.0000      44.234055      1203.6698 
 668   0.0000      44.259362      1204.3585 
 669   0.0000     205.089500      5580.7690 
 670   0.0000     205.141901      5582.1949 
 671   0.0000     205.150486      5582.4285 
 672   0.0000     205.152719      5582.4893 
 673   0.0000     205.178022      5583.1778 
 674   0.0000     205.192883      5583.5822 
 675   0.0000     205.195486      5583.6530 
 676   0.0000     205.197487      5583.7075 
 677   0.0000     205.198507      5583.7353 
 678   0.0000     205.200414      5583.7871 
 679   0.0000     205.203293      5583.8655 
 680   0.0000     205.207755      5583.9869 
 681   0.0000     205.210758      5584.0686 
 682   0.0000     205.222405      5584.3856 
 683   0.0000     205.225740      5584.4763 
 684   0.0000     205.234541      5584.7158 

                 SPIN DOWN ORBITALS
  NO   OCC          E(Eh)            E(eV) 
   0   1.0000    -234.208511     -6373.1376 
   1   1.0000     -26.832657      -730.1537 
   2   1.0000     -22.997915      -625.8051 
   3   1.0000     -22.997477      -625.7932 
   4   1.0000     -22.997402      -625.7911 
   5   1.0000      -4.037146      -109.8563 
   6   1.0000      -4.036372      -109.8353 
   7   1.0000      -4.035762      -109.8187 
   8   1.0000      -4.035117      -109.8011 
   9   1.0000      -4.034518      -109.7848 
  10   1.0000      -4.033923      -109.7686 
  11   1.0000      -4.032819      -109.7386 
  12   1.0000      -4.032247      -109.7230 
  13   1.0000      -4.029763      -109.6554 
  14   1.0000      -4.029232      -109.6410 
  15   1.0000      -4.028452      -109.6197 
  16   1.0000      -4.028155      -109.6117 
  17   1.0000      -4.028137      -109.6112 
  18   1.0000      -4.027201      -109.5857 
  19   1.0000      -4.025339      -109.5350 
  20   1.0000      -4.023699      -109.4904 
  21   1.0000      -2.945443       -80.1496 
  22   1.0000      -2.252999       -61.3072 
  23   1.0000      -2.252763       -61.3008 
  24   1.0000      -2.251484       -61.2660 
  25   1.0000      -2.250986       -61.2524 
  26   1.0000      -2.249616       -61.2152 
  27   1.0000      -2.249489       -61.2117 
  28   1.0000      -2.249273       -61.2058 
  29   1.0000      -2.248841       -61.1941 
  30   1.0000      -2.248400       -61.1821 
  31   1.0000      -2.248317       -61.1798 
  32   1.0000      -2.247863       -61.1675 
  33   1.0000      -2.247722       -61.1636 
  34   1.0000      -2.247418       -61.1554 
  35   1.0000      -2.247305       -61.1523 
  36   1.0000      -2.246567       -61.1322 
  37   1.0000      -2.246468       -61.1295 
  38   1.0000      -2.246335       -61.1259 
  39   1.0000      -2.246216       -61.1227 
  40   1.0000      -2.245991       -61.1165 
  41   1.0000      -2.245571       -61.1051 
  42   1.0000      -2.245220       -61.0955 
  43   1.0000      -2.244808       -61.0843 
  44   1.0000      -2.244566       -61.0777 
  45   1.0000      -2.244499       -61.0759 
  46   1.0000      -2.244305       -61.0706 
  47   1.0000      -2.243926       -61.0603 
  48   1.0000      -2.242517       -61.0220 
  49   1.0000      -2.242111       -61.0109 
  50   1.0000      -2.241777       -61.0019 
  51   1.0000      -2.241651       -60.9984 
  52   1.0000      -2.241516       -60.9948 
  53   1.0000      -2.241335       -60.9898 
  54   1.0000      -2.240758       -60.9741 
  55   1.0000      -2.240517       -60.9676 
  56   1.0000      -2.240175       -60.9583 
  57   1.0000      -2.240095       -60.9561 
  58   1.0000      -2.239940       -60.9519 
  59   1.0000      -2.239199       -60.9317 
  60   1.0000      -2.239141       -60.9301 
  61   1.0000      -2.239043       -60.9275 
  62   1.0000      -2.238797       -60.9208 
  63   1.0000      -2.238720       -60.9187 
  64   1.0000      -2.238051       -60.9005 
  65   1.0000      -2.237525       -60.8861 
  66   1.0000      -2.237036       -60.8728 
  67   1.0000      -2.236983       -60.8714 
  68   1.0000      -2.236624       -60.8616 
  69   1.0000      -2.235473       -60.8303 
  70   1.0000      -1.851644       -50.3858 
  71   1.0000      -1.851125       -50.3717 
  72   1.0000      -1.850912       -50.3659 
  73   1.0000      -0.434888       -11.8339 
  74   1.0000      -0.396084       -10.7780 
  75   1.0000      -0.395656       -10.7664 
  76   1.0000      -0.392285       -10.6746 
  77   1.0000      -0.377124       -10.2621 
  78   1.0000      -0.374175       -10.1818 
  79   1.0000      -0.371678       -10.1139 
  80   1.0000      -0.370892       -10.0925 
  81   1.0000      -0.369685       -10.0596 
  82   1.0000      -0.368873       -10.0376 
  83   1.0000      -0.364147        -9.9089 
  84   1.0000      -0.363770        -9.8987 
  85   1.0000      -0.358628        -9.7588 
  86   1.0000      -0.357637        -9.7318 
  87   1.0000      -0.356790        -9.7087 
  88   1.0000      -0.354763        -9.6536 
  89   1.0000      -0.353918        -9.6306 
  90   1.0000      -0.352300        -9.5866 
  91   1.0000      -0.351548        -9.5661 
  92   1.0000      -0.351108        -9.5541 
  93   1.0000      -0.349946        -9.5225 
  94   1.0000      -0.347948        -9.4681 
  95   1.0000      -0.346492        -9.4285 
  96   1.0000      -0.345357        -9.3976 
  97   1.0000      -0.344461        -9.3733 
  98   1.0000      -0.340330        -9.2608 
  99   1.0000      -0.337216        -9.1761 
 100   1.0000      -0.335430        -9.1275 
 101   1.0000      -0.333641        -9.0788 
 102   1.0000      -0.331975        -9.0335 
 103   1.0000      -0.329506        -8.9663 
 104   1.0000      -0.325761        -8.8644 
 105   1.0000      -0.323590        -8.8053 
 106   1.0000      -0.320601        -8.7240 
 107   1.0000      -0.318005        -8.6534 
 108   1.0000      -0.316749        -8.6192 
 109   1.0000      -0.315633        -8.5888 
 110   1.0000      -0.307751        -8.3743 
 111   1.0000      -0.306086        -8.3290 
 112   1.0000      -0.302372        -8.2280 
 113   1.0000      -0.301224        -8.1967 
 114   1.0000      -0.299452        -8.1485 
 115   1.0000      -0.296950        -8.0804 
 116   1.0000      -0.291294        -7.9265 
 117   1.0000      -0.290848        -7.9144 
 118   1.0000      -0.289335        -7.8732 
 119   1.0000      -0.286972        -7.8089 
 120   1.0000      -0.284609        -7.7446 
 121   1.0000      -0.283643        -7.7183 
 122   1.0000      -0.282691        -7.6924 
 123   1.0000      -0.280886        -7.6433 
 124   1.0000      -0.279797        -7.6137 
 125   1.0000      -0.277482        -7.5507 
 126   1.0000      -0.277042        -7.5387 
 127   1.0000      -0.276289        -7.5182 
 128   1.0000      -0.275717        -7.5026 
 129   1.0000      -0.274726        -7.4757 
 130   1.0000      -0.273987        -7.4556 
 131   1.0000      -0.273240        -7.4352 
 132   1.0000      -0.272026        -7.4022 
 133   1.0000      -0.269839        -7.3427 
 134   1.0000      -0.269231        -7.3261 
 135   1.0000      -0.268393        -7.3034 
 136   1.0000      -0.267351        -7.2750 
 137   1.0000      -0.266116        -7.2414 
 138   1.0000      -0.264358        -7.1935 
 139   1.0000      -0.262604        -7.1458 
 140   1.0000      -0.262061        -7.1310 
 141   1.0000      -0.258857        -7.0439 
 142   1.0000      -0.257031        -6.9942 
 143   1.0000      -0.256212        -6.9719 
 144   1.0000      -0.255472        -6.9517 
 145   1.0000      -0.255102        -6.9417 
 146   1.0000      -0.254451        -6.9240 
 147   1.0000      -0.252548        -6.8722 
 148   1.0000      -0.250812        -6.8249 
 149   1.0000      -0.249358        -6.7854 
 150   1.0000      -0.249123        -6.7790 
 151   1.0000      -0.248152        -6.7526 
 152   1.0000      -0.246654        -6.7118 
 153   1.0000      -0.243386        -6.6229 
 154   1.0000      -0.239838        -6.5263 
 155   1.0000      -0.238377        -6.4866 
 156   1.0000      -0.236304        -6.4302 
 157   1.0000      -0.226048        -6.1511 
 158   1.0000      -0.222307        -6.0493 
 159   1.0000      -0.217462        -5.9174 
 160   1.0000      -0.213818        -5.8183 
 161   1.0000      -0.210802        -5.7362 
 162   0.0000      -0.156921        -4.2700 
 163   0.0000      -0.143750        -3.9116 
 164   0.0000      -0.136689        -3.7195 
 165   0.0000      -0.135260        -3.6806 
 166   0.0000      -0.132956        -3.6179 
 167   0.0000      -0.131559        -3.5799 
 168   0.0000      -0.130508        -3.5513 
 169   0.0000      -0.129477        -3.5233 
 170   0.0000      -0.126030        -3.4294 
 171   0.0000      -0.124746        -3.3945 
 172   0.0000      -0.122183        -3.3248 
 173   0.0000      -0.117458        -3.1962 
 174   0.0000      -0.106622        -2.9013 
 175   0.0000      -0.082746        -2.2516 
 176   0.0000      -0.076440        -2.0800 
 177   0.0000      -0.075794        -2.0625 
 178   0.0000      -0.046492        -1.2651 
 179   0.0000      -0.043905        -1.1947 
 180   0.0000      -0.029929        -0.8144 
 181   0.0000      -0.029012        -0.7895 
 182   0.0000      -0.026414        -0.7188 
 183   0.0000      -0.015628        -0.4253 
 184   0.0000      -0.010943        -0.2978 
 185   0.0000      -0.008136        -0.2214 
 186   0.0000      -0.003583        -0.0975 
 187   0.0000      -0.001528        -0.0416 
 188   0.0000       0.000284         0.0077 
 189   0.0000       0.022519         0.6128 
 190   0.0000       0.025075         0.6823 
 191   0.0000       0.029445         0.8012 
 192   0.0000       0.031767         0.8644 
 193   0.0000       0.046250         1.2585 
 194   0.0000       0.058016         1.5787 
 195   0.0000       0.059150         1.6096 
 196   0.0000       0.062029         1.6879 
 197   0.0000       0.064483         1.7547 
 198   0.0000       0.065204         1.7743 
 199   0.0000       0.066116         1.7991 
 200   0.0000       0.069158         1.8819 
 201   0.0000       0.069922         1.9027 
 202   0.0000       0.071855         1.9553 
 203   0.0000       0.073779         2.0076 
 204   0.0000       0.076042         2.0692 
 205   0.0000       0.078879         2.1464 
 206   0.0000       0.080479         2.1900 
 207   0.0000       0.084394         2.2965 
 208   0.0000       0.087767         2.3883 
 209   0.0000       0.096808         2.6343 
 210   0.0000       0.101038         2.7494 
 211   0.0000       0.104919         2.8550 
 212   0.0000       0.111766         3.0413 
 213   0.0000       0.118630         3.2281 
 214   0.0000       0.134279         3.6539 
 215   0.0000       0.138123         3.7585 
 216   0.0000       0.143871         3.9149 
 217   0.0000       0.148882         4.0513 
 218   0.0000       0.150287         4.0895 
 219   0.0000       0.152586         4.1521 
 220   0.0000       0.153787         4.1847 
 221   0.0000       0.156936         4.2704 
 222   0.0000       0.158878         4.3233 
 223   0.0000       0.161140         4.3848 
 224   0.0000       0.161709         4.4003 
 225   0.0000       0.164547         4.4776 
 226   0.0000       0.166322         4.5258 
 227   0.0000       0.167568         4.5597 
 228   0.0000       0.168722         4.5912 
 229   0.0000       0.177417         4.8278 
 230   0.0000       0.181195         4.9306 
 231   0.0000       0.183568         4.9951 
 232   0.0000       0.196258         5.3404 
 233   0.0000       0.200600         5.4586 
 234   0.0000       0.204993         5.5781 
 235   0.0000       0.208858         5.6833 
 236   0.0000       0.213149         5.8001 
 237   0.0000       0.215621         5.8674 
 238   0.0000       0.220385         5.9970 
 239   0.0000       0.221996         6.0408 
 240   0.0000       0.229552         6.2464 
 241   0.0000       0.233359         6.3500 
 242   0.0000       0.236969         6.4482 
 243   0.0000       0.240989         6.5576 
 244   0.0000       0.247898         6.7457 
 245   0.0000       0.250823         6.8252 
 246   0.0000       0.251419         6.8414 
 247   0.0000       0.256761         6.9868 
 248   0.0000       0.261573         7.1178 
 249   0.0000       0.264423         7.1953 
 250   0.0000       0.264897         7.2082 
 251   0.0000       0.269356         7.3296 
 252   0.0000       0.276499         7.5239 
 253   0.0000       0.281058         7.6480 
 254   0.0000       0.284974         7.7545 
 255   0.0000       0.291541         7.9332 
 256   0.0000       0.297120         8.0850 
 257   0.0000       0.299844         8.1592 
[...]
      f+1     :     0.000674
      f-1     :     0.000997
      f+2     :     0.000879
      f-2     :     0.000743
      f+3     :     0.001132
      f-3     :     0.001097
 10 Aus       :     2.665915  s :     2.665915
      pz      :     2.127632  p :     6.383895
      px      :     2.140732
      py      :     2.115531
      dz2     :     1.984284  d :     9.871234
      dxz     :     1.964986
      dyz     :     1.967570
      dx2y2   :     1.983718
      dxy     :     1.970676
      f0      :     0.000628  f :     0.005229
      f+1     :     0.000466
      f-1     :     0.000656
      f+2     :     0.001014
      f-2     :     0.000830
      f+3     :     0.000825
      f-3     :     0.000809
 11 Aus       :     2.558913  s :     2.558913
      pz      :     2.145496  p :     6.539835
      px      :     2.184277
      py      :     2.210063
      dz2     :     1.986178  d :     9.865032
      dxz     :     1.968414
      dyz     :     1.965274
      dx2y2   :     1.979159
      dxy     :     1.966007
      f0      :     0.000872  f :     0.006539
      f+1     :     0.001140
      f-1     :     0.000853
      f+2     :     0.000827
      f-2     :     0.000870
      f+3     :     0.001215
      f-3     :     0.000761
 12 Aus       :     2.503448  s :     2.503448
      pz      :     2.215252  p :     6.557571
      px      :     2.128156
      py      :     2.214163
      dz2     :     1.989803  d :     9.906762
      dxz     :     1.969361
      dyz     :     1.991749
      dx2y2   :     1.982038
      dxy     :     1.973812
      f0      :     0.001091  f :     0.006186
      f+1     :     0.000641
      f-1     :     0.000941
      f+2     :     0.001194
      f-2     :     0.000778
      f+3     :     0.000818
      f-3     :     0.000723
 13 Aus       :     2.548893  s :     2.548893
      pz      :     2.219298  p :     6.564063
      px      :     2.229304
      py      :     2.115461
      dz2     :     1.957829  d :     9.875352
      dxz     :     1.983288
      dyz     :     1.994166
      dx2y2   :     1.959280
      dxy     :     1.980790
      f0      :     0.000821  f :     0.006315
      f+1     :     0.000743
      f-1     :     0.000864
      f+2     :     0.000930
      f-2     :     0.001141
      f+3     :     0.000940
      f-3     :     0.000875
 14 Aus       :     2.580021  s :     2.580021
      pz      :     2.117702  p :     6.513121
      px      :     2.143935
      py      :     2.251484
      dz2     :     1.976989  d :     9.884410
      dxz     :     1.975704
      dyz     :     1.997244
      dx2y2   :     1.978857
      dxy     :     1.955615
      f0      :     0.000905  f :     0.006374
      f+1     :     0.000645
      f-1     :     0.000926
      f+2     :     0.000949
      f-2     :     0.000915
      f+3     :     0.001007
      f-3     :     0.001026
 15 Aus       :     2.547798  s :     2.547798
      pz      :     2.115920  p :     6.515882
      px      :     2.218493
      py      :     2.181469
      dz2     :     1.972286  d :     9.875423
      dxz     :     1.991407
      dyz     :     1.961775
      dx2y2   :     1.965294
      dxy     :     1.984661
      f0      :     0.000751  f :     0.005842
      f+1     :     0.000778
      f-1     :     0.000831
      f+2     :     0.001006
      f-2     :     0.000702
      f+3     :     0.001155
      f-3     :     0.000618
 16 Mns       :     6.258232  s :     6.258232
      pz      :     4.163870  p :    12.483680
      px      :     4.150493
      py      :     4.169316
      dz2     :     1.342428  d :     6.714873
      dxz     :     1.321264
      dyz     :     1.364812
      dx2y2   :     1.313817
      dxy     :     1.372551
      f0      :     0.000085  f :     0.000717
      f+1     :     0.000086
      f-1     :     0.000153
      f+2     :     0.000088
      f-2     :     0.000092
      f+3     :     0.000074
      f-3     :     0.000139

SPIN
  0 Aus       :    -0.017970  s :    -0.017970
      pz      :     0.005055  p :    -0.034540
      px      :    -0.025215
      py      :    -0.014379
      dz2     :    -0.000755  d :    -0.016721
      dxz     :     0.002098
      dyz     :    -0.004636
      dx2y2   :    -0.013573
      dxy     :     0.000145
      f0      :     0.000010  f :     0.000002
      f+1     :    -0.000012
      f-1     :    -0.000000
      f+2     :    -0.000020
      f-2     :     0.000017
      f+3     :    -0.000009
      f-3     :     0.000016
  1 Aus       :    -0.069590  s :    -0.069590
      pz      :    -0.005163  p :    -0.023563
      px      :    -0.019357
      py      :     0.000957
      dz2     :    -0.002781  d :    -0.008003
      dxz     :     0.002856
      dyz     :    -0.002977
      dx2y2   :    -0.006988
      dxy     :     0.001888
      f0      :     0.000023  f :     0.000150
      f+1     :    -0.000011
      f-1     :     0.000010
      f+2     :     0.000013
      f-2     :     0.000024
      f+3     :     0.000038
      f-3     :     0.000053
  2 Aus       :    -0.008666  s :    -0.008666
      pz      :    -0.028442  p :    -0.031851
      px      :    -0.005633
      py      :     0.002224
      dz2     :    -0.012912  d :    -0.007401
      dxz     :     0.001976
      dyz     :     0.003067
      dx2y2   :    -0.000476
      dxy     :     0.000944
      f0      :    -0.000006  f :     0.000058
      f+1     :     0.000019
      f-1     :     0.000028
      f+2     :    -0.000016
      f-2     :     0.000051
      f+3     :    -0.000008
      f-3     :    -0.000011
  3 Aus       :    -0.028064  s :    -0.028064
      pz      :    -0.017044  p :    -0.042477
      px      :    -0.016688
      py      :    -0.008745
      dz2     :    -0.004780  d :    -0.013000
      dxz     :     0.001180
      dyz     :    -0.011031
      dx2y2   :    -0.000774
      dxy     :     0.002405
      f0      :    -0.000001  f :     0.000014
      f+1     :    -0.000014
      f-1     :    -0.000005
      f+2     :     0.000011
      f-2     :     0.000020
      f+3     :     0.000000
      f-3     :     0.000002
  4 Aus       :    -0.002382  s :    -0.002382
      pz      :     0.001229  p :    -0.003566
      px      :    -0.004076
      py      :    -0.000719
      dz2     :    -0.009768  d :    -0.007181
      dxz     :    -0.005633
      dyz     :    -0.001772
      dx2y2   :     0.009708
      dxy     :     0.000285
      f0      :     0.000014  f :     0.000200
      f+1     :    -0.000000
      f-1     :     0.000041
      f+2     :     0.000026
      f-2     :    -0.000001
      f+3     :     0.000029
      f-3     :     0.000092
  5 Aus       :    -0.074453  s :    -0.074453
      pz      :    -0.026321  p :    -0.057036
      px      :    -0.022069
      py      :    -0.008647
      dz2     :    -0.002135  d :    -0.042928
      dxz     :    -0.000877
      dyz     :    -0.012182
      dx2y2   :    -0.000811
      dxy     :    -0.026923
      f0      :    -0.000020  f :    -0.000084
      f+1     :     0.000000
      f-1     :    -0.000005
      f+2     :     0.000001
      f-2     :    -0.000025
      f+3     :    -0.000026
      f-3     :    -0.000009
  6 Aus       :    -0.024090  s :    -0.024090
      pz      :     0.000477  p :    -0.002299
      px      :     0.002016
      py      :    -0.004792
      dz2     :     0.005996  d :     0.007975
      dxz     :     0.002810
      dyz     :     0.006919
      dx2y2   :    -0.004198
      dxy     :    -0.003553
      f0      :     0.000039  f :     0.000265
      f+1     :     0.000030
      f-1     :     0.000116
      f+2     :     0.000026
      f-2     :     0.000043
      f+3     :     0.000008
      f-3     :     0.000004
  7 Aus       :    -0.023263  s :    -0.023263
      pz      :    -0.006168  p :    -0.009151
      px      :     0.003149
      py      :    -0.006131
      dz2     :     0.003859  d :    -0.000607
      dxz     :    -0.001230
      dyz     :     0.002704
      dx2y2   :    -0.002777
      dxy     :    -0.003163
      f0      :     0.000023  f :     0.000187
      f+1     :    -0.000007
      f-1     :     0.000070
      f+2     :     0.000030
      f-2     :     0.000051
      f+3     :     0.000013
      f-3     :     0.000007
  8 Aus       :    -0.012466  s :    -0.012466
      pz      :    -0.003067  p :    -0.032242
      px      :    -0.017562
      py      :    -0.011613
      dz2     :     0.001915  d :    -0.010047
      dxz     :    -0.002172
      dyz     :    -0.002877
      dx2y2   :    -0.009908
      dxy     :     0.002994
      f0      :    -0.000015  f :     0.000038
      f+1     :     0.000022
      f-1     :     0.000003
      f+2     :    -0.000012
      f-2     :    -0.000011
      f+3     :    -0.000007
      f-3     :     0.000057
  9 Aus       :    -0.014826  s :    -0.014826
      pz      :    -0.021555  p :    -0.059665
      px      :    -0.031690
      py      :    -0.006420
      dz2     :    -0.020366  d :    -0.026332
      dxz     :     0.001288
      dyz     :     0.000453
      dx2y2   :    -0.006187
      dxy     :    -0.001520
      f0      :    -0.000001  f :    -0.000025
      f+1     :    -0.000007
      f-1     :    -0.000029
      f+2     :     0.000021
      f-2     :     0.000003
      f+3     :    -0.000008
      f-3     :    -0.000004
 10 Aus       :    -0.048233  s :    -0.048233
      pz      :    -0.012530  p :    -0.052138
      px      :    -0.031748
      py      :    -0.007860
      dz2     :    -0.000172  d :    -0.042333
      dxz     :    -0.001417
      dyz     :    -0.015967
      dx2y2   :    -0.005829
      dxy     :    -0.018948
      f0      :    -0.000006  f :    -0.000091
      f+1     :    -0.000014
      f-1     :    -0.000017
      f+2     :    -0.000025
      f-2     :    -0.000015
      f+3     :    -0.000009
      f-3     :    -0.000005
 11 Aus       :    -0.027527  s :    -0.027527
      pz      :    -0.009619  p :    -0.036702
      px      :    -0.017008
      py      :    -0.010075
      dz2     :     0.002670  d :    -0.008373
      dxz     :    -0.002611
      dyz     :    -0.001406
      dx2y2   :    -0.005923
      dxy     :    -0.001103
      f0      :    -0.000019  f :     0.000041
      f+1     :     0.000040
      f-1     :     0.000030
      f+2     :    -0.000017
      f-2     :     0.000016
      f+3     :     0.000000
      f-3     :    -0.000008
 12 Aus       :    -0.068336  s :    -0.068336
      pz      :    -0.000722  p :    -0.029245
      px      :    -0.029078
      py      :     0.000555
      dz2     :     0.001022  d :    -0.003598
      dxz     :     0.002480
      dyz     :    -0.005129
      dx2y2   :    -0.007006
      dxy     :     0.005035
      f0      :     0.000017  f :     0.000173
      f+1     :     0.000028
      f-1     :     0.000003
      f+2     :     0.000032
      f-2     :     0.000020
      f+3     :     0.000014
      f-3     :     0.000059
 13 Aus       :    -0.006776  s :    -0.006776
      pz      :     0.001961  p :    -0.001358
      px      :    -0.003924
      py      :     0.000605
      dz2     :    -0.004597  d :    -0.004666
      dxz     :    -0.004794
      dyz     :     0.000757
      dx2y2   :     0.004325
      dxy     :    -0.000357
      f0      :     0.000009  f :     0.000203
      f+1     :     0.000005
      f-1     :     0.000047
      f+2     :     0.000026
      f-2     :     0.000001
      f+3     :     0.000027
      f-3     :     0.000088
 14 Aus       :    -0.017601  s :    -0.017601
      pz      :    -0.017734  p :    -0.060529
      px      :    -0.035808
      py      :    -0.006986
      dz2     :    -0.016021  d :    -0.037819
      dxz     :    -0.016522
      dyz     :     0.000201
      dx2y2   :    -0.003653
      dxy     :    -0.001824
      f0      :    -0.000005  f :    -0.000071
      f+1     :     0.000005
      f-1     :    -0.000025
      f+2     :    -0.000003
      f-2     :    -0.000009
      f+3     :    -0.000015
      f-3     :    -0.000019
 15 Aus       :    -0.006066  s :    -0.006066
      pz      :    -0.006476  p :    -0.025324
      px      :    -0.018287
      py      :    -0.000561
      dz2     :     0.001866  d :     0.001942
      dxz     :    -0.002266
      dyz     :     0.005896
      dx2y2   :    -0.003994
      dxy     :     0.000440
      f0      :     0.000044  f :     0.000149
      f+1     :     0.000008
      f-1     :     0.000102
      f+2     :     0.000022
      f-2     :     0.000005
      f+3     :    -0.000025
      f-3     :    -0.000005
 16 Mns       :    -0.004630  s :    -0.004630
      pz      :     0.007837  p :     0.026491
      px      :     0.009936
      py      :     0.008718
      dz2     :     0.826263  d :     4.147981
      dxz     :     0.868970
      dyz     :     0.847712
      dx2y2   :     0.810081
      dxy     :     0.794955
      f0      :     0.000004  f :     0.000037
      f+1     :     0.000004
      f-1     :     0.000008
      f+2     :     0.000005
      f-2     :     0.000005
      f+3     :     0.000005
      f-3     :     0.000006


                      *****************************
                      * MAYER POPULATION ANALYSIS *
                      *****************************

  NA   - Mulliken gross atomic population
  ZA   - Total nuclear charge
  QA   - Mulliken gross atomic charge
  VA   - Mayer's total valence
  BVA  - Mayer's bonded valence
  FA   - Mayer's free valence

  ATOM       NA         ZA         QA         VA         BVA        FA
  0 Au    18.8144    19.0000     0.1856     1.7506     1.7481     0.0025
  1 Au    19.0494    19.0000    -0.0494     2.0577     2.0359     0.0219
  2 Au    18.7371    19.0000     0.2629     1.6633     1.6607     0.0026
  3 Au    18.7204    19.0000     0.2796     1.7020     1.6984     0.0036
  4 Au    18.9709    19.0000     0.0291     1.9039     1.9010     0.0028
  5 Au    18.6041    19.0000     0.3959     1.5396     1.5133     0.0263
  6 Au    19.0640    19.0000    -0.0640     2.0808     2.0764     0.0045
  7 Au    19.1022    19.0000    -0.1022     2.1227     2.1185     0.0042
  8 Au    18.7752    19.0000     0.2248     1.7056     1.7040     0.0015
  9 Au    18.7700    19.0000     0.2300     1.7726     1.7691     0.0035
 10 Au    18.6185    19.0000     0.3815     1.5577     1.5451     0.0126
 11 Au    18.7073    19.0000     0.2927     1.6965     1.6927     0.0039
 12 Au    18.9079    19.0000     0.0921     1.9062     1.8869     0.0193
 13 Au    18.9351    19.0000     0.0649     1.8594     1.8570     0.0024
 14 Au    18.7564    19.0000     0.2436     1.7402     1.7364     0.0039
 15 Au    18.7259    19.0000     0.2741     1.6449     1.6435     0.0014
 16 Mn    27.7411    25.0000    -2.7411     8.3927     4.6921     3.7006

  Mayer bond orders larger than 0.100000
B(  0-Au,  1-Au) :   0.1888 B(  0-Au,  3-Au) :   0.2553 B(  0-Au,  6-Au) :   0.2481 
B(  0-Au, 13-Au) :   0.2528 B(  0-Au, 14-Au) :   0.2654 B(  0-Au, 16-Mn) :   0.2709 
B(  1-Au,  2-Au) :   0.2378 B(  1-Au,  3-Au) :   0.2164 B(  1-Au,  4-Au) :   0.1862 
B(  1-Au,  5-Au) :   0.2648 B(  1-Au, 14-Au) :   0.2237 B(  1-Au, 16-Mn) :   0.4293 
B(  2-Au,  3-Au) :   0.2482 B(  2-Au,  4-Au) :   0.1836 B(  2-Au, 11-Au) :   0.2589 
B(  2-Au, 15-Au) :   0.1120 B(  2-Au, 16-Mn) :   0.3328 B(  3-Au, 13-Au) :   0.2131 
B(  3-Au, 15-Au) :   0.2333 B(  3-Au, 16-Mn) :   0.2468 B(  4-Au,  5-Au) :   0.2940 
B(  4-Au,  7-Au) :   0.1588 B(  4-Au,  8-Au) :   0.2306 B(  4-Au, 11-Au) :   0.2022 
B(  4-Au, 16-Mn) :   0.3985 B(  5-Au,  7-Au) :   0.3018 B(  5-Au, 10-Au) :   0.1008 
B(  5-Au, 14-Au) :   0.2812 B(  6-Au,  7-Au) :   0.1412 B(  6-Au,  9-Au) :   0.2539 
B(  6-Au, 10-Au) :   0.2922 B(  6-Au, 13-Au) :   0.1490 B(  6-Au, 14-Au) :   0.2987 
B(  6-Au, 16-Mn) :   0.4185 B(  7-Au,  8-Au) :   0.2340 B(  7-Au,  9-Au) :   0.3203 
B(  7-Au, 14-Au) :   0.2719 B(  7-Au, 16-Mn) :   0.4037 B(  8-Au,  9-Au) :   0.2428 
B(  8-Au, 11-Au) :   0.2558 B(  8-Au, 12-Au) :   0.1625 B(  8-Au, 16-Mn) :   0.3040 
B(  9-Au, 10-Au) :   0.2810 B(  9-Au, 12-Au) :   0.2118 B(  9-Au, 16-Mn) :   0.1862 
B( 10-Au, 12-Au) :   0.2615 B( 10-Au, 13-Au) :   0.3107 B( 11-Au, 12-Au) :   0.2136 
B( 11-Au, 15-Au) :   0.2065 B( 11-Au, 16-Mn) :   0.2656 B( 12-Au, 13-Au) :   0.1261 
B( 12-Au, 15-Au) :   0.2223 B( 12-Au, 16-Mn) :   0.4154 B( 13-Au, 15-Au) :   0.1578 
B( 13-Au, 16-Mn) :   0.3866 B( 14-Au, 16-Mn) :   0.1259 B( 15-Au, 16-Mn) :   0.4180 


-------
TIMINGS
-------

Total SCF time: 0 days 0 hours 4 min 51 sec 

Total time                  ....     291.181 sec
Sum of individual times     ....     285.933 sec  ( 98.2%)

Fock matrix formation       ....     263.034 sec  ( 90.3%)
  Split-RI-J                ....      98.730 sec  ( 37.5% of F)
  XC integration            ....     162.249 sec  ( 61.7% of F)
    Basis function eval.    ....      16.345 sec  ( 10.1% of XC)
    Density eval.           ....      66.463 sec  ( 41.0% of XC)
    XC-Functional eval.     ....       1.543 sec  (  1.0% of XC)
    XC-Potential eval.      ....      38.977 sec  ( 24.0% of XC)
Diagonalization             ....      17.207 sec  (  5.9%)
Density matrix formation    ....       0.790 sec  (  0.3%)
Population analysis         ....       0.517 sec  (  0.2%)
Initial guess               ....       0.947 sec  (  0.3%)
Orbital Transformation      ....       0.000 sec  (  0.0%)
Orbital Orthonormalization  ....       0.861 sec  (  0.3%)
DIIS solution               ....       0.000 sec  (  0.0%)
Grid generation             ....       3.438 sec  (  1.2%)

Maximum memory used throughout the entire SCF-calculation: 121.1 MB

-------------------------   --------------------
FINAL SINGLE POINT ENERGY     -3324.035070027675
-------------------------   --------------------


                            ***************************************
                            *     ORCA property calculations      *
                            ***************************************

                                    ---------------------
                                    Active property flags
                                    ---------------------
   (+) Dipole Moment


------------------------------------------------------------------------------
                       ORCA ELECTRIC PROPERTIES CALCULATION
------------------------------------------------------------------------------

Dipole Moment Calculation                       ... on
Quadrupole Moment Calculation                   ... off
Polarizability Calculation                      ... off
GBWName                                         ... pbeSP_job2.gbw
Electron density                                ... pbeSP_job2.scfp
The origin for moment calculation is the CENTER OF MASS  = (12.381540, 15.595691 14.034344)

-------------
DIPOLE MOMENT
-------------
                                X             Y             Z
Electronic contribution:      0.75765       1.68049       9.09474
Nuclear contribution   :     -0.79830      -1.75603      -9.14356
                        -----------------------------------------
Total Dipole Moment    :     -0.04065      -0.07554      -0.04881
                        -----------------------------------------
Magnitude (a.u.)       :      0.09870
Magnitude (Debye)      :      0.25087



--------------------
Rotational spectrum 
--------------------
 
Rotational constants in cm-1:     0.000904     0.000815     0.000811 
Rotational constants in MHz :    27.113646    24.438174    24.322988 

 Dipole components along the rotational axes: 
x,y,z [a.u.] :    -0.094794    -0.019006    -0.019858 
x,y,z [Debye]:    -0.240947    -0.048309    -0.050476 

 

Timings for individual modules:

Sum of individual times         ...      324.552 sec (=   5.409 min)
GTO integral calculation        ...       33.089 sec (=   0.551 min)  10.2 %
SCF iterations                  ...      291.464 sec (=   4.858 min)  89.8 %



                             ****ORCA TERMINATED NORMALLY****
TOTAL RUN TIME: 0 days 0 hours 9 minutes 55 seconds 483 msec
