
                                 *****************
                                 * O   R   C   A *
                                 *****************

                                            #,                                       
                                            ###                                      
                                            ####                                     
                                            #####                                    
                                            ######                                   
                                           ########,                                 
                                     ,,################,,,,,                         
                               ,,#################################,,                 
                          ,,##########################################,,             
                       ,#########################################, ''#####,          
                    ,#############################################,,   '####,        
                  ,##################################################,,,,####,       
                ,###########''''           ''''###############################       
              ,#####''   ,,,,##########,,,,          '''####'''          '####       
            ,##' ,,,,###########################,,,                        '##       
           ' ,,###''''                  '''############,,,                           
         ,,##''                                '''############,,,,        ,,,,,,###''
      ,#''                                            '''#######################'''  
     '                                                          ''''####''''         
             ,#######,   #######,   ,#######,      ##                                
            ,#'     '#,  ##    ##  ,#'     '#,    #''#        ######   ,####,        
            ##       ##  ##   ,#'  ##            #'  '#       #        #'  '#        
            ##       ##  #######   ##           ,######,      #####,   #    #        
            '#,     ,#'  ##    ##  '#,     ,#' ,#      #,         ##   #,  ,#        
             '#######'   ##     ##  '#######'  #'      '#     #####' # '####'        



                  #######################################################
                  #                        -***-                        #
                  #          Department of theory and spectroscopy      #
                  #    Directorship and core code : Frank Neese         #
                  #        Max Planck Institute fuer Kohlenforschung    #
                  #                Kaiser Wilhelm Platz 1               #
                  #                 D-45470 Muelheim/Ruhr               #
                  #                      Germany                        #
                  #                                                     #
                  #                  All rights reserved                #
                  #                        -***-                        #
                  #######################################################


                         Program Version 5.0.3 -  RELEASE  -


 With contributions from (in alphabetic order):
   Daniel Aravena         : Magnetic Suceptibility
   Michael Atanasov       : Ab Initio Ligand Field Theory (pilot matlab implementation)
   Alexander A. Auer      : GIAO ZORA, VPT2 properties, NMR spectrum
   Ute Becker             : Parallelization
   Giovanni Bistoni       : ED, misc. LED, open-shell LED, HFLD
   Martin Brehm           : Molecular dynamics
   Dmytro Bykov           : SCF Hessian
   Vijay G. Chilkuri      : MRCI spin determinant printing, contributions to CSF-ICE
   Dipayan Datta          : RHF DLPNO-CCSD density
   Achintya Kumar Dutta   : EOM-CC, STEOM-CC
   Dmitry Ganyushin       : Spin-Orbit,Spin-Spin,Magnetic field MRCI
   Miquel Garcia          : C-PCM and meta-GGA Hessian, CC/C-PCM, Gaussian charge scheme
   Yang Guo               : DLPNO-NEVPT2, F12-NEVPT2, CIM, IAO-localization
   Andreas Hansen         : Spin unrestricted coupled pair/coupled cluster methods
   Benjamin Helmich-Paris : MC-RPA, TRAH-SCF, COSX integrals
   Lee Huntington         : MR-EOM, pCC
   Robert Izsak           : Overlap fitted RIJCOSX, COSX-SCS-MP3, EOM
   Marcus Kettner         : VPT2
   Christian Kollmar      : KDIIS, OOCD, Brueckner-CCSD(T), CCSD density, CASPT2, CASPT2-K
   Simone Kossmann        : Meta GGA functionals, TD-DFT gradient, OOMP2, MP2 Hessian
   Martin Krupicka        : Initial AUTO-CI
   Lucas Lang             : DCDCAS
   Marvin Lechner         : AUTO-CI (C++ implementation), FIC-MRCC
   Dagmar Lenk            : GEPOL surface, SMD
   Dimitrios Liakos       : Extrapolation schemes; Compound Job, initial MDCI parallelization
   Dimitrios Manganas     : Further ROCIS development; embedding schemes
   Dimitrios Pantazis     : SARC Basis sets
   Anastasios Papadopoulos: AUTO-CI, single reference methods and gradients
   Taras Petrenko         : DFT Hessian,TD-DFT gradient, ASA, ECA, R-Raman, ABS, FL, XAS/XES, NRVS
   Peter Pinski           : DLPNO-MP2, DLPNO-MP2 Gradient
   Christoph Reimann      : Effective Core Potentials
   Marius Retegan         : Local ZFS, SOC
   Christoph Riplinger    : Optimizer, TS searches, QM/MM, DLPNO-CCSD(T), (RO)-DLPNO pert. Triples
   Tobias Risthaus        : Range-separated hybrids, TD-DFT gradient, RPA, STAB
   Michael Roemelt        : Original ROCIS implementation
   Masaaki Saitow         : Open-shell DLPNO-CCSD energy and density
   Barbara Sandhoefer     : DKH picture change effects
   Avijit Sen             : IP-ROCIS
   Kantharuban Sivalingam : CASSCF convergence, NEVPT2, FIC-MRCI
   Bernardo de Souza      : ESD, SOC TD-DFT
   Georgi Stoychev        : AutoAux, RI-MP2 NMR, DLPNO-MP2 response
   Willem Van den Heuvel  : Paramagnetic NMR
   Boris Wezisla          : Elementary symmetry handling
   Frank Wennmohs         : Technical directorship


 We gratefully acknowledge several colleagues who have allowed us to
 interface, adapt or use parts of their codes:
   Stefan Grimme, W. Hujo, H. Kruse, P. Pracht,  : VdW corrections, initial TS optimization,
                  C. Bannwarth, S. Ehlert          DFT functionals, gCP, sTDA/sTD-DF
   Ed Valeev, F. Pavosevic, A. Kumar             : LibInt (2-el integral package), F12 methods
   Garnet Chan, S. Sharma, J. Yang, R. Olivares  : DMRG
   Ulf Ekstrom                                   : XCFun DFT Library
   Mihaly Kallay                                 : mrcc  (arbitrary order and MRCC methods)
   Jiri Pittner, Ondrej Demel                    : Mk-CCSD
   Frank Weinhold                                : gennbo (NPA and NBO analysis)
   Christopher J. Cramer and Donald G. Truhlar   : smd solvation model
   Lars Goerigk                                  : TD-DFT with DH, B97 family of functionals
   V. Asgeirsson, H. Jonsson                     : NEB implementation
   FAccTs GmbH                                   : IRC, NEB, NEB-TS, DLPNO-Multilevel, CI-OPT
                                                   MM, QMMM, 2- and 3-layer-ONIOM, Crystal-QMMM,
                                                   LR-CPCM, SF, NACMEs, symmetry and pop. for TD-DFT,
                                                   nearIR, NL-DFT gradient (VV10), updates on ESD,
                                                   ML-optimized integration grids
   S Lehtola, MJT Oliveira, MAL Marques          : LibXC Library
   Liviu Ungur et al                             : ANISO software


 Your calculation uses the libint2 library for the computation of 2-el integrals
 For citations please refer to: http://libint.valeyev.net

 Your ORCA version has been built with support for libXC version: 5.1.0
 For citations please refer to: https://tddft.org/programs/libxc/

 This ORCA versions uses:
   CBLAS   interface :  Fast vector & matrix operations
   LAPACKE interface :  Fast linear algebra routines
   SCALAPACK package :  Parallel linear algebra routines
   Shared memory     :  Shared parallel matrices
   BLAS/LAPACK       :  OpenBLAS 0.3.15  USE64BITINT DYNAMIC_ARCH NO_AFFINITY Sandybridge SINGLE_THREADED
        Core in use  :  Sandybridge
   Copyright (c) 2011-2014, The OpenBLAS Project




***************************************
The coordinates will be read from file: pbe.xyz
***************************************


================================================================================

cite the ECPs for Au [Def2-ECP] as follows:
Ce-Yb(ecp-28): M. Dolg, H. Stoll, H.Preuss, J. Chem. Phys., 1989, 90, 1730-1734.
Y-Cd(ecp-28), Hf-Hg(ecp-46): D. Andrae,U. Haeussermann, M. Dolg, H. Stoll, H. Preuss, Theor. Chim. Acta, 1990, 77, 123-141.
In-Sb(ecp-28), Tl-Bi(ecp-46): B. Metz, H. Stoll, M. Dolg, J. Chem. Phys., 2000, 113, 2563-2569.
Te-Xe(ecp-28), Po-Rn(ecp-46): K. A. Peterson, D. Figgen, E. Goll, H. Stoll, M. Dolg, J. Chem. Phys., 2003, 119, 11113-11123.
Rb(ecp-28), Cs(ecp-46): T. Leininger, A. Nicklass, W. Kuechle, H. Stoll, M. Dolg, A. Bergner, Chem. Phys. Lett., 1996, 255, 274-280.
Sr(ecp-28), Ba(ecp-46): M. Kaupp, P. V. Schleyer, H. Stoll and H. Preuss, J. Chem. Phys., 1991, 94, 1360-1366.
La(ecp-46): M. Dolg, H. Stoll, A. Savin, H. Preuss, Theor. Chim. Acta, 1989, 75, 173-194.
Lu(ecp-28): X. Cao, M. Dolg, J. Chem. Phys., 2001, 115, 7348-7355.

ECP parameters for Au [Def2-ECP] have been obtained from:
TURBOMOLE (7.0.2)

----- Orbital basis set information -----
Your calculation utilizes the basis: def2-TZVP
   F. Weigend and R. Ahlrichs, Phys. Chem. Chem. Phys. 7, 3297 (2005).

----- AuxJ basis set information -----
Your calculation utilizes the auxiliary basis: def2/J
   F. Weigend, Phys. Chem. Chem. Phys. 8, 1057 (2006).

================================================================================
                                        WARNINGS
                       Please study these warnings very carefully!
================================================================================

Using LibXC functional ID 497 : Re-regularized SCAN exchange by Furness et al
[ 1]  J. W. Furness, A. D. Kaplan, J. Ning, J. P. Perdew, and J. Sun, J. Phys. Chem. Lett. 11, 8208 (2020)
[ 2]  J. W. Furness, A. D. Kaplan, J. Ning, J. P. Perdew, and J. Sun, J. Phys. Chem. Lett. 11, 9248 (2020)
Using LibXC functional ID 498 : Re-regularized SCAN correlation by Furness et al
[ 1]  J. W. Furness, A. D. Kaplan, J. Ning, J. P. Perdew, and J. Sun, J. Phys. Chem. Lett. 11, 8208 (2020)
[ 2]  J. W. Furness, A. D. Kaplan, J. Ning, J. P. Perdew, and J. Sun, J. Phys. Chem. Lett. 11, 9248 (2020)
Using LibXC functional ID 497 : Re-regularized SCAN exchange by Furness et al
[ 1]  J. W. Furness, A. D. Kaplan, J. Ning, J. P. Perdew, and J. Sun, J. Phys. Chem. Lett. 11, 8208 (2020)
[ 2]  J. W. Furness, A. D. Kaplan, J. Ning, J. P. Perdew, and J. Sun, J. Phys. Chem. Lett. 11, 9248 (2020)
Using LibXC functional ID 498 : Re-regularized SCAN correlation by Furness et al
[ 1]  J. W. Furness, A. D. Kaplan, J. Ning, J. P. Perdew, and J. Sun, J. Phys. Chem. Lett. 11, 8208 (2020)
[ 2]  J. W. Furness, A. D. Kaplan, J. Ning, J. P. Perdew, and J. Sun, J. Phys. Chem. Lett. 11, 9248 (2020)

WARNING: your system is open-shell and RHF/RKS was chosen
  ===> : WILL SWITCH to UHF/UKS


INFO   : the flag for use of the SHARK integral package has been found!



***************************************
The coordinates will be read from file: pbe.xyz
***************************************


================================================================================

cite the ECPs for Au [Def2-ECP] as follows:
Ce-Yb(ecp-28): M. Dolg, H. Stoll, H.Preuss, J. Chem. Phys., 1989, 90, 1730-1734.
Y-Cd(ecp-28), Hf-Hg(ecp-46): D. Andrae,U. Haeussermann, M. Dolg, H. Stoll, H. Preuss, Theor. Chim. Acta, 1990, 77, 123-141.
In-Sb(ecp-28), Tl-Bi(ecp-46): B. Metz, H. Stoll, M. Dolg, J. Chem. Phys., 2000, 113, 2563-2569.
Te-Xe(ecp-28), Po-Rn(ecp-46): K. A. Peterson, D. Figgen, E. Goll, H. Stoll, M. Dolg, J. Chem. Phys., 2003, 119, 11113-11123.
Rb(ecp-28), Cs(ecp-46): T. Leininger, A. Nicklass, W. Kuechle, H. Stoll, M. Dolg, A. Bergner, Chem. Phys. Lett., 1996, 255, 274-280.
Sr(ecp-28), Ba(ecp-46): M. Kaupp, P. V. Schleyer, H. Stoll and H. Preuss, J. Chem. Phys., 1991, 94, 1360-1366.
La(ecp-46): M. Dolg, H. Stoll, A. Savin, H. Preuss, Theor. Chim. Acta, 1989, 75, 173-194.
Lu(ecp-28): X. Cao, M. Dolg, J. Chem. Phys., 2001, 115, 7348-7355.

ECP parameters for Au [Def2-ECP] have been obtained from:
TURBOMOLE (7.0.2)

----- Orbital basis set information -----
Your calculation utilizes the basis: def2-TZVP
   F. Weigend and R. Ahlrichs, Phys. Chem. Chem. Phys. 7, 3297 (2005).

----- AuxJ basis set information -----
Your calculation utilizes the auxiliary basis: def2/J
   F. Weigend, Phys. Chem. Chem. Phys. 8, 1057 (2006).

================================================================================
                                        WARNINGS
                       Please study these warnings very carefully!
================================================================================

Using LibXC functional ID 497 : Re-regularized SCAN exchange by Furness et al
[ 1]  J. W. Furness, A. D. Kaplan, J. Ning, J. P. Perdew, and J. Sun, J. Phys. Chem. Lett. 11, 8208 (2020)
[ 2]  J. W. Furness, A. D. Kaplan, J. Ning, J. P. Perdew, and J. Sun, J. Phys. Chem. Lett. 11, 9248 (2020)
Using LibXC functional ID 498 : Re-regularized SCAN correlation by Furness et al
[ 1]  J. W. Furness, A. D. Kaplan, J. Ning, J. P. Perdew, and J. Sun, J. Phys. Chem. Lett. 11, 8208 (2020)
[ 2]  J. W. Furness, A. D. Kaplan, J. Ning, J. P. Perdew, and J. Sun, J. Phys. Chem. Lett. 11, 9248 (2020)
Using LibXC functional ID 497 : Re-regularized SCAN exchange by Furness et al
[ 1]  J. W. Furness, A. D. Kaplan, J. Ning, J. P. Perdew, and J. Sun, J. Phys. Chem. Lett. 11, 8208 (2020)
[ 2]  J. W. Furness, A. D. Kaplan, J. Ning, J. P. Perdew, and J. Sun, J. Phys. Chem. Lett. 11, 9248 (2020)
Using LibXC functional ID 498 : Re-regularized SCAN correlation by Furness et al
[ 1]  J. W. Furness, A. D. Kaplan, J. Ning, J. P. Perdew, and J. Sun, J. Phys. Chem. Lett. 11, 8208 (2020)
[ 2]  J. W. Furness, A. D. Kaplan, J. Ning, J. P. Perdew, and J. Sun, J. Phys. Chem. Lett. 11, 9248 (2020)

INFO   : the flag for use of the SHARK integral package has been found!

================================================================================
                                       INPUT FILE
================================================================================
NAME = scan.inp
|  1> !R2SCAN def2-TZVP VERYSLOWCONV
|  2> !KDIIS
|  3> %scf
|  4>   AutoTRAHIter 200
|  5>   maxiter 400
|  6> end
|  7> 
|  8> %pal nprocs 6 end 
|  9> 
| 10> *xyzfile 0 6 pbe.xyz
| 11> 
| 12> $new_job
| 13> 
| 14> !R2SCAN def2-TZVP VERYSLOWCONV
| 15> !KDIIS
| 16> %scf
| 17>   AutoTRAHIter 200
| 18>   maxiter 400
| 19> end
| 20> 
| 21> 
| 22> %pal nprocs 6 end 
| 23> 
| 24> *xyzfile 0 4 pbe.xyz
| 25> 
| 26> 
| 27> 
| 28> 
| 29> 
| 30>                          ****END OF INPUT****
================================================================================


                 $$$$$$$$$$$$$$$$$$$$$$$$$$$$$$$$$$$$$$$$$$$$$$ 
                 $ THERE ARE  2 JOBS TO BE PROCESSED THIS RUN $
                 $$$$$$$$$$$$$$$$$$$$$$$$$$$$$$$$$$$$$$$$$$$$$$ 




                 $$$$$$$$$$$$$$$$  JOB NUMBER  1 $$$$$$$$$$$$$$


                       ****************************
                       * Single Point Calculation *
                       ****************************

---------------------------------
CARTESIAN COORDINATES (ANGSTROEM)
---------------------------------
  Au     9.066252    6.810736    8.556787
  Au     9.000919    9.511091    7.546276
  Au     7.916612    9.616141    4.962143
  Au     9.043649    7.265093    5.844002
  Au     6.368438   10.988417    6.857036
  Au     7.756942   11.384502    9.194946
  Au     6.439604    6.700014    9.547191
  Au     5.582964    9.650762    9.453358
  Au     3.877062    9.764245    7.242295
  Au     3.867892    7.583181    8.918145
  Au     4.697005    5.098051    8.013328
  Au     5.175760    9.368957    4.846374
  Au     4.180812    7.086663    6.137360
  Au     7.186386    5.476470    6.955020
  Au     8.120389    8.800522   10.178319
  Au     6.557762    6.954462    4.642405
  Mn     6.530586    8.205715    7.181047

----------------------------
CARTESIAN COORDINATES (A.U.)
----------------------------
  NO LB      ZA    FRAG     MASS         X           Y           Z
   0 Au   19.0000*   0   196.966   17.132733   12.870426   16.169983
   1 Au   19.0000*   0   196.966   17.009272   17.973357   14.260395
   2 Au   19.0000*   0   196.966   14.960228   18.171874    9.377091
   3 Au   19.0000*   0   196.966   17.090020   13.729036   11.043563
   4 Au   19.0000*   0   196.966   12.034604   20.765099   12.957920
   5 Au   19.0000*   0   196.966   14.658495   21.513590   17.375930
   6 Au   19.0000*   0   196.966   12.169087   12.661192   18.041577
   7 Au   19.0000*   0   196.966   10.550273   18.237297   17.864258
   8 Au   19.0000*   0   196.966    7.326586   18.451750   13.685954
   9 Au   19.0000*   0   196.966    7.309256   14.330136   16.852851
  10 Au   19.0000*   0   196.966    8.876053    9.633920   15.142996
  11 Au   19.0000*   0   196.966    9.780770   17.704764    9.158319
  12 Au   19.0000*   0   196.966    7.900590   13.391852   11.597930
  13 Au   19.0000*   0   196.966   13.580301   10.349029   13.143083
  14 Au   19.0000*   0   196.966   15.345311   16.630576   19.234236
  15 Au   19.0000*   0   196.966   12.392373   13.142028    8.772874
  16 Mn   25.0000    0    54.940   12.341018   15.506554   13.570211
* core charge reduced due to ECP

--------------------------------
INTERNAL COORDINATES (ANGSTROEM)
--------------------------------
 Au     0   0   0     0.000000000000     0.00000000     0.00000000
 Au     1   0   0     2.883975801205     0.00000000     0.00000000
 Au     2   1   0     2.804372227947   111.51249107     0.00000000
 Au     1   2   3     2.750663671384    59.97268321    24.20891748
 Au     3   2   1     2.805459210356    67.00233384   116.12585129
 Au     5   3   2     2.747844442824   111.48911654    14.06512510
 Au     1   2   3     2.809348835761    98.00430625   275.37114612
 Au     6   5   3     2.792634775067    66.16374489   246.71448540
 Au     8   6   5     2.794955907423   112.13119091   346.35241453
 Au     8   6   5     2.739126643572   159.71295128    47.95819772
 Au    10   8   6     2.771641384873   123.59283524    38.70184815
 Au     9   8   6     2.753780993867   113.24189246    53.42443470
 Au    11  10   8     2.782137760270    61.55812175   272.19860257
 Au    11  10   8     2.731343004604   105.95648244   339.80163987
 Au     1   2   3     2.735556859517    61.23598367   226.46618368
 Au     4   1   2     2.778482186359   114.54417554   259.70486400
 Mn    13  11  10     2.804103257527    83.03887650    70.84610572

---------------------------
INTERNAL COORDINATES (A.U.)
---------------------------
 Au     0   0   0     0.000000000000     0.00000000     0.00000000
 Au     1   0   0     5.449924441133     0.00000000     0.00000000
 Au     2   1   0     5.299495488395   111.51249107     0.00000000
 Au     1   2   3     5.198001025443    59.97268321    24.20891748
 Au     3   2   1     5.301549587461    67.00233384   116.12585129
 Au     5   3   2     5.192673455554   111.48911654    14.06512510
 Au     1   2   3     5.308899914240    98.00430625   275.37114612
 Au     6   5   3     5.277314916941    66.16374489   246.71448540
 Au     8   6   5     5.281701221415   112.13119091   346.35241453
 Au     8   6   5     5.176199202478   159.71295128    47.95819772
 Au    10   8   6     5.237643158852   123.59283524    38.70184815
 Au     9   8   6     5.203891911206   113.24189246    53.42443470
 Au    11  10   8     5.257478433751    61.55812175   272.19860257
 Au    11  10   8     5.161490256503   105.95648244   339.80163987
 Au     1   2   3     5.169453288257    61.23598367   226.46618368
 Au     4   1   2     5.250570400197   114.54417554   259.70486400
 Mn    13  11  10     5.298987207962    83.03887650    70.84610572

---------------------
BASIS SET INFORMATION
---------------------
There are 2 groups of distinct atoms

 Group   1 Type Au  : 8s7p6d1f contracted to 6s4p3d1f pattern {311111/4111/411/1}
 Group   2 Type Mn  : 17s11p7d1f contracted to 6s4p4d1f pattern {842111/6311/4111/1}

Atom   0Au   basis set group =>   1
Atom   1Au   basis set group =>   1
Atom   2Au   basis set group =>   1
Atom   3Au   basis set group =>   1
Atom   4Au   basis set group =>   1
Atom   5Au   basis set group =>   1
Atom   6Au   basis set group =>   1
Atom   7Au   basis set group =>   1
Atom   8Au   basis set group =>   1
Atom   9Au   basis set group =>   1
Atom  10Au   basis set group =>   1
Atom  11Au   basis set group =>   1
Atom  12Au   basis set group =>   1
Atom  13Au   basis set group =>   1
Atom  14Au   basis set group =>   1
Atom  15Au   basis set group =>   1
Atom  16Mn   basis set group =>   2
---------------------------------
AUXILIARY/J BASIS SET INFORMATION
---------------------------------
There are 2 groups of distinct atoms

 Group   1 Type Au  : 11s5p5d3f3g contracted to 8s5p5d2f3g pattern {41111111/11111/11111/21/111}
 Group   2 Type Mn  : 19s5p5d3f3g contracted to 8s5p5d2f3g pattern {121111111/11111/11111/21/111}

Atom   0Au   basis set group =>   1
Atom   1Au   basis set group =>   1
Atom   2Au   basis set group =>   1
Atom   3Au   basis set group =>   1
Atom   4Au   basis set group =>   1
Atom   5Au   basis set group =>   1
Atom   6Au   basis set group =>   1
Atom   7Au   basis set group =>   1
Atom   8Au   basis set group =>   1
Atom   9Au   basis set group =>   1
Atom  10Au   basis set group =>   1
Atom  11Au   basis set group =>   1
Atom  12Au   basis set group =>   1
Atom  13Au   basis set group =>   1
Atom  14Au   basis set group =>   1
Atom  15Au   basis set group =>   1
Atom  16Mn   basis set group =>   2
-------------------------
ECP PARAMETER INFORMATION
-------------------------

 Group 1, Type Au ECP Def2-ECP (replacing 60 core electrons, lmax=3)

Atom   0Au   ECP group =>   1
Atom   1Au   ECP group =>   1
Atom   2Au   ECP group =>   1
Atom   3Au   ECP group =>   1
Atom   4Au   ECP group =>   1
Atom   5Au   ECP group =>   1
Atom   6Au   ECP group =>   1
Atom   7Au   ECP group =>   1
Atom   8Au   ECP group =>   1
Atom   9Au   ECP group =>   1
Atom  10Au   ECP group =>   1
Atom  11Au   ECP group =>   1
Atom  12Au   ECP group =>   1
Atom  13Au   ECP group =>   1
Atom  14Au   ECP group =>   1
Atom  15Au   ECP group =>   1



           ************************************************************
           *        Program running with 6 parallel MPI-processes     *
           *              working on a common directory               *
           ************************************************************
------------------------------------------------------------------------------
                           ORCA GTO INTEGRAL CALCULATION
                           -- RI-GTO INTEGRALS CHOSEN --
------------------------------------------------------------------------------
------------------------------------------------------------------------------
                   ___                                                        
                  /   \      - P O W E R E D   B Y -                         
                 /     \                                                     
                 |  |  |   _    _      __       _____    __    __             
                 |  |  |  | |  | |    /  \     |  _  \  |  |  /  |          
                  \  \/   | |  | |   /    \    | | | |  |  | /  /          
                 / \  \   | |__| |  /  /\  \   | |_| |  |  |/  /          
                |  |  |   |  __  | /  /__\  \  |    /   |      \           
                |  |  |   | |  | | |   __   |  |    \   |  |\   \          
                \     /   | |  | | |  |  |  |  | |\  \  |  | \   \       
                 \___/    |_|  |_| |__|  |__|  |_| \__\ |__|  \__/        
                                                                              
                      - O R C A' S   B I G   F R I E N D -                    
                                      &                                       
                       - I N T E G R A L  F E E D E R -                       
                                                                              
 v1 FN, 2020, v2 2021                                                         
------------------------------------------------------------------------------


Reading SHARK input file scan.SHARKINP.tmp ... ok
----------------------
SHARK INTEGRAL PACKAGE
----------------------

Number of atoms                             ...     17
Number of basis functions                   ...    685
Number of shells                            ...    239
Maximum angular momentum                    ...      3
Integral batch strategy                     ... SHARK/LIBINT Hybrid
RI-J (if used) integral strategy            ... SPLIT-RIJ (Revised 2003 algorithm where possible)
Printlevel                                  ...      1
Contraction scheme used                     ... SEGMENTED contraction
Coulomb Range Separation                    ... NOT USED
Exchange Range Separation                   ... NOT USED
Finite Nucleus Model                        ... NOT USED
Auxiliary Coulomb fitting basis             ... AVAILABLE
   # of basis functions in Aux-J            ...   1513
   # of shells in Aux-J                     ...    391
   Maximum angular momentum in Aux-J        ...      4
Auxiliary J/K fitting basis                 ... NOT available
Auxiliary Correlation fitting basis         ... NOT available
Auxiliary 'external' fitting basis          ... NOT available
Integral threshold                          ...     1.000000e-10
Primitive cut-off                           ...     1.000000e-11
Primitive pair pre-selection threshold      ...     1.000000e-11

Calculating pre-screening integrals         ... done (  0.3 sec) Dimension = 239
Organizing shell pair data                  ... done (  1.3 sec)
Shell pair information
Total number of shell pairs                 ...     28680
Shell pairs after pre-screening             ...     22470
Total number of primitive shell pairs       ...     75765
Primitive shell pairs kept                  ...     42669
          la=0 lb=0:   3552 shell pairs
          la=1 lb=0:   5120 shell pairs
          la=1 lb=1:   1927 shell pairs
          la=2 lb=0:   4464 shell pairs
          la=2 lb=1:   3142 shell pairs
          la=2 lb=2:   1301 shell pairs
          la=3 lb=0:   1156 shell pairs
          la=3 lb=1:    894 shell pairs
          la=3 lb=2:    796 shell pairs
          la=3 lb=3:    118 shell pairs

Calculating one electron integrals          ... done (  0.1 sec)
Calculating ECP integrals                   ... done ( 29.5 sec)
Calculating RI/J V-Matrix + Cholesky decomp.... done (  0.2 sec)
Calculating Nuclear repulsion               ... done (  0.0 sec) ENN=   7090.320424335641 Eh

SHARK setup successfully completed in  32.1 seconds

Maximum memory used throughout the entire GTOINT-calculation: 41.3 MB


           ************************************************************
           *        Program running with 6 parallel MPI-processes     *
           *              working on a common directory               *
           ************************************************************
-------------------------------------------------------------------------------
                                 ORCA SCF
-------------------------------------------------------------------------------

------------
SCF SETTINGS
------------
Hamiltonian:
 Density Functional     Method          .... DFT(GTOs)
  Functional kind                       .... Exchange
  Functional name                       .... Re-regularized SCAN exchange by Furness et al
  Functional family                     .... MGGA
  Functional refs                              
    [ 0] J. W. Furness, A. D. Kaplan, J. Ning, J. P. Perdew, and J. Sun, J. Phys. Chem. Lett. 11, 8208 (2020)
    [ 1] J. W. Furness, A. D. Kaplan, J. Ning, J. P. Perdew, and J. Sun, J. Phys. Chem. Lett. 11, 9248 (2020)
  Functional external parameters         .... 8
 Parameter  0 :         c1 parameter
 Parameter  1 :         c2 parameter
 Parameter  2 :          d parameter
 Parameter  3 :         k1 parameter
 Parameter  4 :       taur parameter
 Parameter  5 :     alphar parameter
 Parameter  6 :        eta parameter
 Parameter  7 :        dp2 parameter
  Functional kind                       .... Correlation
  Functional name                       .... Re-regularized SCAN correlation by Furness et al
  Functional family                     .... MGGA
  Functional refs                              
    [ 0] J. W. Furness, A. D. Kaplan, J. Ning, J. P. Perdew, and J. Sun, J. Phys. Chem. Lett. 11, 8208 (2020)
    [ 1] J. W. Furness, A. D. Kaplan, J. Ning, J. P. Perdew, and J. Sun, J. Phys. Chem. Lett. 11, 9248 (2020)
  Functional external parameters         .... 0
 Gradients option       PostSCFGGA      .... off
   Density functional embedding theory  .... OFF
   NL short-range parameter             .... 12.300000
 RI-approximation to the Coulomb term is turned on
   Number of AuxJ basis functions       .... 1513


General Settings:
 Integral files         IntName         .... scan
 Hartree-Fock type      HFTyp           .... UHF
 Total Charge           Charge          ....    0
 Multiplicity           Mult            ....    6
 Number of Electrons    NEL             ....  329
 Basis Dimension        Dim             ....  685
 Nuclear Repulsion      ENuc            ....   7090.3204243356 Eh

Convergence Acceleration:
 DIIS                   CNVDIIS         .... off
 Trust-Rad. Augm. Hess. CNVTRAH         .... auto
   Auto Start mean grad. ratio tolernc. ....  1.125000
   Auto Start start iteration           ....   200
   Auto Start num. interpolation iter.  ....    10
   Max. Number of Micro iterations      ....    16
   Max. Number of Macro iterations      .... Maxiter - #DIIS iter
   Number of Davidson start vectors     ....     2
   Converg. threshold I  (grad. norm)   ....   5.000e-05
   Converg. threshold II (energy diff.) ....   1.000e-06
   Grad. Scal. Fac. for Micro threshold ....   0.100
   Minimum threshold for Micro iter.    ....   0.010
   NR start threshold (gradient norm)   ....   0.001
   Initial trust radius                 ....   0.400
   Minimum AH scaling param. (alpha)    ....   1.000
   Maximum AH scaling param. (alpha)    .... 1000.000
   Orbital update algorithm             .... Taylor
   White noise on init. David. guess    .... on
   Maximum white noise                  ....   0.010
   Quad. conv. algorithm                .... NR
 SOSCF                  CNVSOSCF        .... off
 Level Shifting         CNVShift        .... off
 Zerner damping         CNVZerner       .... off
 Static damping         CNVDamp         .... off
 Fernandez-Rico         CNVRico         .... off

SCF Procedure:
 Maximum # iterations   MaxIter         ....   400
 SCF integral mode      SCFMode         .... Direct
   Integral package                     .... SHARK and LIBINT hybrid scheme
 Reset frequency        DirectResetFreq ....    20
 Integral Threshold     Thresh          ....  1.000e-10 Eh
 Primitive CutOff       TCut            ....  1.000e-11 Eh

Convergence Tolerance:
 Convergence Check Mode ConvCheckMode   .... All-Criteria
 Convergence forced     ConvForced      .... 0
 Energy Change          TolE            ....  1.000e-06 Eh
 Max Density Change     TolMaxP         ....  1.000e-05
 RMS Density Change     TolRMSP         ....  1.000e-06


Diagonalization of the overlap matrix:
Smallest eigenvalue                        ... 2.740e-04
Time for diagonalization                   ...    0.146 sec
Threshold for overlap eigenvalues          ... 1.000e-08
Number of eigenvalues below threshold      ... 0
Time for construction of square roots      ...    0.163 sec
Total time needed                          ...    0.312 sec

Time for model grid setup =    1.101 sec

------------------------------
INITIAL GUESS: MODEL POTENTIAL
------------------------------
Loading Hartree-Fock densities                     ... done
  calling /home/ehlert/src/miniconda3/envs/orca500/Programs/ORCA501/orca scan_atom79.inp > scan_atom79.out in order to generate an atomic fitting density for atom 0 (Au with ECP) on-the-fly... 
    atom 0 (Au), assumed electronic state with S=2: 1s2 2s2 2p6 3s2 3p6 4s2 3d10 4p6 5s2 4d10 5p6 6s1 4f14 5d10           ... done
Calculating cut-offs                               ... done
Initializing the effective Hamiltonian             ... done
Setting up the integral package (SHARK)            ... done
Starting the Coulomb interaction                   ... done (   1.5 sec)
Reading the grid                                   ... done
Mapping shells                                     ... done
Starting the XC term evaluation                    ... done (   1.4 sec)
  promolecular density results
     # of electrons  =   1289.015444438
     EX              =  -5903.822075961
     EC              =    -78.635845863
     EX+EC           =  -5982.457921824
Transforming the Hamiltonian                       ... done (   0.2 sec)
Diagonalizing the Hamiltonian                      ... done (   0.2 sec)
Back transforming the eigenvectors                 ... done (   0.1 sec)
Now organizing SCF variables                       ... done
                      ------------------
                      INITIAL GUESS DONE (   5.5 sec)
                      ------------------
-------------------
DFT GRID GENERATION
-------------------

General Integration Accuracy     IntAcc      ... 4.388
Radial Grid Type                 RadialGrid  ... OptM3 with GC (2021)
Angular Grid (max. ang.)         AngularGrid ... 4 (Lebedev-302)
Angular grid pruning method      GridPruning ... 4 (adaptive)
Weight generation scheme         WeightScheme... Becke
Basis function cutoff            BFCut       ... 1.0000e-10
Integration weight cutoff        WCut        ... 1.0000e-14
Angular grids for H and He will be reduced by one unit
Partially contracted basis set               ... off
Rotationally invariant grid construction     ... off

Total number of grid points                  ...   186667
Total number of batches                      ...     2926
Average number of points per batch           ...       63
Average number of grid points per atom       ...    10980
Time for grid setup =    3.406 sec

--------------
SCF ITERATIONS
--------------
ITER       Energy         Delta-E        Max-DP      RMS-DP      [F,P]   Gradient Norm
               ***  Starting incremental Fock matrix formation  ***
                             ****Resetting KDIIS****
                             ****Turning on KDIIS(Cayley)****
  0  -3322.0244973286   0.000000000000 0.19865300  0.00113313  0.4718640   0.227148079
  1  -3323.3872189559  -1.362721627256 0.49053021  0.00160187  0.2905582   0.172477527
  2  -3323.9893208440  -0.602101888115 0.14646687  0.00126741  0.2298433   0.129952876
  3  -3324.3388848614  -0.349564017340 0.18756029  0.00155224  0.1346170   0.076726408
  4  -3324.4814944697  -0.142609608384 0.09826571  0.00077756  0.0343100   0.024359896
  5  -3324.5428487645  -0.061354294763 0.19818060  0.00055328  0.0264007   0.009923420
  6  -3324.5840569573  -0.041208192784 0.14072631  0.00111024  0.0307614   0.006797299
  7  -3324.6228027431  -0.038745785770 0.03853822  0.00032825  0.0060974   0.006155164
  8  -3324.6191245768   0.003678166229 0.02563432  0.00024764  0.0060753   0.008131404
  9  -3324.6289815458  -0.009856969001 0.01510354  0.00007552  0.0064931   0.003558014
 10  -3324.6301176235  -0.001136077707 0.01466481  0.00007077  0.0036553   0.001574895
 11  -3324.6305041505  -0.000386526997 0.00899210  0.00004662  0.0040357   0.001996230
 12  -3324.6308340586  -0.000329908053 0.00481487  0.00002176  0.0014130   0.000781029
 13  -3324.6308535475  -0.000019488870 0.00204717  0.00002040  0.0012382   0.000660769
 14  -3324.6309274700  -0.000073922572 0.00219509  0.00001700  0.0005865   0.000391126
 15  -3324.6309800869  -0.000052616846 0.00253700  0.00001020  0.0004646   0.000239012
 16  -3324.6309640289   0.000016057922 0.00257368  0.00001749  0.0003686   0.000310234
 17  -3324.6309867779  -0.000022748977 0.00039731  0.00000491  0.0002702   0.000129430
 18  -3324.6309910417  -0.000004263822 0.00180384  0.00001285  0.0002845   0.000135851
 19  -3324.6310026559  -0.000011614198 0.00064871  0.00000343  0.0002044   0.000122430
               *** Restarting incremental Fock matrix formation ***
                             ****Resetting KDIIS****
                           ***RMSP convergence achieved***
 20  -3324.6309981877   0.000004468206 0.00010277  0.00000066  0.0001899   0.000078760
                          ***Energy convergence achieved***
 21  -3324.6309987289  -0.000000541182 0.00026888  0.00000090  0.0001801   0.000052900
 22  -3324.6309990050  -0.000000276081 0.00077531  0.00000236  0.0001710   0.000043609
 23  -3324.6310001781  -0.000001173058 0.00287764  0.00001162  0.0001517   0.000032184
                          ***Energy convergence achieved***
 24  -3324.6310003108  -0.000000132735 0.00033083  0.00000197  0.0000438   0.000039156
 25  -3324.6310011193  -0.000000808544 0.00162123  0.00000331  0.0000306   0.000007541
                           ***RMSP convergence achieved***
 26  -3324.6310009911   0.000000128213 0.00010858  0.00000043  0.0000283   0.000012598
 27  -3324.6310014717  -0.000000480527 0.00013936  0.00000060  0.0000227   0.000004296
 28  -3324.6310012402   0.000000231490 0.00024213  0.00000102  0.0000173   0.000004195
                           ***RMSP convergence achieved***

            ***Energy convergence in two consecutive cycles with***
                    ***'reasonable' density convergence***
                       *** signaling convergence ***

                    *** KDIIS BlockDiag ( 0.376 sec) ***

               *****************************************************
               *                     SUCCESS                       *
               *           SCF CONVERGED AFTER  29 CYCLES          *
               *****************************************************


----------------
TOTAL SCF ENERGY
----------------

Total Energy       :        -3324.63100120 Eh          -90467.80884 eV

Components:
Nuclear Repulsion  :         7090.32042434 Eh          192937.42750 eV
Electronic Energy  :       -10414.95142554 Eh         -283405.23633 eV
One Electron Energy:       -19574.73754422 Eh         -532655.68827 eV
Two Electron Energy:         9159.78611868 Eh          249250.45194 eV

Virial components:
Potential Energy   :        -5207.78826843 Eh         -141711.12324 eV
Kinetic Energy     :         1883.15726723 Eh           51243.31440 eV
Virial Ratio       :            2.76545584


DFT components:
N(Alpha)           :      166.999899497276 electrons
N(Beta)            :      161.999894536628 electrons
N(Total)           :      328.999794033903 electrons
E(X)               :     -245.432452079045 Eh       
E(C)               :      -13.655303620497 Eh       
E(XC)              :     -259.087755699542 Eh       
DFET-embed. en.    :        0.000000000000 Eh       

---------------
SCF CONVERGENCE
---------------

  Last Energy change         ...    3.9017e-08  Tolerance :   1.0000e-06
  Last MAX-Density change    ...    7.5074e-05  Tolerance :   1.0000e-05
  Last RMS-Density change    ...    2.7670e-07  Tolerance :   1.0000e-06

             **** THE GBW FILE WAS UPDATED (scan.gbw) ****
             **** DENSITY scan.scfp WAS UPDATED ****
             **** ENERGY FILE WAS UPDATED (scan.en.tmp) ****
----------------------
UHF SPIN CONTAMINATION
----------------------

Warning: in a DFT calculation there is little theoretical justification to 
         calculate <S**2> as in Hartree-Fock theory. We will do it anyways
         but you should keep in mind that the values have only limited relevance

Expectation value of <S**2>     :     8.763694
Ideal value S*(S+1) for S=2.5   :     8.750000
Deviation                       :     0.013694

             **** THE GBW FILE WAS UPDATED (scan.gbw) ****
             **** DENSITY scan.scfp WAS UPDATED ****
----------------
ORBITAL ENERGIES
----------------
                 SPIN UP ORBITALS
  NO   OCC          E(Eh)            E(eV) 
   0   1.0000    -235.054093     -6396.1470 
   1   1.0000     -27.230624      -740.9829 
   2   1.0000     -23.277367      -633.4094 
   3   1.0000     -23.276936      -633.3976 
   4   1.0000     -23.276922      -633.3973 
   5   1.0000      -4.128936      -112.3541 
   6   1.0000      -4.128069      -112.3305 
   7   1.0000      -4.127622      -112.3183 
   8   1.0000      -4.126739      -112.2943 
   9   1.0000      -4.125527      -112.2613 
  10   1.0000      -4.124816      -112.2419 
  11   1.0000      -4.124268      -112.2270 
  12   1.0000      -4.123930      -112.2178 
  13   1.0000      -4.120524      -112.1252 
  14   1.0000      -4.120449      -112.1231 
  15   1.0000      -4.119126      -112.0871 
  16   1.0000      -4.118971      -112.0829 
  17   1.0000      -4.118860      -112.0799 
  18   1.0000      -4.117725      -112.0490 
  19   1.0000      -4.116315      -112.0106 
  20   1.0000      -4.114464      -111.9603 
  21   1.0000      -3.256641       -88.6177 
  22   1.0000      -2.317272       -63.0562 
  23   1.0000      -2.317081       -63.0510 
  24   1.0000      -2.316011       -63.0219 
  25   1.0000      -2.315329       -63.0033 
  26   1.0000      -2.314480       -62.9802 
  27   1.0000      -2.313502       -62.9536 
  28   1.0000      -2.313427       -62.9515 
  29   1.0000      -2.312949       -62.9385 
  30   1.0000      -2.312720       -62.9323 
  31   1.0000      -2.312681       -62.9312 
  32   1.0000      -2.312407       -62.9238 
  33   1.0000      -2.312182       -62.9177 
  34   1.0000      -2.311816       -62.9077 
  35   1.0000      -2.311731       -62.9054 
  36   1.0000      -2.311032       -62.8864 
  37   1.0000      -2.310513       -62.8722 
  38   1.0000      -2.310319       -62.8670 
  39   1.0000      -2.309994       -62.8581 
  40   1.0000      -2.309935       -62.8565 
  41   1.0000      -2.309500       -62.8447 
  42   1.0000      -2.309297       -62.8392 
  43   1.0000      -2.309263       -62.8383 
  44   1.0000      -2.309059       -62.8327 
  45   1.0000      -2.308447       -62.8160 
  46   1.0000      -2.308146       -62.8078 
  47   1.0000      -2.307872       -62.8004 
  48   1.0000      -2.306212       -62.7552 
  49   1.0000      -2.305838       -62.7450 
  50   1.0000      -2.305656       -62.7401 
  51   1.0000      -2.305024       -62.7229 
  52   1.0000      -2.304930       -62.7203 
  53   1.0000      -2.304725       -62.7148 
  54   1.0000      -2.304456       -62.7074 
  55   1.0000      -2.304131       -62.6986 
  56   1.0000      -2.303940       -62.6934 
  57   1.0000      -2.303660       -62.6858 
  58   1.0000      -2.303465       -62.6805 
  59   1.0000      -2.302805       -62.6625 
  60   1.0000      -2.302744       -62.6609 
  61   1.0000      -2.302464       -62.6532 
  62   1.0000      -2.302372       -62.6507 
  63   1.0000      -2.302336       -62.6498 
  64   1.0000      -2.301599       -62.6297 
  65   1.0000      -2.301148       -62.6174 
  66   1.0000      -2.300766       -62.6070 
  67   1.0000      -2.300383       -62.5966 
  68   1.0000      -2.300193       -62.5914 
  69   1.0000      -2.298990       -62.5587 
  70   1.0000      -2.113810       -57.5197 
  71   1.0000      -2.113197       -57.5030 
  72   1.0000      -2.113110       -57.5007 
  73   1.0000      -0.446543       -12.1510 
  74   1.0000      -0.403477       -10.9792 
  75   1.0000      -0.403030       -10.9670 
  76   1.0000      -0.398744       -10.8504 
  77   1.0000      -0.391306       -10.6480 
  78   1.0000      -0.389471       -10.5980 
  79   1.0000      -0.388105       -10.5609 
  80   1.0000      -0.385238       -10.4828 
  81   1.0000      -0.384030       -10.4500 
  82   1.0000      -0.382372       -10.4049 
  83   1.0000      -0.376216       -10.2374 
  84   1.0000      -0.373786       -10.1712 
  85   1.0000      -0.370900       -10.0927 
  86   1.0000      -0.368663       -10.0318 
  87   1.0000      -0.367018        -9.9871 
  88   1.0000      -0.365453        -9.9445 
  89   1.0000      -0.364329        -9.9139 
  90   1.0000      -0.363425        -9.8893 
  91   1.0000      -0.362663        -9.8686 
  92   1.0000      -0.361616        -9.8401 
  93   1.0000      -0.361278        -9.8309 
  94   1.0000      -0.358824        -9.7641 
  95   1.0000      -0.357577        -9.7302 
  96   1.0000      -0.356882        -9.7113 
  97   1.0000      -0.355279        -9.6676 
  98   1.0000      -0.351821        -9.5735 
  99   1.0000      -0.347870        -9.4660 
 100   1.0000      -0.346522        -9.4293 
 101   1.0000      -0.344903        -9.3853 
 102   1.0000      -0.342442        -9.3183 
 103   1.0000      -0.341221        -9.2851 
 104   1.0000      -0.338087        -9.1998 
 105   1.0000      -0.337115        -9.1734 
 106   1.0000      -0.332535        -9.0487 
 107   1.0000      -0.332125        -9.0376 
 108   1.0000      -0.328724        -8.9450 
 109   1.0000      -0.327159        -8.9025 
 110   1.0000      -0.324658        -8.8344 
 111   1.0000      -0.320610        -8.7242 
 112   1.0000      -0.319109        -8.6834 
 113   1.0000      -0.315893        -8.5959 
 114   1.0000      -0.311418        -8.4741 
 115   1.0000      -0.309042        -8.4095 
 116   1.0000      -0.308793        -8.4027 
 117   1.0000      -0.304284        -8.2800 
 118   1.0000      -0.302345        -8.2272 
 119   1.0000      -0.298988        -8.1359 
 120   1.0000      -0.297062        -8.0835 
 121   1.0000      -0.295474        -8.0403 
 122   1.0000      -0.294470        -8.0129 
 123   1.0000      -0.293379        -7.9833 
 124   1.0000      -0.291839        -7.9413 
 125   1.0000      -0.289927        -7.8893 
 126   1.0000      -0.288367        -7.8469 
 127   1.0000      -0.286158        -7.7868 
 128   1.0000      -0.285735        -7.7752 
 129   1.0000      -0.285125        -7.7586 
 130   1.0000      -0.284376        -7.7383 
 131   1.0000      -0.282703        -7.6927 
 132   1.0000      -0.282284        -7.6813 
 133   1.0000      -0.281251        -7.6532 
 134   1.0000      -0.280057        -7.6207 
 135   1.0000      -0.279119        -7.5952 
 136   1.0000      -0.277995        -7.5646 
 137   1.0000      -0.277485        -7.5508 
 138   1.0000      -0.275669        -7.5013 
 139   1.0000      -0.274479        -7.4689 
 140   1.0000      -0.273671        -7.4470 
 141   1.0000      -0.272306        -7.4098 
 142   1.0000      -0.271493        -7.3877 
 143   1.0000      -0.270951        -7.3730 
 144   1.0000      -0.268038        -7.2937 
 145   1.0000      -0.267451        -7.2777 
 146   1.0000      -0.266273        -7.2457 
 147   1.0000      -0.263966        -7.1829 
 148   1.0000      -0.263775        -7.1777 
 149   1.0000      -0.263174        -7.1613 
 150   1.0000      -0.262293        -7.1374 
 151   1.0000      -0.261681        -7.1207 
 152   1.0000      -0.260552        -7.0900 
 153   1.0000      -0.258075        -7.0226 
 154   1.0000      -0.256785        -6.9875 
 155   1.0000      -0.256173        -6.9708 
 156   1.0000      -0.255992        -6.9659 
 157   1.0000      -0.253486        -6.8977 
 158   1.0000      -0.250496        -6.8163 
 159   1.0000      -0.246628        -6.7111 
 160   1.0000      -0.244770        -6.6605 
 161   1.0000      -0.242675        -6.6035 
 162   1.0000      -0.226428        -6.1614 
 163   1.0000      -0.220898        -6.0109 
 164   1.0000      -0.213176        -5.8008 
 165   1.0000      -0.208659        -5.6779 
 166   1.0000      -0.204873        -5.5749 
 167   0.0000      -0.157481        -4.2853 
 168   0.0000      -0.139656        -3.8002 
 169   0.0000      -0.131299        -3.5728 
 170   0.0000      -0.128894        -3.5074 
 171   0.0000      -0.124223        -3.3803 
 172   0.0000      -0.122334        -3.3289 
 173   0.0000      -0.118549        -3.2259 
 174   0.0000      -0.107021        -2.9122 
 175   0.0000      -0.079851        -2.1729 
 176   0.0000      -0.073748        -2.0068 
 177   0.0000      -0.072756        -1.9798 
 178   0.0000      -0.039397        -1.0720 
 179   0.0000      -0.037953        -1.0327 
 180   0.0000      -0.024159        -0.6574 
 181   0.0000      -0.023139        -0.6297 
 182   0.0000      -0.019230        -0.5233 
 183   0.0000      -0.010515        -0.2861 
 184   0.0000      -0.006083        -0.1655 
 185   0.0000      -0.002914        -0.0793 
 186   0.0000       0.002869         0.0781 
 187   0.0000       0.004095         0.1114 
 188   0.0000       0.006336         0.1724 
 189   0.0000       0.029447         0.8013 
 190   0.0000       0.030294         0.8244 
 191   0.0000       0.035832         0.9750 
 192   0.0000       0.038935         1.0595 
 193   0.0000       0.057147         1.5550 
 194   0.0000       0.069354         1.8872 
 195   0.0000       0.071898         1.9565 
 196   0.0000       0.074059         2.0153 
 197   0.0000       0.075562         2.0561 
 198   0.0000       0.076681         2.0866 
 199   0.0000       0.078455         2.1349 
 200   0.0000       0.081079         2.2063 
 201   0.0000       0.082598         2.2476 
 202   0.0000       0.083189         2.2637 
 203   0.0000       0.085398         2.3238 
 204   0.0000       0.087325         2.3762 
 205   0.0000       0.089127         2.4253 
 206   0.0000       0.092561         2.5187 
 207   0.0000       0.095415         2.5964 
 208   0.0000       0.097471         2.6523 
 209   0.0000       0.107315         2.9202 
 210   0.0000       0.112594         3.0638 
 211   0.0000       0.116844         3.1795 
 212   0.0000       0.123243         3.3536 
 213   0.0000       0.129659         3.5282 
 214   0.0000       0.143563         3.9065 
 215   0.0000       0.147018         4.0006 
 216   0.0000       0.150418         4.0931 
 217   0.0000       0.153657         4.1812 
 218   0.0000       0.160835         4.3765 
 219   0.0000       0.163124         4.4388 
 220   0.0000       0.165601         4.5062 
 221   0.0000       0.168266         4.5787 
 222   0.0000       0.169641         4.6162 
 223   0.0000       0.172109         4.6833 
 224   0.0000       0.174304         4.7431 
 225   0.0000       0.176020         4.7898 
 226   0.0000       0.177921         4.8415 
 227   0.0000       0.180271         4.9054 
 228   0.0000       0.182018         4.9530 
 229   0.0000       0.186566         5.0767 
 230   0.0000       0.191605         5.2138 
 231   0.0000       0.196619         5.3503 
 232   0.0000       0.212401         5.7797 
 233   0.0000       0.216358         5.8874 
 234   0.0000       0.220784         6.0078 
 235   0.0000       0.224446         6.1075 
 236   0.0000       0.227600         6.1933 
 237   0.0000       0.230292         6.2666 
 238   0.0000       0.235206         6.4003 
 239   0.0000       0.238192         6.4815 
 240   0.0000       0.245205         6.6724 
 241   0.0000       0.248300         6.7566 
 242   0.0000       0.252460         6.8698 
 243   0.0000       0.257377         7.0036 
 244   0.0000       0.264928         7.2091 
 245   0.0000       0.267241         7.2720 
 246   0.0000       0.268371         7.3027 
 247   0.0000       0.273521         7.4429 
 248   0.0000       0.278525         7.5791 
 249   0.0000       0.281521         7.6606 
 250   0.0000       0.282061         7.6753 
 251   0.0000       0.286497         7.7960 
 252   0.0000       0.294554         8.0152 
 253   0.0000       0.298398         8.1198 
 254   0.0000       0.303515         8.2591 
 255   0.0000       0.309301         8.4165 
 256   0.0000       0.311697         8.4817 
 257   0.0000       0.316961         8.6249 
 258   0.0000       0.321601         8.7512 
 259   0.0000       0.326809         8.8929 
 260   0.0000       0.330862         9.0032 
 261   0.0000       0.333233         9.0677 
 262   0.0000       0.337511         9.1841 
 263   0.0000       0.342675         9.3247 
 264   0.0000       0.345984         9.4147 
 265   0.0000       0.348381         9.4799 
 266   0.0000       0.351683         9.5698 
 267   0.0000       0.358695         9.7606 
 268   0.0000       0.359634         9.7861 
 269   0.0000       0.360951         9.8220 
 270   0.0000       0.364079         9.9071 
 271   0.0000       0.378162        10.2903 
 272   0.0000       0.379526        10.3274 
 273   0.0000       0.384901        10.4737 
 274   0.0000       0.393820        10.7164 
 275   0.0000       0.401260        10.9189 
 276   0.0000       0.403689        10.9849 
 277   0.0000       0.406646        11.0654 
 278   0.0000       0.411982        11.2106 
 279   0.0000       0.414739        11.2856 
 280   0.0000       0.418769        11.3953 
 281   0.0000       0.422146        11.4872 
 282   0.0000       0.430194        11.7062 
 283   0.0000       0.430699        11.7199 
 284   0.0000       0.432838        11.7781 
 285   0.0000       0.436202        11.8697 
 286   0.0000       0.439186        11.9509 
 287   0.0000       0.443265        12.0619 
 288   0.0000       0.450600        12.2614 
 289   0.0000       0.459286        12.4978 
 290   0.0000       0.463254        12.6058 
 291   0.0000       0.463950        12.6247 
 292   0.0000       0.466817        12.7027 
 293   0.0000       0.473535        12.8855 
 294   0.0000       0.480319        13.0701 
 295   0.0000       0.484464        13.1829 
 296   0.0000       0.488292        13.2871 
 297   0.0000       0.493856        13.4385 
 298   0.0000       0.494845        13.4654 
 299   0.0000       0.498384        13.5617 
 300   0.0000       0.503098        13.6900 
 301   0.0000       0.505412        13.7530 
 302   0.0000       0.506921        13.7940 
 303   0.0000       0.510072        13.8798 
 304   0.0000       0.514857        14.0100 
 305   0.0000       0.520883        14.1739 
 306   0.0000       0.522373        14.2145 
 307   0.0000       0.525537        14.3006 
 308   0.0000       0.530287        14.4298 
 309   0.0000       0.532172        14.4811 
 310   0.0000       0.533653        14.5214 
 311   0.0000       0.535449        14.5703 
 312   0.0000       0.540803        14.7160 
 313   0.0000       0.550847        14.9893 
 314   0.0000       0.551643        15.0110 
 315   0.0000       0.558769        15.2049 
 316   0.0000       0.560895        15.2627 
 317   0.0000       0.566122        15.4050 
 318   0.0000       0.571638        15.5551 
 319   0.0000       0.578268        15.7355 
 320   0.0000       0.580628        15.7997 
 321   0.0000       0.583645        15.8818 
 322   0.0000       0.588749        16.0207 
 323   0.0000       0.589762        16.0483 
 324   0.0000       0.607977        16.5439 
 325   0.0000       0.614499        16.7214 
 326   0.0000       0.620693        16.8899 
 327   0.0000       0.638126        17.3643 
 328   0.0000       0.688684        18.7400 
 329   0.0000       0.693404        18.8685 
 330   0.0000       0.702567        19.1178 
 331   0.0000       0.711452        19.3596 
 332   0.0000       0.719657        19.5829 
 333   0.0000       0.732271        19.9261 
 334   0.0000       0.732850        19.9419 
 335   0.0000       0.745060        20.2741 
 336   0.0000       0.752228        20.4692 
 337   0.0000       0.760416        20.6920 
 338   0.0000       0.762160        20.7394 
 339   0.0000       0.766508        20.8577 
 340   0.0000       0.773122        21.0377 
 341   0.0000       0.781344        21.2615 
 342   0.0000       0.794329        21.6148 
 343   0.0000       0.797660        21.7054 
 344   0.0000       0.809570        22.0295 
 345   0.0000       0.817348        22.2412 
 346   0.0000       0.821853        22.3638 
 347   0.0000       0.832854        22.6631 
 348   0.0000       0.841965        22.9110 
 349   0.0000       0.848580        23.0910 
 350   0.0000       0.856276        23.3004 
 351   0.0000       0.861603        23.4454 
 352   0.0000       0.873118        23.7587 
 353   0.0000       0.877553        23.8794 
 354   0.0000       0.885475        24.0950 
 355   0.0000       0.890630        24.2353 
 356   0.0000       0.894734        24.3470 
 357   0.0000       0.904411        24.6103 
 358   0.0000       0.906368        24.6635 
 359   0.0000       0.913521        24.8582 
 360   0.0000       0.921365        25.0716 
 361   0.0000       0.925450        25.1828 
 362   0.0000       0.936777        25.4910 
 363   0.0000       0.945778        25.7359 
 364   0.0000       0.948250        25.8032 
 365   0.0000       0.957217        26.0472 
 366   0.0000       0.965994        26.2860 
 367   0.0000       0.980407        26.6782 
 368   0.0000       0.982260        26.7287 
 369   0.0000       0.990094        26.9418 
 370   0.0000       1.003977        27.3196 
 371   0.0000       1.009100        27.4590 
 372   0.0000       1.020605        27.7721 
 373   0.0000       1.070159        29.1205 
 374   0.0000       1.088904        29.6306 
 375   0.0000       1.122630        30.5483 
 376   0.0000       1.176890        32.0248 
 377   0.0000       1.186140        32.2765 
 378   0.0000       1.223638        33.2969 
 379   0.0000       1.232329        33.5334 
 380   0.0000       1.257615        34.2214 
 381   0.0000       1.265029        34.4232 
 382   0.0000       1.271859        34.6091 
 383   0.0000       1.286449        35.0061 
 384   0.0000       1.291315        35.1385 
 385   0.0000       1.297658        35.3111 
 386   0.0000       1.299670        35.3658 
 387   0.0000       1.305723        35.5305 
 388   0.0000       1.319874        35.9156 
 389   0.0000       1.325688        36.0738 
 390   0.0000       1.330907        36.2158 
 391   0.0000       1.337440        36.3936 
 392   0.0000       1.344902        36.5966 
 393   0.0000       1.355157        36.8757 
 394   0.0000       1.366656        37.1886 
 395   0.0000       1.370154        37.2838 
 396   0.0000       1.372689        37.3528 
 397   0.0000       1.384405        37.6716 
 398   0.0000       1.385978        37.7144 
 399   0.0000       1.387647        37.7598 
 400   0.0000       1.396795        38.0087 
 401   0.0000       1.404271        38.2122 
 402   0.0000       1.409975        38.3674 
 403   0.0000       1.417544        38.5733 
 404   0.0000       1.426304        38.8117 
 405   0.0000       1.434188        39.0262 
 406   0.0000       1.439375        39.1674 
 407   0.0000       1.445628        39.3375 
 408   0.0000       1.455695        39.6115 
 409   0.0000       1.459275        39.7089 
 410   0.0000       1.460657        39.7465 
 411   0.0000       1.465089        39.8671 
 412   0.0000       1.470667        40.0189 
 413   0.0000       1.474567        40.1250 
 414   0.0000       1.477452        40.2035 
 415   0.0000       1.480089        40.2753 
 416   0.0000       1.481759        40.3207 
 417   0.0000       1.484985        40.4085 
 418   0.0000       1.486871        40.4598 
 419   0.0000       1.491699        40.5912 
 420   0.0000       1.494782        40.6751 
 421   0.0000       1.498274        40.7701 
 422   0.0000       1.500068        40.8189 
 423   0.0000       1.503808        40.9207 
 424   0.0000       1.506338        40.9895 
 425   0.0000       1.509054        41.0634 
 426   0.0000       1.510383        41.0996 
 427   0.0000       1.512137        41.1473 
 428   0.0000       1.515244        41.2319 
 429   0.0000       1.519113        41.3372 
 430   0.0000       1.524310        41.4786 
 431   0.0000       1.527559        41.5670 
 432   0.0000       1.531697        41.6796 
 433   0.0000       1.532062        41.6895 
 434   0.0000       1.533838        41.7378 
 435   0.0000       1.535352        41.7791 
 436   0.0000       1.538610        41.8677 
 437   0.0000       1.541418        41.9441 
 438   0.0000       1.543457        41.9996 
 439   0.0000       1.545156        42.0458 
 440   0.0000       1.547150        42.1001 
 441   0.0000       1.547802        42.1178 
 442   0.0000       1.549300        42.1586 
 443   0.0000       1.551328        42.2138 
 444   0.0000       1.553504        42.2730 
 445   0.0000       1.554398        42.2973 
 446   0.0000       1.556259        42.3480 
 447   0.0000       1.557443        42.3802 
 448   0.0000       1.559054        42.4240 
 449   0.0000       1.560824        42.4722 
 450   0.0000       1.562766        42.5250 
 451   0.0000       1.563432        42.5431 
 452   0.0000       1.564668        42.5768 
 453   0.0000       1.565145        42.5898 
 454   0.0000       1.566523        42.6273 
 455   0.0000       1.568087        42.6698 
 456   0.0000       1.570123        42.7252 
 457   0.0000       1.570906        42.7465 
 458   0.0000       1.572629        42.7934 
 459   0.0000       1.572813        42.7984 
 460   0.0000       1.573445        42.8156 
 461   0.0000       1.574195        42.8360 
 462   0.0000       1.575494        42.8714 
 463   0.0000       1.576956        42.9112 
 464   0.0000       1.577590        42.9284 
 465   0.0000       1.579992        42.9938 
 466   0.0000       1.580835        43.0167 
 467   0.0000       1.581784        43.0425 
 468   0.0000       1.583181        43.0806 
 469   0.0000       1.584263        43.1100 
 470   0.0000       1.585791        43.1516 
 471   0.0000       1.586112        43.1603 
 472   0.0000       1.590094        43.2687 
 473   0.0000       1.590769        43.2870 
 474   0.0000       1.592225        43.3267 
 475   0.0000       1.593062        43.3494 
 476   0.0000       1.595385        43.4126 
 477   0.0000       1.597780        43.4778 
 478   0.0000       1.600021        43.5388 
 479   0.0000       1.600708        43.5575 
 480   0.0000       1.605159        43.6786 
 481   0.0000       1.606766        43.7223 
 482   0.0000       1.612116        43.8679 
 483   0.0000       1.615307        43.9547 
 484   0.0000       1.617348        44.0103 
 485   0.0000       1.620830        44.1050 
 486   0.0000       1.621408        44.1208 
 487   0.0000       1.623300        44.1722 
 488   0.0000       1.624091        44.1938 
 489   0.0000       1.627126        44.2763 
 490   0.0000       1.628632        44.3173 
 491   0.0000       1.629803        44.3492 
 492   0.0000       1.635062        44.4923 
 493   0.0000       1.635742        44.5108 
 494   0.0000       1.637644        44.5626 
 495   0.0000       1.639754        44.6200 
 496   0.0000       1.641870        44.6776 
 497   0.0000       1.645110        44.7657 
 498   0.0000       1.648224        44.8505 
 499   0.0000       1.650930        44.9241 
 500   0.0000       1.651785        44.9474 
 501   0.0000       1.654285        45.0154 
 502   0.0000       1.657020        45.0898 
 503   0.0000       1.657685        45.1079 
 504   0.0000       1.663334        45.2616 
 505   0.0000       1.664948        45.3055 
 506   0.0000       1.666640        45.3516 
 507   0.0000       1.668054        45.3901 
 508   0.0000       1.669926        45.4410 
 509   0.0000       1.672777        45.5186 
 510   0.0000       1.674122        45.5552 
 511   0.0000       1.677596        45.6497 
 512   0.0000       1.678653        45.6785 
 513   0.0000       1.683747        45.8171 
 514   0.0000       1.688157        45.9371 
 515   0.0000       1.690331        45.9963 
 516   0.0000       1.693520        46.0830 
 517   0.0000       1.696119        46.1537 
 518   0.0000       1.698532        46.2194 
 519   0.0000       1.699729        46.2520 
 520   0.0000       1.704869        46.3918 
 521   0.0000       1.707501        46.4635 
 522   0.0000       1.711987        46.5855 
 523   0.0000       1.714278        46.6479 
 524   0.0000       1.719701        46.7954 
 525   0.0000       1.723637        46.9025 
 526   0.0000       1.728284        47.0290 
 527   0.0000       1.735078        47.2139 
 528   0.0000       1.744728        47.4765 
 529   0.0000       1.746094        47.5136 
 530   0.0000       1.751746        47.6674 
 531   0.0000       1.757935        47.8359 
 532   0.0000       1.766895        48.0797 
 533   0.0000       1.772427        48.2302 
 534   0.0000       1.778387        48.3924 
 535   0.0000       1.782356        48.5004 
 536   0.0000       1.795426        48.8560 
 537   0.0000       1.799577        48.9690 
 538   0.0000       1.804696        49.1083 
 539   0.0000       1.812243        49.3136 
 540   0.0000       1.815556        49.4038 
 541   0.0000       1.818186        49.4754 
 542   0.0000       1.828874        49.7662 
 543   0.0000       1.838663        50.0326 
 544   0.0000       1.843894        50.1749 
 545   0.0000       1.847865        50.2830 
 546   0.0000       1.850002        50.3411 
 547   0.0000       1.853774        50.4437 
 548   0.0000       1.857047        50.5328 
 549   0.0000       1.866772        50.7975 
 550   0.0000       1.869539        50.8727 
 551   0.0000       1.877039        51.0768 
 552   0.0000       1.884743        51.2865 
 553   0.0000       1.889524        51.4166 
 554   0.0000       1.891732        51.4766 
 555   0.0000       1.895486        51.5788 
 556   0.0000       1.903447        51.7954 
 557   0.0000       1.907635        51.9094 
 558   0.0000       1.921019        52.2736 
 559   0.0000       1.932249        52.5792 
 560   0.0000       1.935287        52.6618 
 561   0.0000       1.940254        52.7970 
 562   0.0000       1.943803        52.8936 
 563   0.0000       1.949001        53.0350 
 564   0.0000       1.963888        53.4401 
 565   0.0000       1.979907        53.8760 
 566   0.0000       1.996506        54.3277 
 567   0.0000       2.006678        54.6045 
 568   0.0000       2.044098        55.6227 
 569   0.0000       2.091076        56.9011 
 570   0.0000       2.166107        58.9428 
 571   0.0000       2.194668        59.7199 
 572   0.0000       2.227701        60.6188 
 573   0.0000       2.276696        61.9520 
 574   0.0000       2.315140        62.9982 
 575   0.0000       2.334674        63.5297 
 576   0.0000       2.369465        64.4764 
 577   0.0000       2.436082        66.2892 
 578   0.0000       2.454790        66.7982 
 579   0.0000       2.473467        67.3064 
 580   0.0000       2.502336        68.0920 
 581   0.0000       2.546002        69.2802 
 582   0.0000       2.555382        69.5355 
 583   0.0000       2.558336        69.6159 
 584   0.0000       2.581433        70.2444 
 585   0.0000       2.605510        70.8995 
 586   0.0000       2.610895        71.0461 
 587   0.0000       2.620462        71.3064 
 588   0.0000       2.629240        71.5453 
 589   0.0000       2.642969        71.9189 
 590   0.0000       2.661890        72.4337 
 591   0.0000       2.675578        72.8062 
 592   0.0000       3.279040        89.2272 
 593   0.0000       3.318388        90.2979 
 594   0.0000       3.319509        90.3284 
 595   0.0000       3.322390        90.4068 
 596   0.0000       3.325867        90.5015 
 597   0.0000       3.327536        90.5469 
 598   0.0000       3.329965        90.6129 
 599   0.0000       3.336578        90.7929 
 600   0.0000       3.505104        95.3787 
 601   0.0000       3.558441        96.8301 
 602   0.0000       3.596665        97.8702 
 603   0.0000       3.607958        98.1775 
 604   0.0000       3.644993        99.1853 
 605   0.0000      24.306972       661.4263 
 606   0.0000      24.480332       666.1437 
 607   0.0000      24.533888       667.6010 
 608   0.0000      24.638536       670.4487 
 609   0.0000      24.835726       675.8145 
 610   0.0000      24.909716       677.8278 
 611   0.0000      24.945092       678.7905 
 612   0.0000      25.076680       682.3712 
 613   0.0000      25.176144       685.0777 
 614   0.0000      25.318169       688.9424 
 615   0.0000      25.502215       693.9506 
 616   0.0000      25.652902       698.0510 
 617   0.0000      25.690244       699.0671 
 618   0.0000      25.754350       700.8115 
 619   0.0000      25.937625       705.7987 
 620   0.0000      26.000299       707.5041 
 621   0.0000      26.084784       709.8031 
 622   0.0000      26.214218       713.3251 
 623   0.0000      26.286178       715.2833 
 624   0.0000      26.308378       715.8874 
 625   0.0000      26.378646       717.7995 
 626   0.0000      26.417575       718.8587 
 627   0.0000      26.490013       720.8299 
 628   0.0000      26.565193       722.8757 
 629   0.0000      26.631218       724.6723 
 630   0.0000      26.716172       726.9840 
 631   0.0000      26.735221       727.5024 
 632   0.0000      26.812075       729.5937 
 633   0.0000      26.891060       731.7429 
 634   0.0000      26.976183       734.0593 
 635   0.0000      27.049220       736.0467 
 636   0.0000      27.127685       738.1818 
 637   0.0000      27.246960       741.4275 
 638   0.0000      27.352949       744.3116 
 639   0.0000      27.366166       744.6712 
 640   0.0000      27.545048       749.5389 
 641   0.0000      27.856462       758.0129 
 642   0.0000      27.975797       761.2601 
 643   0.0000      28.079593       764.0846 
 644   0.0000      28.276362       769.4389 
 645   0.0000      28.288485       769.7688 
 646   0.0000      28.553093       776.9692 
 647   0.0000      28.587413       777.9031 
 648   0.0000      29.134312       792.7849 
 649   0.0000      29.848279       812.2130 
 650   0.0000      30.417592       827.7048 
 651   0.0000      30.594621       832.5220 
 652   0.0000      32.051695       872.1710 
 653   0.0000      44.405102      1208.3242 
 654   0.0000      44.527923      1211.6664 
 655   0.0000      44.554923      1212.4011 
 656   0.0000      44.562381      1212.6040 
 657   0.0000      44.613904      1214.0060 
 658   0.0000      44.647516      1214.9207 
 659   0.0000      44.654292      1215.1051 
 660   0.0000      44.657699      1215.1978 
 661   0.0000      44.661638      1215.3050 
 662   0.0000      44.666632      1215.4408 
 663   0.0000      44.671426      1215.5713 
 664   0.0000      44.687476      1216.0081 
 665   0.0000      44.695989      1216.2397 
 666   0.0000      44.723403      1216.9857 
 667   0.0000      44.730922      1217.1903 
 668   0.0000      44.756495      1217.8862 
 669   0.0000     205.254622      5585.2622 
 670   0.0000     205.307101      5586.6903 
 671   0.0000     205.315799      5586.9269 
 672   0.0000     205.318037      5586.9878 
 673   0.0000     205.343368      5587.6771 
 674   0.0000     205.358368      5588.0853 
 675   0.0000     205.361005      5588.1570 
 676   0.0000     205.362964      5588.2104 
 677   0.0000     205.364048      5588.2398 
 678   0.0000     205.365965      5588.2920 
 679   0.0000     205.368743      5588.3676 
 680   0.0000     205.372975      5588.4828 
 681   0.0000     205.376071      5588.5670 
 682   0.0000     205.387715      5588.8839 
 683   0.0000     205.391078      5588.9754 
 684   0.0000     205.399903      5589.2155 

                 SPIN DOWN ORBITALS
  NO   OCC          E(Eh)            E(eV) 
   0   1.0000    -235.053114     -6396.1204 
   1   1.0000     -27.139521      -738.5039 
   2   1.0000     -23.207491      -631.5079 
   3   1.0000     -23.207131      -631.4982 
   4   1.0000     -23.207082      -631.4968 
   5   1.0000      -4.128204      -112.3341 
   6   1.0000      -4.127417      -112.3127 
   7   1.0000      -4.126804      -112.2960 
   8   1.0000      -4.126020      -112.2747 
   9   1.0000      -4.125244      -112.2536 
  10   1.0000      -4.124587      -112.2357 
  11   1.0000      -4.123603      -112.2089 
  12   1.0000      -4.123138      -112.1963 
  13   1.0000      -4.120406      -112.1219 
  14   1.0000      -4.119919      -112.1087 
  15   1.0000      -4.118958      -112.0825 
  16   1.0000      -4.118782      -112.0777 
  17   1.0000      -4.118700      -112.0755 
  18   1.0000      -4.117617      -112.0461 
  19   1.0000      -4.116260      -112.0091 
  20   1.0000      -4.114437      -111.9595 
  21   1.0000      -3.038813       -82.6903 
  22   1.0000      -2.316612       -63.0382 
  23   1.0000      -2.316377       -63.0318 
  24   1.0000      -2.315140       -62.9982 
  25   1.0000      -2.314550       -62.9821 
  26   1.0000      -2.313275       -62.9474 
  27   1.0000      -2.313054       -62.9414 
  28   1.0000      -2.312952       -62.9386 
  29   1.0000      -2.312346       -62.9221 
  30   1.0000      -2.312160       -62.9171 
  31   1.0000      -2.311854       -62.9087 
  32   1.0000      -2.311744       -62.9058 
  33   1.0000      -2.311391       -62.8961 
  34   1.0000      -2.311241       -62.8921 
  35   1.0000      -2.311129       -62.8890 
  36   1.0000      -2.310196       -62.8636 
  37   1.0000      -2.310028       -62.8591 
  38   1.0000      -2.309846       -62.8541 
  39   1.0000      -2.309626       -62.8481 
  40   1.0000      -2.309440       -62.8431 
  41   1.0000      -2.309006       -62.8313 
  42   1.0000      -2.308786       -62.8253 
  43   1.0000      -2.308379       -62.8142 
  44   1.0000      -2.308225       -62.8100 
  45   1.0000      -2.308002       -62.8039 
  46   1.0000      -2.307768       -62.7976 
  47   1.0000      -2.307452       -62.7890 
  48   1.0000      -2.305741       -62.7424 
  49   1.0000      -2.305357       -62.7319 
  50   1.0000      -2.305161       -62.7266 
  51   1.0000      -2.304866       -62.7186 
  52   1.0000      -2.304738       -62.7151 
  53   1.0000      -2.304569       -62.7105 
  54   1.0000      -2.304107       -62.6979 
  55   1.0000      -2.303819       -62.6901 
  56   1.0000      -2.303563       -62.6831 
  57   1.0000      -2.303448       -62.6800 
  58   1.0000      -2.303335       -62.6769 
  59   1.0000      -2.302725       -62.6603 
  60   1.0000      -2.302548       -62.6555 
  61   1.0000      -2.302288       -62.6484 
  62   1.0000      -2.302248       -62.6473 
  63   1.0000      -2.302105       -62.6434 
  64   1.0000      -2.301505       -62.6271 
  65   1.0000      -2.301059       -62.6150 
  66   1.0000      -2.300731       -62.6061 
  67   1.0000      -2.300361       -62.5960 
  68   1.0000      -2.300159       -62.5905 
  69   1.0000      -2.298975       -62.5583 
  70   1.0000      -1.897128       -51.6235 
  71   1.0000      -1.896765       -51.6136 
  72   1.0000      -1.896628       -51.6099 
  73   1.0000      -0.440293       -11.9810 
  74   1.0000      -0.402028       -10.9397 
  75   1.0000      -0.401439       -10.9237 
  76   1.0000      -0.397682       -10.8215 
  77   1.0000      -0.385147       -10.4804 
  78   1.0000      -0.382302       -10.4030 
  79   1.0000      -0.380152       -10.3445 
  80   1.0000      -0.378734       -10.3059 
  81   1.0000      -0.377655       -10.2765 
  82   1.0000      -0.377163       -10.2631 
  83   1.0000      -0.373030       -10.1507 
  84   1.0000      -0.372663       -10.1407 
  85   1.0000      -0.367712       -10.0060 
  86   1.0000      -0.366587        -9.9753 
  87   1.0000      -0.365750        -9.9526 
  88   1.0000      -0.364223        -9.9110 
  89   1.0000      -0.363196        -9.8831 
  90   1.0000      -0.361591        -9.8394 
  91   1.0000      -0.360870        -9.8198 
  92   1.0000      -0.360388        -9.8067 
  93   1.0000      -0.359337        -9.7781 
  94   1.0000      -0.357208        -9.7201 
  95   1.0000      -0.355558        -9.6752 
  96   1.0000      -0.354516        -9.6469 
  97   1.0000      -0.353632        -9.6228 
  98   1.0000      -0.349681        -9.5153 
  99   1.0000      -0.346159        -9.4195 
 100   1.0000      -0.344474        -9.3736 
 101   1.0000      -0.342620        -9.3232 
 102   1.0000      -0.341020        -9.2796 
 103   1.0000      -0.338578        -9.2132 
 104   1.0000      -0.334980        -9.1153 
 105   1.0000      -0.332562        -9.0495 
 106   1.0000      -0.329496        -8.9661 
 107   1.0000      -0.326875        -8.8947 
 108   1.0000      -0.325654        -8.8615 
 109   1.0000      -0.324475        -8.8294 
 110   1.0000      -0.316433        -8.6106 
 111   1.0000      -0.314660        -8.5623 
 112   1.0000      -0.311032        -8.4636 
 113   1.0000      -0.309621        -8.4252 
 114   1.0000      -0.307782        -8.3752 
 115   1.0000      -0.305191        -8.3047 
 116   1.0000      -0.299472        -8.1490 
 117   1.0000      -0.299093        -8.1387 
 118   1.0000      -0.297789        -8.1033 
 119   1.0000      -0.295090        -8.0298 
 120   1.0000      -0.292994        -7.9728 
 121   1.0000      -0.291936        -7.9440 
 122   1.0000      -0.291049        -7.9199 
 123   1.0000      -0.289129        -7.8676 
 124   1.0000      -0.288085        -7.8392 
 125   1.0000      -0.285454        -7.7676 
 126   1.0000      -0.285261        -7.7623 
 127   1.0000      -0.284625        -7.7450 
 128   1.0000      -0.283923        -7.7259 
 129   1.0000      -0.282922        -7.6987 
 130   1.0000      -0.282164        -7.6781 
 131   1.0000      -0.281457        -7.6588 
 132   1.0000      -0.280065        -7.6210 
 133   1.0000      -0.277913        -7.5624 
 134   1.0000      -0.277222        -7.5436 
 135   1.0000      -0.276554        -7.5254 
 136   1.0000      -0.275145        -7.4871 
 137   1.0000      -0.273996        -7.4558 
 138   1.0000      -0.272364        -7.4114 
 139   1.0000      -0.270669        -7.3653 
 140   1.0000      -0.269859        -7.3432 
 141   1.0000      -0.266245        -7.2449 
 142   1.0000      -0.264247        -7.1905 
 143   1.0000      -0.263789        -7.1781 
 144   1.0000      -0.263011        -7.1569 
 145   1.0000      -0.262468        -7.1421 
 146   1.0000      -0.261912        -7.1270 
 147   1.0000      -0.260178        -7.0798 
 148   1.0000      -0.258280        -7.0282 
 149   1.0000      -0.255946        -6.9646 
 150   1.0000      -0.255584        -6.9548 
 151   1.0000      -0.255426        -6.9505 
 152   1.0000      -0.253672        -6.9028 
 153   1.0000      -0.250225        -6.8090 
 154   1.0000      -0.246423        -6.7055 
 155   1.0000      -0.244748        -6.6599 
 156   1.0000      -0.242637        -6.6025 
 157   1.0000      -0.228488        -6.2175 
 158   1.0000      -0.224268        -6.1026 
 159   1.0000      -0.218921        -5.9571 
 160   1.0000      -0.214829        -5.8458 
 161   1.0000      -0.211656        -5.7594 
 162   0.0000      -0.152492        -4.1495 
 163   0.0000      -0.139533        -3.7969 
 164   0.0000      -0.130850        -3.5606 
 165   0.0000      -0.128714        -3.5025 
 166   0.0000      -0.126100        -3.4314 
 167   0.0000      -0.121413        -3.3038 
 168   0.0000      -0.120562        -3.2807 
 169   0.0000      -0.115919        -3.1543 
 170   0.0000      -0.114164        -3.1066 
 171   0.0000      -0.113164        -3.0793 
 172   0.0000      -0.110614        -3.0100 
 173   0.0000      -0.108682        -2.9574 
 174   0.0000      -0.099639        -2.7113 
 175   0.0000      -0.074382        -2.0240 
 176   0.0000      -0.067767        -1.8440 
 177   0.0000      -0.067305        -1.8315 
 178   0.0000      -0.037929        -1.0321 
 179   0.0000      -0.034174        -0.9299 
 180   0.0000      -0.020760        -0.5649 
 181   0.0000      -0.019616        -0.5338 
 182   0.0000      -0.017173        -0.4673 
 183   0.0000      -0.004625        -0.1259 
[...]
      dxy     :     1.980239
      f0      :     0.001038  f :     0.006420
      f+1     :     0.000659
      f-1     :     0.000973
      f+2     :     0.000854
      f-2     :     0.000723
      f+3     :     0.001104
      f-3     :     0.001070
 10 Aus       :     2.668181  s :     2.668181
      pz      :     2.125201  p :     6.375732
      px      :     2.139015
      py      :     2.111516
      dz2     :     1.985842  d :     9.882718
      dxz     :     1.967796
      dyz     :     1.969588
      dx2y2   :     1.986436
      dxy     :     1.973056
      f0      :     0.000615  f :     0.005114
      f+1     :     0.000454
      f-1     :     0.000646
      f+2     :     0.000992
      f-2     :     0.000814
      f+3     :     0.000806
      f-3     :     0.000787
 11 Aus       :     2.561891  s :     2.561891
      pz      :     2.141722  p :     6.530631
      px      :     2.178185
      py      :     2.210723
      dz2     :     1.988473  d :     9.879981
      dxz     :     1.972115
      dyz     :     1.968366
      dx2y2   :     1.982325
      dxy     :     1.968701
      f0      :     0.000844  f :     0.006350
      f+1     :     0.001110
      f-1     :     0.000824
      f+2     :     0.000803
      f-2     :     0.000844
      f+3     :     0.001191
      f-3     :     0.000734
 12 Aus       :     2.503044  s :     2.503044
      pz      :     2.212018  p :     6.546471
      px      :     2.124526
      py      :     2.209927
      dz2     :     1.992414  d :     9.920943
      dxz     :     1.972341
      dyz     :     1.995218
      dx2y2   :     1.984161
      dxy     :     1.976808
      f0      :     0.001060  f :     0.005988
      f+1     :     0.000614
      f-1     :     0.000915
      f+2     :     0.001153
      f-2     :     0.000756
      f+3     :     0.000790
      f-3     :     0.000700
 13 Aus       :     2.552120  s :     2.552120
      pz      :     2.215924  p :     6.554822
      px      :     2.227255
      py      :     2.111643
      dz2     :     1.961431  d :     9.888622
      dxz     :     1.986470
      dyz     :     1.996289
      dx2y2   :     1.961930
      dxy     :     1.982503
      f0      :     0.000802  f :     0.006128
      f+1     :     0.000722
      f-1     :     0.000835
      f+2     :     0.000904
      f-2     :     0.001111
      f+3     :     0.000912
      f-3     :     0.000841
 14 Aus       :     2.581819  s :     2.581819
      pz      :     2.113813  p :     6.502316
      px      :     2.138876
      py      :     2.249627
      dz2     :     1.978097  d :     9.896514
      dxz     :     1.977835
      dyz     :     1.999577
      dx2y2   :     1.981643
      dxy     :     1.959362
      f0      :     0.000885  f :     0.006226
      f+1     :     0.000631
      f-1     :     0.000903
      f+2     :     0.000925
      f-2     :     0.000895
      f+3     :     0.000984
      f-3     :     0.001004
 15 Aus       :     2.546011  s :     2.546011
      pz      :     2.112066  p :     6.508070
      px      :     2.217364
      py      :     2.178641
      dz2     :     1.975335  d :     9.890199
      dxz     :     1.992975
      dyz     :     1.966147
      dx2y2   :     1.968138
      dxy     :     1.987603
      f0      :     0.000724  f :     0.005674
      f+1     :     0.000754
      f-1     :     0.000804
      f+2     :     0.000979
      f-2     :     0.000681
      f+3     :     0.001134
      f-3     :     0.000598
 16 Mns       :     6.251907  s :     6.251907
      pz      :     4.161450  p :    12.476785
      px      :     4.147860
      py      :     4.167475
      dz2     :     1.331036  d :     6.645799
      dxz     :     1.310431
      dyz     :     1.348032
      dx2y2   :     1.316765
      dxy     :     1.339536
      f0      :     0.000081  f :     0.000696
      f+1     :     0.000083
      f-1     :     0.000151
      f+2     :     0.000085
      f-2     :     0.000089
      f+3     :     0.000070
      f-3     :     0.000137

SPIN
  0 Aus       :    -0.023863  s :    -0.023863
      pz      :     0.004086  p :    -0.037938
      px      :    -0.026875
      py      :    -0.015148
      dz2     :    -0.000876  d :    -0.018088
      dxz     :     0.001978
      dyz     :    -0.005080
      dx2y2   :    -0.014137
      dxy     :     0.000027
      f0      :     0.000009  f :    -0.000010
      f+1     :    -0.000013
      f-1     :     0.000001
      f+2     :    -0.000022
      f-2     :     0.000013
      f+3     :    -0.000011
      f-3     :     0.000013
  1 Aus       :    -0.079297  s :    -0.079297
      pz      :    -0.005334  p :    -0.022116
      px      :    -0.017680
      py      :     0.000898
      dz2     :    -0.002675  d :    -0.004964
      dxz     :     0.002839
      dyz     :    -0.003452
      dx2y2   :    -0.005166
      dxy     :     0.003491
      f0      :     0.000018  f :     0.000128
      f+1     :    -0.000011
      f-1     :     0.000009
      f+2     :     0.000013
      f-2     :     0.000021
      f+3     :     0.000029
      f-3     :     0.000048
  2 Aus       :    -0.012700  s :    -0.012700
      pz      :    -0.033803  p :    -0.038970
      px      :    -0.006652
      py      :     0.001485
      dz2     :    -0.014257  d :    -0.010702
      dxz     :     0.001064
      dyz     :     0.002671
      dx2y2   :    -0.000417
      dxy     :     0.000237
      f0      :    -0.000006  f :     0.000029
      f+1     :     0.000011
      f-1     :     0.000024
      f+2     :    -0.000022
      f-2     :     0.000044
      f+3     :    -0.000012
      f-3     :    -0.000011
  3 Aus       :    -0.036009  s :    -0.036009
      pz      :    -0.021808  p :    -0.050371
      px      :    -0.018873
      py      :    -0.009691
      dz2     :    -0.005337  d :    -0.016995
      dxz     :     0.000332
      dyz     :    -0.011988
      dx2y2   :    -0.001829
      dxy     :     0.001827
      f0      :    -0.000004  f :    -0.000011
      f+1     :    -0.000019
      f-1     :    -0.000005
      f+2     :     0.000007
      f-2     :     0.000015
      f+3     :    -0.000001
      f-3     :    -0.000003
  4 Aus       :    -0.000777  s :    -0.000777
      pz      :     0.000831  p :    -0.004251
      px      :    -0.004232
      py      :    -0.000850
      dz2     :    -0.010345  d :    -0.009513
      dxz     :    -0.005924
      dyz     :    -0.001846
      dx2y2   :     0.008027
      dxy     :     0.000574
      f0      :     0.000012  f :     0.000164
      f+1     :     0.000003
      f-1     :     0.000030
      f+2     :     0.000021
      f-2     :     0.000000
      f+3     :     0.000023
      f-3     :     0.000075
  5 Aus       :    -0.084932  s :    -0.084932
      pz      :    -0.032321  p :    -0.062579
      px      :    -0.021418
      py      :    -0.008840
      dz2     :    -0.002142  d :    -0.045136
      dxz     :    -0.001128
      dyz     :    -0.013021
      dx2y2   :    -0.000706
      dxy     :    -0.028139
      f0      :    -0.000022  f :    -0.000084
      f+1     :     0.000001
      f-1     :    -0.000003
      f+2     :     0.000002
      f-2     :    -0.000027
      f+3     :    -0.000028
      f-3     :    -0.000007
  6 Aus       :    -0.027702  s :    -0.027702
      pz      :    -0.001303  p :    -0.005313
      px      :     0.002080
      py      :    -0.006090
      dz2     :     0.004711  d :     0.004486
      dxz     :     0.002627
      dyz     :     0.005980
      dx2y2   :    -0.005114
      dxy     :    -0.003717
      f0      :     0.000025  f :     0.000211
      f+1     :     0.000024
      f-1     :     0.000098
      f+2     :     0.000013
      f-2     :     0.000038
      f+3     :     0.000010
      f-3     :     0.000003
  7 Aus       :    -0.026349  s :    -0.026349
      pz      :    -0.008699  p :    -0.013016
      px      :     0.003278
      py      :    -0.007594
      dz2     :     0.003103  d :    -0.003459
      dxz     :    -0.002258
      dyz     :     0.003232
      dx2y2   :    -0.003186
      dxy     :    -0.004350
      f0      :     0.000016  f :     0.000149
      f+1     :    -0.000015
      f-1     :     0.000060
      f+2     :     0.000024
      f-2     :     0.000042
      f+3     :     0.000013
      f-3     :     0.000008
  8 Aus       :    -0.017190  s :    -0.017190
      pz      :    -0.004231  p :    -0.035157
      px      :    -0.018751
      py      :    -0.012174
      dz2     :     0.001485  d :    -0.012277
      dxz     :    -0.002312
      dyz     :    -0.003030
      dx2y2   :    -0.010394
      dxy     :     0.001974
      f0      :    -0.000016  f :     0.000021
      f+1     :     0.000020
      f-1     :     0.000000
      f+2     :    -0.000012
      f-2     :    -0.000012
      f+3     :    -0.000010
      f-3     :     0.000051
  9 Aus       :    -0.017929  s :    -0.017929
      pz      :    -0.025278  p :    -0.067306
      px      :    -0.033890
      py      :    -0.008137
      dz2     :    -0.021691  d :    -0.029024
      dxz     :     0.000351
      dyz     :     0.000596
      dx2y2   :    -0.006739
      dxy     :    -0.001541
      f0      :    -0.000002  f :    -0.000036
      f+1     :    -0.000009
      f-1     :    -0.000031
      f+2     :     0.000017
      f-2     :     0.000001
      f+3     :    -0.000010
      f-3     :    -0.000004
 10 Aus       :    -0.054772  s :    -0.054772
      pz      :    -0.015159  p :    -0.054899
      px      :    -0.031856
      py      :    -0.007885
      dz2     :    -0.000237  d :    -0.043888
      dxz     :    -0.001443
      dyz     :    -0.017486
      dx2y2   :    -0.005640
      dxy     :    -0.019081
      f0      :    -0.000005  f :    -0.000094
      f+1     :    -0.000015
      f-1     :    -0.000017
      f+2     :    -0.000028
      f-2     :    -0.000017
      f+3     :    -0.000008
      f-3     :    -0.000004
 11 Aus       :    -0.034389  s :    -0.034389
      pz      :    -0.011964  p :    -0.044583
      px      :    -0.020672
      py      :    -0.011947
      dz2     :     0.002095  d :    -0.012548
      dxz     :    -0.004144
      dyz     :    -0.002555
      dx2y2   :    -0.006229
      dxy     :    -0.001715
      f0      :    -0.000024  f :     0.000012
      f+1     :     0.000032
      f-1     :     0.000023
      f+2     :    -0.000018
      f-2     :     0.000006
      f+3     :     0.000001
      f-3     :    -0.000009
 12 Aus       :    -0.075658  s :    -0.075658
      pz      :    -0.001737  p :    -0.029688
      px      :    -0.028300
      py      :     0.000349
      dz2     :     0.001260  d :    -0.000278
      dxz     :     0.004044
      dyz     :    -0.005319
      dx2y2   :    -0.005759
      dxy     :     0.005496
      f0      :     0.000019  f :     0.000148
      f+1     :     0.000018
      f-1     :     0.000003
      f+2     :     0.000030
      f-2     :     0.000015
      f+3     :     0.000012
      f-3     :     0.000051
 13 Aus       :    -0.004361  s :    -0.004361
      pz      :     0.001978  p :    -0.002309
      px      :    -0.004635
      py      :     0.000348
      dz2     :    -0.004642  d :    -0.008321
      dxz     :    -0.005133
      dyz     :     0.000547
      dx2y2   :     0.001813
      dxy     :    -0.000907
      f0      :     0.000006  f :     0.000160
      f+1     :     0.000004
      f-1     :     0.000040
      f+2     :     0.000020
      f-2     :    -0.000000
      f+3     :     0.000020
      f-3     :     0.000071
 14 Aus       :    -0.022098  s :    -0.022098
      pz      :    -0.020613  p :    -0.068331
      px      :    -0.038585
      py      :    -0.009133
      dz2     :    -0.017811  d :    -0.039825
      dxz     :    -0.016750
      dyz     :     0.000393
      dx2y2   :    -0.003694
      dxy     :    -0.001963
      f0      :    -0.000006  f :    -0.000077
      f+1     :     0.000004
      f-1     :    -0.000027
      f+2     :    -0.000003
      f-2     :    -0.000011
      f+3     :    -0.000015
      f-3     :    -0.000018
 15 Aus       :    -0.008506  s :    -0.008506
      pz      :    -0.007564  p :    -0.030669
      px      :    -0.021432
      py      :    -0.001674
      dz2     :     0.001271  d :    -0.000309
      dxz     :    -0.002375
      dyz     :     0.005476
      dx2y2   :    -0.005046
      dxy     :     0.000365
      f0      :     0.000031  f :     0.000105
      f+1     :     0.000003
      f-1     :     0.000087
      f+2     :     0.000018
      f-2     :     0.000003
      f+3     :    -0.000031
      f-3     :    -0.000006
 16 Mns       :    -0.004828  s :    -0.004828
      pz      :     0.006121  p :     0.022130
      px      :     0.009203
      py      :     0.006805
      dz2     :     0.855216  d :     4.326709
      dxz     :     0.895237
      dyz     :     0.875999
      dx2y2   :     0.846495
      dxy     :     0.853763
      f0      :     0.000005  f :     0.000044
      f+1     :     0.000005
      f-1     :     0.000009
      f+2     :     0.000006
      f-2     :     0.000006
      f+3     :     0.000005
      f-3     :     0.000007


                      *****************************
                      * MAYER POPULATION ANALYSIS *
                      *****************************

  NA   - Mulliken gross atomic population
  ZA   - Total nuclear charge
  QA   - Mulliken gross atomic charge
  VA   - Mayer's total valence
  BVA  - Mayer's bonded valence
  FA   - Mayer's free valence

  ATOM       NA         ZA         QA         VA         BVA        FA
  0 Au    18.8298    19.0000     0.1702     1.6733     1.6686     0.0046
  1 Au    19.0350    19.0000    -0.0350     1.9409     1.9089     0.0320
  2 Au    18.7617    19.0000     0.2383     1.5940     1.5895     0.0045
  3 Au    18.7530    19.0000     0.2470     1.6246     1.6173     0.0074
  4 Au    18.9818    19.0000     0.0182     1.8132     1.8093     0.0039
  5 Au    18.6437    19.0000     0.3563     1.4861     1.4465     0.0396
  6 Au    19.0537    19.0000    -0.0537     1.9815     1.9753     0.0061
  7 Au    19.0863    19.0000    -0.0863     2.0207     2.0149     0.0058
  8 Au    18.7945    19.0000     0.2055     1.6310     1.6281     0.0028
  9 Au    18.7916    19.0000     0.2084     1.6977     1.6920     0.0057
 10 Au    18.6556    19.0000     0.3444     1.5032     1.4850     0.0183
 11 Au    18.7396    19.0000     0.2604     1.6218     1.6144     0.0074
 12 Au    18.9043    19.0000     0.0957     1.8066     1.7805     0.0261
 13 Au    18.9496    19.0000     0.0504     1.7689     1.7657     0.0032
 14 Au    18.7769    19.0000     0.2231     1.6687     1.6623     0.0064
 15 Au    18.7477    19.0000     0.2523     1.5788     1.5768     0.0020
 16 Mn    27.4950    25.0000    -2.4950     8.5827     4.5707     4.0120

  Mayer bond orders larger than 0.100000
B(  0-Au,  1-Au) :   0.1642 B(  0-Au,  3-Au) :   0.2477 B(  0-Au,  6-Au) :   0.2417 
B(  0-Au, 13-Au) :   0.2426 B(  0-Au, 14-Au) :   0.2602 B(  0-Au, 16-Mn) :   0.2556 
B(  1-Au,  2-Au) :   0.2356 B(  1-Au,  3-Au) :   0.1960 B(  1-Au,  4-Au) :   0.1709 
B(  1-Au,  5-Au) :   0.2417 B(  1-Au, 14-Au) :   0.1997 B(  1-Au, 16-Mn) :   0.4447 
B(  2-Au,  3-Au) :   0.2428 B(  2-Au,  4-Au) :   0.1711 B(  2-Au, 11-Au) :   0.2515 
B(  2-Au, 16-Mn) :   0.3182 B(  3-Au, 13-Au) :   0.2054 B(  3-Au, 15-Au) :   0.2191 
B(  3-Au, 16-Mn) :   0.2242 B(  4-Au,  5-Au) :   0.2817 B(  4-Au,  7-Au) :   0.1373 
B(  4-Au,  8-Au) :   0.2228 B(  4-Au, 11-Au) :   0.1934 B(  4-Au, 16-Mn) :   0.4025 
B(  5-Au,  7-Au) :   0.2959 B(  5-Au, 14-Au) :   0.2826 B(  6-Au,  7-Au) :   0.1216 
B(  6-Au,  9-Au) :   0.2357 B(  6-Au, 10-Au) :   0.2862 B(  6-Au, 13-Au) :   0.1300 
B(  6-Au, 14-Au) :   0.2930 B(  6-Au, 16-Mn) :   0.4202 B(  7-Au,  8-Au) :   0.2285 
B(  7-Au,  9-Au) :   0.3156 B(  7-Au, 14-Au) :   0.2534 B(  7-Au, 16-Mn) :   0.4064 
B(  8-Au,  9-Au) :   0.2348 B(  8-Au, 11-Au) :   0.2495 B(  8-Au, 12-Au) :   0.1402 
B(  8-Au, 16-Mn) :   0.2884 B(  9-Au, 10-Au) :   0.2790 B(  9-Au, 12-Au) :   0.1888 
B(  9-Au, 16-Mn) :   0.1702 B( 10-Au, 12-Au) :   0.2426 B( 10-Au, 13-Au) :   0.3023 
B( 11-Au, 12-Au) :   0.1991 B( 11-Au, 15-Au) :   0.1922 B( 11-Au, 16-Mn) :   0.2447 
B( 12-Au, 13-Au) :   0.1105 B( 12-Au, 15-Au) :   0.2312 B( 12-Au, 16-Mn) :   0.4216 
B( 13-Au, 15-Au) :   0.1475 B( 13-Au, 16-Mn) :   0.3842 B( 14-Au, 16-Mn) :   0.1105 
B( 15-Au, 16-Mn) :   0.4195 

-------
TIMINGS
-------

Total SCF time: 0 days 0 hours 8 min 59 sec 

Total time                  ....     539.344 sec
Sum of individual times     ....     533.324 sec  ( 98.9%)

Fock matrix formation       ....     503.802 sec  ( 93.4%)
  Split-RI-J                ....     100.036 sec  ( 19.9% of F)
  XC integration            ....     400.693 sec  ( 79.5% of F)
    Basis function eval.    ....      20.711 sec  (  5.2% of XC)
    Density eval.           ....     209.743 sec  ( 52.3% of XC)
    XC-Functional eval.     ....       9.971 sec  (  2.5% of XC)
    XC-Potential eval.      ....     112.034 sec  ( 28.0% of XC)
Diagonalization             ....      23.474 sec  (  4.4%)
Density matrix formation    ....       0.972 sec  (  0.2%)
Population analysis         ....       0.644 sec  (  0.1%)
Initial guess               ....       0.974 sec  (  0.2%)
Orbital Transformation      ....       0.000 sec  (  0.0%)
Orbital Orthonormalization  ....       0.792 sec  (  0.1%)
DIIS solution               ....       0.000 sec  (  0.0%)
Grid generation             ....       3.456 sec  (  0.6%)

Maximum memory used throughout the entire SCF-calculation: 123.3 MB

-------------------------   --------------------
FINAL SINGLE POINT ENERGY     -3324.581731707104
-------------------------   --------------------


                            ***************************************
                            *     ORCA property calculations      *
                            ***************************************

                                    ---------------------
                                    Active property flags
                                    ---------------------
   (+) Dipole Moment


------------------------------------------------------------------------------
                       ORCA ELECTRIC PROPERTIES CALCULATION
------------------------------------------------------------------------------

Dipole Moment Calculation                       ... on
Quadrupole Moment Calculation                   ... off
Polarizability Calculation                      ... off
GBWName                                         ... scan_job2.gbw
Electron density                                ... scan_job2.scfp
The origin for moment calculation is the CENTER OF MASS  = (12.381540, 15.595691 14.034344)

-------------
DIPOLE MOMENT
-------------
                                X             Y             Z
Electronic contribution:      0.75080       1.67042       9.08435
Nuclear contribution   :     -0.79830      -1.75603      -9.14356
                        -----------------------------------------
Total Dipole Moment    :     -0.04750      -0.08560      -0.05920
                        -----------------------------------------
Magnitude (a.u.)       :      0.11441
Magnitude (Debye)      :      0.29080



--------------------
Rotational spectrum 
--------------------
 
Rotational constants in cm-1:     0.000904     0.000815     0.000811 
Rotational constants in MHz :    27.113646    24.438174    24.322988 

 Dipole components along the rotational axes: 
x,y,z [a.u.] :    -0.109408    -0.025146    -0.022058 
x,y,z [Debye]:    -0.278093    -0.063916    -0.056068 

 

Timings for individual modules:

Sum of individual times         ...      571.758 sec (=   9.529 min)
GTO integral calculation        ...       32.106 sec (=   0.535 min)   5.6 %
SCF iterations                  ...      539.652 sec (=   8.994 min)  94.4 %



                             ****ORCA TERMINATED NORMALLY****
TOTAL RUN TIME: 0 days 0 hours 17 minutes 20 seconds 969 msec
