
                                 *****************
                                 * O   R   C   A *
                                 *****************

                                            #,                                       
                                            ###                                      
                                            ####                                     
                                            #####                                    
                                            ######                                   
                                           ########,                                 
                                     ,,################,,,,,                         
                               ,,#################################,,                 
                          ,,##########################################,,             
                       ,#########################################, ''#####,          
                    ,#############################################,,   '####,        
                  ,##################################################,,,,####,       
                ,###########''''           ''''###############################       
              ,#####''   ,,,,##########,,,,          '''####'''          '####       
            ,##' ,,,,###########################,,,                        '##       
           ' ,,###''''                  '''############,,,                           
         ,,##''                                '''############,,,,        ,,,,,,###''
      ,#''                                            '''#######################'''  
     '                                                          ''''####''''         
             ,#######,   #######,   ,#######,      ##                                
            ,#'     '#,  ##    ##  ,#'     '#,    #''#        ######   ,####,        
            ##       ##  ##   ,#'  ##            #'  '#       #        #'  '#        
            ##       ##  #######   ##           ,######,      #####,   #    #        
            '#,     ,#'  ##    ##  '#,     ,#' ,#      #,         ##   #,  ,#        
             '#######'   ##     ##  '#######'  #'      '#     #####' # '####'        



                  #######################################################
                  #                        -***-                        #
                  #          Department of theory and spectroscopy      #
                  #    Directorship and core code : Frank Neese         #
                  #        Max Planck Institute fuer Kohlenforschung    #
                  #                Kaiser Wilhelm Platz 1               #
                  #                 D-45470 Muelheim/Ruhr               #
                  #                      Germany                        #
                  #                                                     #
                  #                  All rights reserved                #
                  #                        -***-                        #
                  #######################################################


                         Program Version 5.0.3 -  RELEASE  -


 With contributions from (in alphabetic order):
   Daniel Aravena         : Magnetic Suceptibility
   Michael Atanasov       : Ab Initio Ligand Field Theory (pilot matlab implementation)
   Alexander A. Auer      : GIAO ZORA, VPT2 properties, NMR spectrum
   Ute Becker             : Parallelization
   Giovanni Bistoni       : ED, misc. LED, open-shell LED, HFLD
   Martin Brehm           : Molecular dynamics
   Dmytro Bykov           : SCF Hessian
   Vijay G. Chilkuri      : MRCI spin determinant printing, contributions to CSF-ICE
   Dipayan Datta          : RHF DLPNO-CCSD density
   Achintya Kumar Dutta   : EOM-CC, STEOM-CC
   Dmitry Ganyushin       : Spin-Orbit,Spin-Spin,Magnetic field MRCI
   Miquel Garcia          : C-PCM and meta-GGA Hessian, CC/C-PCM, Gaussian charge scheme
   Yang Guo               : DLPNO-NEVPT2, F12-NEVPT2, CIM, IAO-localization
   Andreas Hansen         : Spin unrestricted coupled pair/coupled cluster methods
   Benjamin Helmich-Paris : MC-RPA, TRAH-SCF, COSX integrals
   Lee Huntington         : MR-EOM, pCC
   Robert Izsak           : Overlap fitted RIJCOSX, COSX-SCS-MP3, EOM
   Marcus Kettner         : VPT2
   Christian Kollmar      : KDIIS, OOCD, Brueckner-CCSD(T), CCSD density, CASPT2, CASPT2-K
   Simone Kossmann        : Meta GGA functionals, TD-DFT gradient, OOMP2, MP2 Hessian
   Martin Krupicka        : Initial AUTO-CI
   Lucas Lang             : DCDCAS
   Marvin Lechner         : AUTO-CI (C++ implementation), FIC-MRCC
   Dagmar Lenk            : GEPOL surface, SMD
   Dimitrios Liakos       : Extrapolation schemes; Compound Job, initial MDCI parallelization
   Dimitrios Manganas     : Further ROCIS development; embedding schemes
   Dimitrios Pantazis     : SARC Basis sets
   Anastasios Papadopoulos: AUTO-CI, single reference methods and gradients
   Taras Petrenko         : DFT Hessian,TD-DFT gradient, ASA, ECA, R-Raman, ABS, FL, XAS/XES, NRVS
   Peter Pinski           : DLPNO-MP2, DLPNO-MP2 Gradient
   Christoph Reimann      : Effective Core Potentials
   Marius Retegan         : Local ZFS, SOC
   Christoph Riplinger    : Optimizer, TS searches, QM/MM, DLPNO-CCSD(T), (RO)-DLPNO pert. Triples
   Tobias Risthaus        : Range-separated hybrids, TD-DFT gradient, RPA, STAB
   Michael Roemelt        : Original ROCIS implementation
   Masaaki Saitow         : Open-shell DLPNO-CCSD energy and density
   Barbara Sandhoefer     : DKH picture change effects
   Avijit Sen             : IP-ROCIS
   Kantharuban Sivalingam : CASSCF convergence, NEVPT2, FIC-MRCI
   Bernardo de Souza      : ESD, SOC TD-DFT
   Georgi Stoychev        : AutoAux, RI-MP2 NMR, DLPNO-MP2 response
   Willem Van den Heuvel  : Paramagnetic NMR
   Boris Wezisla          : Elementary symmetry handling
   Frank Wennmohs         : Technical directorship


 We gratefully acknowledge several colleagues who have allowed us to
 interface, adapt or use parts of their codes:
   Stefan Grimme, W. Hujo, H. Kruse, P. Pracht,  : VdW corrections, initial TS optimization,
                  C. Bannwarth, S. Ehlert          DFT functionals, gCP, sTDA/sTD-DF
   Ed Valeev, F. Pavosevic, A. Kumar             : LibInt (2-el integral package), F12 methods
   Garnet Chan, S. Sharma, J. Yang, R. Olivares  : DMRG
   Ulf Ekstrom                                   : XCFun DFT Library
   Mihaly Kallay                                 : mrcc  (arbitrary order and MRCC methods)
   Jiri Pittner, Ondrej Demel                    : Mk-CCSD
   Frank Weinhold                                : gennbo (NPA and NBO analysis)
   Christopher J. Cramer and Donald G. Truhlar   : smd solvation model
   Lars Goerigk                                  : TD-DFT with DH, B97 family of functionals
   V. Asgeirsson, H. Jonsson                     : NEB implementation
   FAccTs GmbH                                   : IRC, NEB, NEB-TS, DLPNO-Multilevel, CI-OPT
                                                   MM, QMMM, 2- and 3-layer-ONIOM, Crystal-QMMM,
                                                   LR-CPCM, SF, NACMEs, symmetry and pop. for TD-DFT,
                                                   nearIR, NL-DFT gradient (VV10), updates on ESD,
                                                   ML-optimized integration grids
   S Lehtola, MJT Oliveira, MAL Marques          : LibXC Library
   Liviu Ungur et al                             : ANISO software


 Your calculation uses the libint2 library for the computation of 2-el integrals
 For citations please refer to: http://libint.valeyev.net

 Your ORCA version has been built with support for libXC version: 5.1.0
 For citations please refer to: https://tddft.org/programs/libxc/

 This ORCA versions uses:
   CBLAS   interface :  Fast vector & matrix operations
   LAPACKE interface :  Fast linear algebra routines
   SCALAPACK package :  Parallel linear algebra routines
   Shared memory     :  Shared parallel matrices
   BLAS/LAPACK       :  OpenBLAS 0.3.15  USE64BITINT DYNAMIC_ARCH NO_AFFINITY Sandybridge SINGLE_THREADED
        Core in use  :  Sandybridge
   Copyright (c) 2011-2014, The OpenBLAS Project




***************************************
The coordinates will be read from file: pbe.xyz
***************************************


================================================================================

cite the ECPs for Au [Def2-ECP] as follows:
Ce-Yb(ecp-28): M. Dolg, H. Stoll, H.Preuss, J. Chem. Phys., 1989, 90, 1730-1734.
Y-Cd(ecp-28), Hf-Hg(ecp-46): D. Andrae,U. Haeussermann, M. Dolg, H. Stoll, H. Preuss, Theor. Chim. Acta, 1990, 77, 123-141.
In-Sb(ecp-28), Tl-Bi(ecp-46): B. Metz, H. Stoll, M. Dolg, J. Chem. Phys., 2000, 113, 2563-2569.
Te-Xe(ecp-28), Po-Rn(ecp-46): K. A. Peterson, D. Figgen, E. Goll, H. Stoll, M. Dolg, J. Chem. Phys., 2003, 119, 11113-11123.
Rb(ecp-28), Cs(ecp-46): T. Leininger, A. Nicklass, W. Kuechle, H. Stoll, M. Dolg, A. Bergner, Chem. Phys. Lett., 1996, 255, 274-280.
Sr(ecp-28), Ba(ecp-46): M. Kaupp, P. V. Schleyer, H. Stoll and H. Preuss, J. Chem. Phys., 1991, 94, 1360-1366.
La(ecp-46): M. Dolg, H. Stoll, A. Savin, H. Preuss, Theor. Chim. Acta, 1989, 75, 173-194.
Lu(ecp-28): X. Cao, M. Dolg, J. Chem. Phys., 2001, 115, 7348-7355.

ECP parameters for Au [Def2-ECP] have been obtained from:
TURBOMOLE (7.0.2)

----- Orbital basis set information -----
Your calculation utilizes the basis: def2-TZVP
   F. Weigend and R. Ahlrichs, Phys. Chem. Chem. Phys. 7, 3297 (2005).

----- AuxJ basis set information -----
Your calculation utilizes the auxiliary basis: def2/J
   F. Weigend, Phys. Chem. Chem. Phys. 8, 1057 (2006).

================================================================================
                                        WARNINGS
                       Please study these warnings very carefully!
================================================================================


WARNING: your system is open-shell and RHF/RKS was chosen
  ===> : WILL SWITCH to UHF/UKS


INFO   : the flag for use of the SHARK integral package has been found!



***************************************
The coordinates will be read from file: pbe.xyz
***************************************


================================================================================

cite the ECPs for Au [Def2-ECP] as follows:
Ce-Yb(ecp-28): M. Dolg, H. Stoll, H.Preuss, J. Chem. Phys., 1989, 90, 1730-1734.
Y-Cd(ecp-28), Hf-Hg(ecp-46): D. Andrae,U. Haeussermann, M. Dolg, H. Stoll, H. Preuss, Theor. Chim. Acta, 1990, 77, 123-141.
In-Sb(ecp-28), Tl-Bi(ecp-46): B. Metz, H. Stoll, M. Dolg, J. Chem. Phys., 2000, 113, 2563-2569.
Te-Xe(ecp-28), Po-Rn(ecp-46): K. A. Peterson, D. Figgen, E. Goll, H. Stoll, M. Dolg, J. Chem. Phys., 2003, 119, 11113-11123.
Rb(ecp-28), Cs(ecp-46): T. Leininger, A. Nicklass, W. Kuechle, H. Stoll, M. Dolg, A. Bergner, Chem. Phys. Lett., 1996, 255, 274-280.
Sr(ecp-28), Ba(ecp-46): M. Kaupp, P. V. Schleyer, H. Stoll and H. Preuss, J. Chem. Phys., 1991, 94, 1360-1366.
La(ecp-46): M. Dolg, H. Stoll, A. Savin, H. Preuss, Theor. Chim. Acta, 1989, 75, 173-194.
Lu(ecp-28): X. Cao, M. Dolg, J. Chem. Phys., 2001, 115, 7348-7355.

ECP parameters for Au [Def2-ECP] have been obtained from:
TURBOMOLE (7.0.2)

----- Orbital basis set information -----
Your calculation utilizes the basis: def2-TZVP
   F. Weigend and R. Ahlrichs, Phys. Chem. Chem. Phys. 7, 3297 (2005).

----- AuxJ basis set information -----
Your calculation utilizes the auxiliary basis: def2/J
   F. Weigend, Phys. Chem. Chem. Phys. 8, 1057 (2006).

================================================================================
                                        WARNINGS
                       Please study these warnings very carefully!
================================================================================


INFO   : the flag for use of the SHARK integral package has been found!

================================================================================
                                       INPUT FILE
================================================================================
NAME = pbeSP.inp
|  1> !PBE def2-TZVP VERYSLOWCONV
|  2> !KDIIS
|  3> 
|  4> %scf
|  5>   AutoTRAHIter 200
|  6>   maxiter 400
|  7> end
|  8> 
|  9> 
| 10> %pal nprocs 6 end 
| 11> 
| 12> *xyzfile 0 6 pbe.xyz
| 13> 
| 14> $new_job
| 15> 
| 16> !PBE def2-TZVP VERYSLOWCONV
| 17> !KDIIS
| 18> 
| 19> %scf
| 20>   AutoTRAHIter 200
| 21>   maxiter 400
| 22> end
| 23>  
| 24> 
| 25> %pal nprocs 6 end 
| 26> 
| 27> *xyzfile 0 4 pbe.xyz
| 28> 
| 29> 
| 30> 
| 31> 
| 32> 
| 33>                          ****END OF INPUT****
================================================================================


                 $$$$$$$$$$$$$$$$$$$$$$$$$$$$$$$$$$$$$$$$$$$$$$ 
                 $ THERE ARE  2 JOBS TO BE PROCESSED THIS RUN $
                 $$$$$$$$$$$$$$$$$$$$$$$$$$$$$$$$$$$$$$$$$$$$$$ 




                 $$$$$$$$$$$$$$$$  JOB NUMBER  1 $$$$$$$$$$$$$$


                       ****************************
                       * Single Point Calculation *
                       ****************************

---------------------------------
CARTESIAN COORDINATES (ANGSTROEM)
---------------------------------
  Au     9.620322    7.099092    9.165754
  Au     8.028863    7.113122    4.913406
  Au     9.428267    4.361282    9.257526
  Au     8.906321    5.427267    6.779842
  Au     8.107483    9.801207    5.845744
  Au     6.314062    9.994150    8.016424
  Au     9.092775    9.628130    8.512477
  Au     7.000902    5.635693    9.087997
  Au     5.151813    7.421774    8.387706
  Au     5.647033    8.421811    5.768198
  Mn     7.631699    7.669630    7.476719

----------------------------
CARTESIAN COORDINATES (A.U.)
----------------------------
  NO LB      ZA    FRAG     MASS         X           Y           Z
   0 Au   19.0000*   0   196.966   18.179774   13.415339   17.320764
   1 Au   19.0000*   0   196.966   15.172352   13.441852    9.284992
   2 Au   19.0000*   0   196.966   17.816842    8.241629   17.494188
   3 Au   19.0000*   0   196.966   16.830507   10.256048   12.812044
   4 Au   19.0000*   0   196.966   15.320922   18.521596   11.046854
   5 Au   19.0000*   0   196.966   11.931848   18.886207   15.148846
   6 Au   19.0000*   0   196.966   17.182855   18.194529   16.086250
   7 Au   19.0000*   0   196.966   13.229787   10.649917   17.173826
   8 Au   19.0000*   0   196.966    9.735516   14.025121   15.850468
   9 Au   19.0000*   0   196.966   10.671346   15.914916   10.900314
  10 Mn   25.0000    0    54.940   14.421822   14.493500   14.128951
* core charge reduced due to ECP

--------------------------------
INTERNAL COORDINATES (ANGSTROEM)
--------------------------------
 Au     0   0   0     0.000000000000     0.00000000     0.00000000
 Au     1   0   0     4.540418495222     0.00000000     0.00000000
 Au     1   2   0     2.746071670961    90.56528223     0.00000000
 Au     2   1   3     2.663760746237    39.31835971   349.87302290
 Au     2   1   3     2.846266783860    71.72694748   170.19657104
 Au     5   2   1     2.822310898954   107.39437969   296.45211031
 Au     1   2   3     2.664790666027    72.42703559   190.41851135
 Au     3   1   2     2.746810362481    66.24524373   293.50407950
 Au     8   3   1     2.664511131055   160.13344185    36.60105133
 Au     5   2   1     2.821800428424    60.34641207   257.77617170
 Mn     2   1   3     2.652925379779    31.59240920   109.49064912

---------------------------
INTERNAL COORDINATES (A.U.)
---------------------------
 Au     0   0   0     0.000000000000     0.00000000     0.00000000
 Au     1   0   0     8.580147489360     0.00000000     0.00000000
 Au     1   2   0     5.189323402236    90.56528223     0.00000000
 Au     2   1   3     5.033778296677    39.31835971   349.87302290
 Au     2   1   3     5.378664725572    71.72694748   170.19657104
 Au     5   2   1     5.333394663804   107.39437969   296.45211031
 Au     1   2   3     5.035724563021    72.42703559   190.41851135
 Au     3   1   2     5.190719326906    66.24524373   293.50407950
 Au     8   3   1     5.035196318479   160.13344185    36.60105133
 Au     5   2   1     5.332430014302    60.34641207   257.77617170
 Mn     2   1   3     5.013302421512    31.59240920   109.49064912

---------------------
BASIS SET INFORMATION
---------------------
There are 2 groups of distinct atoms

 Group   1 Type Au  : 8s7p6d1f contracted to 6s4p3d1f pattern {311111/4111/411/1}
 Group   2 Type Mn  : 17s11p7d1f contracted to 6s4p4d1f pattern {842111/6311/4111/1}

Atom   0Au   basis set group =>   1
Atom   1Au   basis set group =>   1
Atom   2Au   basis set group =>   1
Atom   3Au   basis set group =>   1
Atom   4Au   basis set group =>   1
Atom   5Au   basis set group =>   1
Atom   6Au   basis set group =>   1
Atom   7Au   basis set group =>   1
Atom   8Au   basis set group =>   1
Atom   9Au   basis set group =>   1
Atom  10Mn   basis set group =>   2
---------------------------------
AUXILIARY/J BASIS SET INFORMATION
---------------------------------
There are 2 groups of distinct atoms

 Group   1 Type Au  : 11s5p5d3f3g contracted to 8s5p5d2f3g pattern {41111111/11111/11111/21/111}
 Group   2 Type Mn  : 19s5p5d3f3g contracted to 8s5p5d2f3g pattern {121111111/11111/11111/21/111}

Atom   0Au   basis set group =>   1
Atom   1Au   basis set group =>   1
Atom   2Au   basis set group =>   1
Atom   3Au   basis set group =>   1
Atom   4Au   basis set group =>   1
Atom   5Au   basis set group =>   1
Atom   6Au   basis set group =>   1
Atom   7Au   basis set group =>   1
Atom   8Au   basis set group =>   1
Atom   9Au   basis set group =>   1
Atom  10Mn   basis set group =>   2
-------------------------
ECP PARAMETER INFORMATION
-------------------------

 Group 1, Type Au ECP Def2-ECP (replacing 60 core electrons, lmax=3)

Atom   0Au   ECP group =>   1
Atom   1Au   ECP group =>   1
Atom   2Au   ECP group =>   1
Atom   3Au   ECP group =>   1
Atom   4Au   ECP group =>   1
Atom   5Au   ECP group =>   1
Atom   6Au   ECP group =>   1
Atom   7Au   ECP group =>   1
Atom   8Au   ECP group =>   1
Atom   9Au   ECP group =>   1



           ************************************************************
           *        Program running with 6 parallel MPI-processes     *
           *              working on a common directory               *
           ************************************************************
------------------------------------------------------------------------------
                           ORCA GTO INTEGRAL CALCULATION
                           -- RI-GTO INTEGRALS CHOSEN --
------------------------------------------------------------------------------
------------------------------------------------------------------------------
                   ___                                                        
                  /   \      - P O W E R E D   B Y -                         
                 /     \                                                     
                 |  |  |   _    _      __       _____    __    __             
                 |  |  |  | |  | |    /  \     |  _  \  |  |  /  |          
                  \  \/   | |  | |   /    \    | | | |  |  | /  /          
                 / \  \   | |__| |  /  /\  \   | |_| |  |  |/  /          
                |  |  |   |  __  | /  /__\  \  |    /   |      \           
                |  |  |   | |  | | |   __   |  |    \   |  |\   \          
                \     /   | |  | | |  |  |  |  | |\  \  |  | \   \       
                 \___/    |_|  |_| |__|  |__|  |_| \__\ |__|  \__/        
                                                                              
                      - O R C A' S   B I G   F R I E N D -                    
                                      &                                       
                       - I N T E G R A L  F E E D E R -                       
                                                                              
 v1 FN, 2020, v2 2021                                                         
------------------------------------------------------------------------------


Reading SHARK input file pbeSP.SHARKINP.tmp ... ok
----------------------
SHARK INTEGRAL PACKAGE
----------------------

Number of atoms                             ...     11
Number of basis functions                   ...    445
Number of shells                            ...    155
Maximum angular momentum                    ...      3
Integral batch strategy                     ... SHARK/LIBINT Hybrid
RI-J (if used) integral strategy            ... SPLIT-RIJ (Revised 2003 algorithm where possible)
Printlevel                                  ...      1
Contraction scheme used                     ... SEGMENTED contraction
Coulomb Range Separation                    ... NOT USED
Exchange Range Separation                   ... NOT USED
Finite Nucleus Model                        ... NOT USED
Auxiliary Coulomb fitting basis             ... AVAILABLE
   # of basis functions in Aux-J            ...    979
   # of shells in Aux-J                     ...    253
   Maximum angular momentum in Aux-J        ...      4
Auxiliary J/K fitting basis                 ... NOT available
Auxiliary Correlation fitting basis         ... NOT available
Auxiliary 'external' fitting basis          ... NOT available
Integral threshold                          ...     1.000000e-10
Primitive cut-off                           ...     1.000000e-11
Primitive pair pre-selection threshold      ...     1.000000e-11

Calculating pre-screening integrals         ... done (  0.2 sec) Dimension = 155
Organizing shell pair data                  ... done (  0.3 sec)
Shell pair information
Total number of shell pairs                 ...     12090
Shell pairs after pre-screening             ...     10020
Total number of primitive shell pairs       ...     33105
Primitive shell pairs kept                  ...     20218
          la=0 lb=0:   1566 shell pairs
          la=1 lb=0:   2296 shell pairs
          la=1 lb=1:    850 shell pairs
          la=2 lb=0:   1988 shell pairs
          la=2 lb=1:   1399 shell pairs
          la=2 lb=2:    579 shell pairs
          la=3 lb=0:    532 shell pairs
          la=3 lb=1:    404 shell pairs
          la=3 lb=2:    349 shell pairs
          la=3 lb=3:     57 shell pairs

Calculating one electron integrals          ... done (  0.0 sec)
Calculating ECP integrals                   ... done (  9.8 sec)
Calculating RI/J V-Matrix + Cholesky decomp.... done (  0.1 sec)
Calculating Nuclear repulsion               ... done (  0.0 sec) ENN=   3181.967865547935 Eh

SHARK setup successfully completed in  10.9 seconds

Maximum memory used throughout the entire GTOINT-calculation: 27.2 MB


           ************************************************************
           *        Program running with 6 parallel MPI-processes     *
           *              working on a common directory               *
           ************************************************************
-------------------------------------------------------------------------------
                                 ORCA SCF
-------------------------------------------------------------------------------

------------
SCF SETTINGS
------------
Hamiltonian:
 Density Functional     Method          .... DFT(GTOs)
 Exchange Functional    Exchange        .... PBE
   PBE kappa parameter   XKappa         ....  0.804000
   PBE mue parameter    XMuePBE         ....  0.219520
 Correlation Functional Correlation     .... PBE
   PBE beta parameter  CBetaPBE         ....  0.066725
 LDA part of GGA corr.  LDAOpt          .... PW91-LDA
 Gradients option       PostSCFGGA      .... off
   Density functional embedding theory  .... OFF
   NL short-range parameter             ....  6.400000
 RI-approximation to the Coulomb term is turned on
   Number of AuxJ basis functions       .... 979


General Settings:
 Integral files         IntName         .... pbeSP
 Hartree-Fock type      HFTyp           .... UHF
 Total Charge           Charge          ....    0
 Multiplicity           Mult            ....    6
 Number of Electrons    NEL             ....  215
 Basis Dimension        Dim             ....  445
 Nuclear Repulsion      ENuc            ....   3181.9678655479 Eh

Convergence Acceleration:
 DIIS                   CNVDIIS         .... off
 Trust-Rad. Augm. Hess. CNVTRAH         .... auto
   Auto Start mean grad. ratio tolernc. ....  1.125000
   Auto Start start iteration           ....   200
   Auto Start num. interpolation iter.  ....    10
   Max. Number of Micro iterations      ....    16
   Max. Number of Macro iterations      .... Maxiter - #DIIS iter
   Number of Davidson start vectors     ....     2
   Converg. threshold I  (grad. norm)   ....   5.000e-05
   Converg. threshold II (energy diff.) ....   1.000e-06
   Grad. Scal. Fac. for Micro threshold ....   0.100
   Minimum threshold for Micro iter.    ....   0.010
   NR start threshold (gradient norm)   ....   0.001
   Initial trust radius                 ....   0.400
   Minimum AH scaling param. (alpha)    ....   1.000
   Maximum AH scaling param. (alpha)    .... 1000.000
   Orbital update algorithm             .... Taylor
   White noise on init. David. guess    .... on
   Maximum white noise                  ....   0.010
   Quad. conv. algorithm                .... NR
 SOSCF                  CNVSOSCF        .... off
 Level Shifting         CNVShift        .... off
 Zerner damping         CNVZerner       .... off
 Static damping         CNVDamp         .... off
 Fernandez-Rico         CNVRico         .... off

SCF Procedure:
 Maximum # iterations   MaxIter         ....   400
 SCF integral mode      SCFMode         .... Direct
   Integral package                     .... SHARK and LIBINT hybrid scheme
 Reset frequency        DirectResetFreq ....    20
 Integral Threshold     Thresh          ....  1.000e-10 Eh
 Primitive CutOff       TCut            ....  1.000e-11 Eh

Convergence Tolerance:
 Convergence Check Mode ConvCheckMode   .... All-Criteria
 Convergence forced     ConvForced      .... 0
 Energy Change          TolE            ....  1.000e-06 Eh
 Max Density Change     TolMaxP         ....  1.000e-05
 RMS Density Change     TolRMSP         ....  1.000e-06


Diagonalization of the overlap matrix:
Smallest eigenvalue                        ... 4.433e-04
Time for diagonalization                   ...    0.071 sec
Threshold for overlap eigenvalues          ... 1.000e-08
Number of eigenvalues below threshold      ... 0
Time for construction of square roots      ...    0.050 sec
Total time needed                          ...    0.122 sec

Time for model grid setup =    0.617 sec

------------------------------
INITIAL GUESS: MODEL POTENTIAL
------------------------------
Loading Hartree-Fock densities                     ... done
  calling /home/ehlert/src/miniconda3/envs/orca500/Programs/ORCA501/orca pbeSP_atom79.inp > pbeSP_atom79.out in order to generate an atomic fitting density for atom 0 (Au with ECP) on-the-fly... 
    atom 0 (Au), assumed electronic state with S=2: 1s2 2s2 2p6 3s2 3p6 4s2 3d10 4p6 5s2 4d10 5p6 6s1 4f14 5d10           ... done
Calculating cut-offs                               ... done
Initializing the effective Hamiltonian             ... done
Setting up the integral package (SHARK)            ... done
Starting the Coulomb interaction                   ... done (   0.5 sec)
Reading the grid                                   ... done
Mapping shells                                     ... done
Starting the XC term evaluation                    ... done (   0.5 sec)
  promolecular density results
     # of electrons  =    815.011927693
     EX              =  -3708.807595608
     EC              =    -49.498544311
     EX+EC           =  -3758.306139919
Transforming the Hamiltonian                       ... done (   0.0 sec)
Diagonalizing the Hamiltonian                      ... done (   0.1 sec)
Back transforming the eigenvectors                 ... done (   0.0 sec)
Now organizing SCF variables                       ... done
                      ------------------
                      INITIAL GUESS DONE (   2.8 sec)
                      ------------------
-------------------
DFT GRID GENERATION
-------------------

General Integration Accuracy     IntAcc      ... 4.388
Radial Grid Type                 RadialGrid  ... OptM3 with GC (2021)
Angular Grid (max. ang.)         AngularGrid ... 4 (Lebedev-302)
Angular grid pruning method      GridPruning ... 4 (adaptive)
Weight generation scheme         WeightScheme... Becke
Basis function cutoff            BFCut       ... 1.0000e-10
Integration weight cutoff        WCut        ... 1.0000e-14
Angular grids for H and He will be reduced by one unit
Partially contracted basis set               ... off
Rotationally invariant grid construction     ... off

Total number of grid points                  ...   123416
Total number of batches                      ...     1934
Average number of points per batch           ...       63
Average number of grid points per atom       ...    11220
Time for grid setup =    2.034 sec

--------------
SCF ITERATIONS
--------------
ITER       Energy         Delta-E        Max-DP      RMS-DP      [F,P]   Gradient Norm
               ***  Starting incremental Fock matrix formation  ***
                             ****Resetting KDIIS****
                             ****Turning on KDIIS(Cayley)****
  0  -2507.6219848546   0.000000000000 0.13501313  0.00118175  0.3673589   0.208685473
  1  -2508.3633845608  -0.741399706163 0.20283758  0.00123125  0.3283587   0.163321860
  2  -2508.7039768960  -0.340592335201 0.10054619  0.00117400  0.2592500   0.123210848
  3  -2508.8888718095  -0.184894913526 0.13327580  0.00146185  0.1512353   0.070809823
  4  -2508.9625756513  -0.073703841837 0.08028497  0.00045880  0.0349753   0.016675939
  5  -2508.9844346932  -0.021859041869 0.05144067  0.00036446  0.0140544   0.007116662
  6  -2508.9950749325  -0.010640239258 0.03801281  0.00042769  0.0256530   0.005205785
  7  -2509.0038879156  -0.008812983142 0.02335765  0.00029457  0.0085387   0.004336134
  8  -2509.0069445565  -0.003056640861 0.03848479  0.00018380  0.0094410   0.005168052
  9  -2509.0094596000  -0.002515043489 0.02280324  0.00014238  0.0083421   0.002536929
 10  -2509.0098998125  -0.000440212581 0.02375942  0.00009717  0.0060489   0.003415025
 11  -2509.0107518238  -0.000852011231 0.01523453  0.00009792  0.0022167   0.001041357
 12  -2509.0109943431  -0.000242519284 0.00415660  0.00004195  0.0024905   0.001316972
 13  -2509.0110332078  -0.000038864732 0.00522222  0.00004601  0.0021609   0.001060830
 14  -2509.0111730886  -0.000139880863 0.00636985  0.00002998  0.0014023   0.000754054
 15  -2509.0111761922  -0.000003103539 0.00345405  0.00004358  0.0023299   0.000746487
 16  -2509.0112977562  -0.000121563997 0.00625035  0.00002070  0.0013838   0.000577532
 17  -2509.0113089109  -0.000011154669 0.00313127  0.00003686  0.0013788   0.000428747
 18  -2509.0113897417  -0.000080830832 0.00108662  0.00001283  0.0014673   0.000303240
 19  -2509.0114066454  -0.000016903741 0.00135291  0.00001683  0.0015101   0.000350184
               *** Restarting incremental Fock matrix formation ***
                             ****Resetting KDIIS****
 20  -2509.0114412613  -0.000034615911 0.00026950  0.00000291  0.0015266   0.000250831
 21  -2509.0114479873  -0.000006726004 0.00057167  0.00000592  0.0015368   0.000216861
 22  -2509.0114602784  -0.000012291018 0.00111112  0.00001129  0.0015532   0.000207356
 23  -2509.0114834566  -0.000023178240 0.00063805  0.00000405  0.0015837   0.000198061
 24  -2509.0114769860   0.000006470603 0.00253887  0.00002533  0.0015774   0.000197180
 25  -2509.0114269501   0.000050035937 0.00640570  0.00006385  0.0015153   0.000198599
 26  -2509.0113089871   0.000117962934 0.00715544  0.00007042  0.0013469   0.000202318
 27  -2509.0111951337   0.000113853375 0.02127730  0.00021189  0.0011673   0.000325240
 28  -2509.0109464432   0.000248690508 0.00336564  0.00003300  0.0006869   0.000185292
 29  -2509.0109354988   0.000010944448 0.01305954  0.00013496  0.0005703   0.000278375
 30  -2509.0108745100   0.000060988794 0.00418941  0.00004123  0.0004583   0.000202518
 31  -2509.0108769091  -0.000002399062 0.00566621  0.00005498  0.0005804   0.000217475
 32  -2509.0108852180  -0.000008308919 0.00336844  0.00003519  0.0004218   0.000214789
 33  -2509.0108955254  -0.000010307469 0.00081771  0.00000760  0.0002397   0.000075533
 34  -2509.0108981286  -0.000002603175 0.00275236  0.00002774  0.0002309   0.000102908
 35  -2509.0109073814  -0.000009252749 0.00087022  0.00000888  0.0003115   0.000051030
 36  -2509.0109052992   0.000002082190 0.00087092  0.00000870  0.0002817   0.000045428
 37  -2509.0109082268  -0.000002927570 0.00047847  0.00000483  0.0003017   0.000057110
 38  -2509.0109093994  -0.000001172600 0.00060711  0.00000672  0.0003037   0.000050526
                          ***Energy convergence achieved***
 39  -2509.0109084759   0.000000923415 0.00025942  0.00000254  0.0002841   0.000051494
               *** Restarting incremental Fock matrix formation ***
                             ****Resetting KDIIS****
                           ***RMSP convergence achieved***

            ***Energy convergence in two consecutive cycles with***
                    ***'reasonable' density convergence***
                       *** signaling convergence ***

                    *** KDIIS BlockDiag ( 0.118 sec) ***

               *****************************************************
               *                     SUCCESS                       *
               *           SCF CONVERGED AFTER  40 CYCLES          *
               *****************************************************


----------------
TOTAL SCF ENERGY
----------------

Total Energy       :        -2509.01090835 Eh          -68273.65778 eV

Components:
Nuclear Repulsion  :         3181.96786555 Eh           86585.74756 eV
Electronic Energy  :        -5690.97877390 Eh         -154859.40534 eV
One Electron Energy:       -10328.96593764 Eh         -281065.45225 eV
Two Electron Energy:         4637.98716374 Eh          126206.04692 eV

Virial components:
Potential Energy   :        -4115.96577237 Eh         -112001.12269 eV
Kinetic Energy     :         1606.95486402 Eh           43727.46491 eV
Virial Ratio       :            2.56134498


DFT components:
N(Alpha)           :      109.999992555199 electrons
N(Beta)            :      104.999992915675 electrons
N(Total)           :      214.999985470874 electrons
E(X)               :     -171.333188043159 Eh       
E(C)               :       -9.332967743261 Eh       
E(XC)              :     -180.666155786420 Eh       
DFET-embed. en.    :        0.000000000000 Eh       

---------------
SCF CONVERGENCE
---------------

  Last Energy change         ...    1.2354e-07  Tolerance :   1.0000e-06
  Last MAX-Density change    ...    4.1938e-05  Tolerance :   1.0000e-05
  Last RMS-Density change    ...    4.4875e-07  Tolerance :   1.0000e-06

             **** THE GBW FILE WAS UPDATED (pbeSP.gbw) ****
             **** DENSITY pbeSP.scfp WAS UPDATED ****
             **** ENERGY FILE WAS UPDATED (pbeSP.en.tmp) ****
----------------------
UHF SPIN CONTAMINATION
----------------------

Warning: in a DFT calculation there is little theoretical justification to 
         calculate <S**2> as in Hartree-Fock theory. We will do it anyways
         but you should keep in mind that the values have only limited relevance

Expectation value of <S**2>     :     8.776724
Ideal value S*(S+1) for S=2.5   :     8.750000
Deviation                       :     0.026724

             **** THE GBW FILE WAS UPDATED (pbeSP.gbw) ****
             **** DENSITY pbeSP.scfp WAS UPDATED ****
----------------
ORBITAL ENERGIES
----------------
                 SPIN UP ORBITALS
  NO   OCC          E(Eh)            E(eV) 
   0   1.0000    -234.196471     -6372.8100 
   1   1.0000     -26.893912      -731.8205 
   2   1.0000     -23.044853      -627.0823 
   3   1.0000     -23.042575      -627.0204 
   4   1.0000     -23.039408      -626.9342 
   5   1.0000      -4.029206      -109.6403 
   6   1.0000      -4.028494      -109.6209 
   7   1.0000      -4.028415      -109.6187 
   8   1.0000      -4.028010      -109.6077 
   9   1.0000      -4.027007      -109.5804 
  10   1.0000      -4.026409      -109.5642 
  11   1.0000      -4.020495      -109.4032 
  12   1.0000      -4.020157      -109.3940 
  13   1.0000      -4.019600      -109.3789 
  14   1.0000      -4.017005      -109.3083 
  15   1.0000      -3.103651       -84.4546 
  16   1.0000      -2.249004       -61.1985 
  17   1.0000      -2.248246       -61.1779 
  18   1.0000      -2.244607       -61.0789 
  19   1.0000      -2.244486       -61.0756 
  20   1.0000      -2.244185       -61.0674 
  21   1.0000      -2.243834       -61.0578 
  22   1.0000      -2.243294       -61.0431 
  23   1.0000      -2.242509       -61.0218 
  24   1.0000      -2.242211       -61.0137 
  25   1.0000      -2.241503       -60.9944 
  26   1.0000      -2.239906       -60.9509 
  27   1.0000      -2.239086       -60.9286 
  28   1.0000      -2.238251       -60.9059 
  29   1.0000      -2.237363       -60.8817 
  30   1.0000      -2.237128       -60.8754 
  31   1.0000      -2.236241       -60.8512 
  32   1.0000      -2.236114       -60.8477 
  33   1.0000      -2.235829       -60.8400 
  34   1.0000      -2.235516       -60.8315 
  35   1.0000      -2.235084       -60.8197 
  36   1.0000      -2.234797       -60.8119 
  37   1.0000      -2.233608       -60.7796 
  38   1.0000      -2.233411       -60.7742 
  39   1.0000      -2.231878       -60.7325 
  40   1.0000      -2.230967       -60.7077 
  41   1.0000      -2.230729       -60.7012 
  42   1.0000      -2.229781       -60.6754 
  43   1.0000      -2.228428       -60.6386 
  44   1.0000      -2.228284       -60.6347 
  45   1.0000      -2.223472       -60.5038 
  46   1.0000      -2.011193       -54.7273 
  47   1.0000      -2.006876       -54.6099 
  48   1.0000      -2.000712       -54.4421 
  49   1.0000      -0.417289       -11.3550 
  50   1.0000      -0.386048       -10.5049 
  51   1.0000      -0.368987       -10.0406 
  52   1.0000      -0.368230       -10.0200 
  53   1.0000      -0.367335        -9.9957 
  54   1.0000      -0.366343        -9.9687 
  55   1.0000      -0.360228        -9.8023 
  56   1.0000      -0.356388        -9.6978 
  57   1.0000      -0.342834        -9.3290 
  58   1.0000      -0.342295        -9.3143 
  59   1.0000      -0.338719        -9.2170 
  60   1.0000      -0.333846        -9.0844 
  61   1.0000      -0.331689        -9.0257 
  62   1.0000      -0.329959        -8.9786 
  63   1.0000      -0.325435        -8.8555 
  64   1.0000      -0.324469        -8.8292 
  65   1.0000      -0.322558        -8.7772 
  66   1.0000      -0.321111        -8.7379 
  67   1.0000      -0.319739        -8.7006 
  68   1.0000      -0.318672        -8.6715 
  69   1.0000      -0.317799        -8.6478 
  70   1.0000      -0.317069        -8.6279 
  71   1.0000      -0.306615        -8.3434 
  72   1.0000      -0.305109        -8.3024 
  73   1.0000      -0.302028        -8.2186 
  74   1.0000      -0.293924        -7.9981 
  75   1.0000      -0.292264        -7.9529 
  76   1.0000      -0.289362        -7.8739 
  77   1.0000      -0.287800        -7.8314 
  78   1.0000      -0.284600        -7.7443 
  79   1.0000      -0.283199        -7.7062 
  80   1.0000      -0.280654        -7.6370 
  81   1.0000      -0.279652        -7.6097 
  82   1.0000      -0.278362        -7.5746 
  83   1.0000      -0.276511        -7.5243 
  84   1.0000      -0.273516        -7.4428 
  85   1.0000      -0.272918        -7.4265 
  86   1.0000      -0.270677        -7.3655 
  87   1.0000      -0.267844        -7.2884 
  88   1.0000      -0.267754        -7.2860 
  89   1.0000      -0.265750        -7.2314 
  90   1.0000      -0.262668        -7.1476 
  91   1.0000      -0.261260        -7.1092 
  92   1.0000      -0.259489        -7.0610 
  93   1.0000      -0.257222        -6.9994 
  94   1.0000      -0.256151        -6.9702 
  95   1.0000      -0.255421        -6.9504 
  96   1.0000      -0.252926        -6.8825 
  97   1.0000      -0.251933        -6.8554 
  98   1.0000      -0.248214        -6.7543 
  99   1.0000      -0.246215        -6.6998 
 100   1.0000      -0.243995        -6.6394 
 101   1.0000      -0.240556        -6.5459 
 102   1.0000      -0.239516        -6.5176 
 103   1.0000      -0.237911        -6.4739 
 104   1.0000      -0.237588        -6.4651 
 105   1.0000      -0.232139        -6.3168 
 106   1.0000      -0.231911        -6.3106 
 107   1.0000      -0.228747        -6.2245 
 108   1.0000      -0.203318        -5.5326 
 109   1.0000      -0.171680        -4.6716 
 110   0.0000      -0.178882        -4.8676 
 111   0.0000      -0.137059        -3.7296 
 112   0.0000      -0.136751        -3.7212 
 113   0.0000      -0.132329        -3.6009 
 114   0.0000      -0.108503        -2.9525 
 115   0.0000      -0.068351        -1.8599 
 116   0.0000      -0.065628        -1.7858 
 117   0.0000      -0.055881        -1.5206 
 118   0.0000      -0.045155        -1.2287 
 119   0.0000      -0.043882        -1.1941 
 120   0.0000      -0.034445        -0.9373 
 121   0.0000      -0.033315        -0.9065 
 122   0.0000      -0.031318        -0.8522 
 123   0.0000      -0.016435        -0.4472 
 124   0.0000      -0.006944        -0.1890 
 125   0.0000       0.014229         0.3872 
 126   0.0000       0.015296         0.4162 
 127   0.0000       0.042094         1.1454 
 128   0.0000       0.043268         1.1774 
 129   0.0000       0.048710         1.3255 
 130   0.0000       0.049294         1.3414 
 131   0.0000       0.052096         1.4176 
 132   0.0000       0.056089         1.5263 
 133   0.0000       0.057875         1.5749 
 134   0.0000       0.060061         1.6344 
 135   0.0000       0.061800         1.6817 
 136   0.0000       0.076182         2.0730 
 137   0.0000       0.084948         2.3115 
 138   0.0000       0.087099         2.3701 
 139   0.0000       0.095088         2.5875 
 140   0.0000       0.095695         2.6040 
 141   0.0000       0.101812         2.7705 
 142   0.0000       0.129346         3.5197 
 143   0.0000       0.134112         3.6494 
 144   0.0000       0.134900         3.6708 
 145   0.0000       0.137862         3.7514 
 146   0.0000       0.146662         3.9909 
 147   0.0000       0.148388         4.0378 
 148   0.0000       0.153243         4.1699 
 149   0.0000       0.165941         4.5155 
 150   0.0000       0.167115         4.5474 
 151   0.0000       0.176151         4.7933 
 152   0.0000       0.179394         4.8816 
 153   0.0000       0.189604         5.1594 
 154   0.0000       0.214698         5.8422 
 155   0.0000       0.216156         5.8819 
 156   0.0000       0.217272         5.9123 
 157   0.0000       0.223994         6.0952 
 158   0.0000       0.232114         6.3161 
 159   0.0000       0.234523         6.3817 
 160   0.0000       0.247016         6.7216 
 161   0.0000       0.247294         6.7292 
 162   0.0000       0.249044         6.7768 
 163   0.0000       0.251100         6.8328 
 164   0.0000       0.251910         6.8548 
 165   0.0000       0.259210         7.0535 
 166   0.0000       0.261559         7.1174 
 167   0.0000       0.278539         7.5794 
 168   0.0000       0.281964         7.6726 
 169   0.0000       0.284346         7.7374 
 170   0.0000       0.285174         7.7600 
 171   0.0000       0.301008         8.1908 
 172   0.0000       0.303482         8.2582 
 173   0.0000       0.304041         8.2734 
 174   0.0000       0.304691         8.2911 
 175   0.0000       0.321774         8.7559 
 176   0.0000       0.323316         8.7979 
 177   0.0000       0.332230         9.0404 
 178   0.0000       0.338252         9.2043 
 179   0.0000       0.338604         9.2139 
 180   0.0000       0.339866         9.2482 
 181   0.0000       0.340853         9.2751 
 182   0.0000       0.342273         9.3137 
 183   0.0000       0.343112         9.3365 
 184   0.0000       0.366628         9.9765 
 185   0.0000       0.370151        10.0723 
 186   0.0000       0.380331        10.3493 
 187   0.0000       0.381966        10.3938 
 188   0.0000       0.382431        10.4065 
 189   0.0000       0.396418        10.7871 
 190   0.0000       0.407235        11.0814 
 191   0.0000       0.412186        11.2162 
 192   0.0000       0.414668        11.2837 
 193   0.0000       0.419070        11.4035 
 194   0.0000       0.432117        11.7585 
 195   0.0000       0.434129        11.8133 
 196   0.0000       0.444069        12.0837 
 197   0.0000       0.445073        12.1111 
 198   0.0000       0.445437        12.1210 
 199   0.0000       0.452826        12.3220 
 200   0.0000       0.453811        12.3488 
 201   0.0000       0.461224        12.5505 
 202   0.0000       0.487651        13.2697 
 203   0.0000       0.492758        13.4086 
 204   0.0000       0.493949        13.4410 
 205   0.0000       0.497078        13.5262 
 206   0.0000       0.498521        13.5654 
 207   0.0000       0.500560        13.6209 
 208   0.0000       0.514373        13.9968 
 209   0.0000       0.515302        14.0221 
 210   0.0000       0.518825        14.1179 
 211   0.0000       0.520643        14.1674 
 212   0.0000       0.524625        14.2758 
 213   0.0000       0.544243        14.8096 
 214   0.0000       0.595335        16.1999 
 215   0.0000       0.597815        16.2674 
 216   0.0000       0.623852        16.9759 
 217   0.0000       0.642045        17.4709 
 218   0.0000       0.646732        17.5985 
 219   0.0000       0.662584        18.0298 
 220   0.0000       0.677948        18.4479 
 221   0.0000       0.691893        18.8274 
 222   0.0000       0.692173        18.8350 
 223   0.0000       0.696249        18.9459 
 224   0.0000       0.704642        19.1743 
 225   0.0000       0.709098        19.2955 
 226   0.0000       0.718833        19.5604 
 227   0.0000       0.751570        20.4513 
 228   0.0000       0.752104        20.4658 
 229   0.0000       0.764201        20.7950 
 230   0.0000       0.765003        20.8168 
 231   0.0000       0.805671        21.9234 
 232   0.0000       0.815359        22.1870 
 233   0.0000       0.835669        22.7397 
 234   0.0000       0.839678        22.8488 
 235   0.0000       0.871074        23.7031 
 236   0.0000       0.871893        23.7254 
 237   0.0000       0.888917        24.1887 
 238   0.0000       0.915334        24.9075 
 239   0.0000       0.917751        24.9733 
 240   0.0000       0.921037        25.0627 
 241   0.0000       0.940533        25.5932 
 242   0.0000       0.943571        25.6759 
 243   0.0000       0.950438        25.8627 
 244   0.0000       0.955081        25.9891 
 245   0.0000       1.012257        27.5449 
 246   0.0000       1.081146        29.4195 
 247   0.0000       1.083294        29.4779 
 248   0.0000       1.119287        30.4574 
 249   0.0000       1.213273        33.0148 
 250   0.0000       1.218826        33.1659 
 251   0.0000       1.256856        34.2008 
 252   0.0000       1.266093        34.4521 
 253   0.0000       1.267732        34.4968 
 254   0.0000       1.269757        34.5519 
 255   0.0000       1.291428        35.1415 
 256   0.0000       1.291564        35.1452 
 257   0.0000       1.313257        35.7355 
 258   0.0000       1.321673        35.9645 
 259   0.0000       1.323475        36.0136 
 260   0.0000       1.331252        36.2252 
 261   0.0000       1.336211        36.3601 
 262   0.0000       1.376229        37.4491 
 263   0.0000       1.386753        37.7355 
 264   0.0000       1.387854        37.7654 
 265   0.0000       1.391690        37.8698 
 266   0.0000       1.395754        37.9804 
 267   0.0000       1.398462        38.0541 
 268   0.0000       1.398933        38.0669 
 269   0.0000       1.406118        38.2624 
 270   0.0000       1.408494        38.3271 
 271   0.0000       1.422697        38.7136 
 272   0.0000       1.433701        39.0130 
 273   0.0000       1.439471        39.1700 
 274   0.0000       1.441118        39.2148 
 275   0.0000       1.444316        39.3018 
 276   0.0000       1.447791        39.3964 
 277   0.0000       1.450191        39.4617 
 278   0.0000       1.456413        39.6310 
 279   0.0000       1.457359        39.6568 
 280   0.0000       1.465371        39.8748 
 281   0.0000       1.468074        39.9483 
 282   0.0000       1.468580        39.9621 
 283   0.0000       1.470458        40.0132 
 284   0.0000       1.474723        40.1293 
 285   0.0000       1.477052        40.1926 
 286   0.0000       1.479588        40.2616 
 287   0.0000       1.480022        40.2734 
 288   0.0000       1.481695        40.3190 
 289   0.0000       1.486029        40.4369 
 290   0.0000       1.486140        40.4399 
 291   0.0000       1.486340        40.4454 
 292   0.0000       1.492175        40.6041 
 293   0.0000       1.492575        40.6150 
 294   0.0000       1.495449        40.6932 
 295   0.0000       1.496227        40.7144 
 296   0.0000       1.498449        40.7749 
 297   0.0000       1.499490        40.8032 
 298   0.0000       1.501056        40.8458 
 299   0.0000       1.503108        40.9017 
 300   0.0000       1.503697        40.9177 
 301   0.0000       1.504454        40.9383 
 302   0.0000       1.505877        40.9770 
 303   0.0000       1.507916        41.0325 
 304   0.0000       1.508118        41.0380 
 305   0.0000       1.510029        41.0900 
 306   0.0000       1.510418        41.1006 
 307   0.0000       1.512918        41.1686 
 308   0.0000       1.514644        41.2156 
 309   0.0000       1.515603        41.2417 
 310   0.0000       1.519910        41.3589 
 311   0.0000       1.522782        41.4370 
 312   0.0000       1.524100        41.4729 
 313   0.0000       1.526682        41.5431 
 314   0.0000       1.530053        41.6349 
 315   0.0000       1.530524        41.6477 
 316   0.0000       1.532023        41.6885 
 317   0.0000       1.540171        41.9102 
 318   0.0000       1.540639        41.9229 
 319   0.0000       1.541800        41.9545 
 320   0.0000       1.542383        41.9704 
 321   0.0000       1.544089        42.0168 
 322   0.0000       1.544396        42.0252 
 323   0.0000       1.549815        42.1726 
 324   0.0000       1.552325        42.2409 
 325   0.0000       1.554894        42.3108 
 326   0.0000       1.557488        42.3814 
 327   0.0000       1.560311        42.4582 
 328   0.0000       1.563585        42.5473 
 329   0.0000       1.564342        42.5679 
 330   0.0000       1.570052        42.7233 
 331   0.0000       1.575609        42.8745 
 332   0.0000       1.577507        42.9261 
 333   0.0000       1.582089        43.0508 
 334   0.0000       1.585040        43.1311 
 335   0.0000       1.585349        43.1395 
 336   0.0000       1.591414        43.3046 
 337   0.0000       1.593025        43.3484 
 338   0.0000       1.593844        43.3707 
 339   0.0000       1.594328        43.3839 
 340   0.0000       1.601818        43.5877 
 341   0.0000       1.604281        43.6547 
 342   0.0000       1.611121        43.8408 
 343   0.0000       1.611831        43.8602 
 344   0.0000       1.613745        43.9122 
 345   0.0000       1.623738        44.1841 
 346   0.0000       1.624837        44.2141 
 347   0.0000       1.647864        44.8407 
 348   0.0000       1.648972        44.8708 
 349   0.0000       1.650379        44.9091 
 350   0.0000       1.654308        45.0160 
 351   0.0000       1.676189        45.6114 
 352   0.0000       1.688289        45.9407 
 353   0.0000       1.692230        46.0479 
 354   0.0000       1.724339        46.9217 
 355   0.0000       1.728464        47.0339 
 356   0.0000       1.733431        47.1691 
 357   0.0000       1.761688        47.9380 
 358   0.0000       1.765106        48.0310 
 359   0.0000       1.776001        48.3274 
 360   0.0000       1.778993        48.4089 
 361   0.0000       1.781439        48.4754 
 362   0.0000       1.802918        49.0599 
 363   0.0000       1.822879        49.6031 
 364   0.0000       1.828547        49.7573 
 365   0.0000       1.881574        51.2002 
 366   0.0000       1.925493        52.3953 
 367   0.0000       1.932809        52.5944 
 368   0.0000       1.980378        53.8888 
 369   0.0000       2.084336        56.7177 
 370   0.0000       2.100025        57.1446 
 371   0.0000       2.104331        57.2617 
 372   0.0000       2.210360        60.1470 
 373   0.0000       2.289520        62.3010 
 374   0.0000       2.295065        62.4519 
 375   0.0000       2.369263        64.4709 
 376   0.0000       2.406181        65.4755 
 377   0.0000       2.411103        65.6095 
 378   0.0000       2.433727        66.2251 
 379   0.0000       2.446389        66.5696 
 380   0.0000       2.452530        66.7367 
 381   0.0000       2.463916        67.0466 
 382   0.0000       2.912530        79.2540 
 383   0.0000       3.231836        87.9427 
 384   0.0000       3.243402        88.2574 
 385   0.0000       3.246469        88.3409 
 386   0.0000       3.252059        88.4930 
 387   0.0000       3.259410        88.6931 
 388   0.0000       3.264195        88.8233 
 389   0.0000       3.277642        89.1892 
 390   0.0000       3.316117        90.2361 
 391   0.0000       3.316485        90.2461 
 392   0.0000       3.389843        92.2423 
 393   0.0000       3.437605        93.5420 
 394   0.0000       3.443836        93.7115 
 395   0.0000      23.813662       648.0027 
 396   0.0000      23.833970       648.5553 
 397   0.0000      23.838470       648.6777 
 398   0.0000      24.109580       656.0550 
 399   0.0000      24.427259       664.6995 
 400   0.0000      24.429074       664.7489 
 401   0.0000      24.499935       666.6771 
 402   0.0000      24.734853       673.0696 
 403   0.0000      24.917626       678.0431 
 404   0.0000      24.919601       678.0968 
 405   0.0000      25.303727       688.5494 
 406   0.0000      25.305166       688.5886 
 407   0.0000      25.670718       698.5357 
 408   0.0000      25.676022       698.6801 
 409   0.0000      25.950395       706.1461 
 410   0.0000      26.315266       716.0748 
 411   0.0000      26.317448       716.1342 
 412   0.0000      26.363889       717.3979 
 413   0.0000      26.553928       722.5691 
 414   0.0000      26.556325       722.6343 
 415   0.0000      26.904995       732.1221 
 416   0.0000      27.031282       735.5586 
 417   0.0000      27.297417       742.8005 
 418   0.0000      27.304353       742.9892 
 419   0.0000      27.964991       760.9661 
 420   0.0000      27.968314       761.0565 
 421   0.0000      28.275371       769.4120 
 422   0.0000      28.278655       769.5013 
 423   0.0000      28.465537       774.5866 
 424   0.0000      29.539705       803.8162 
 425   0.0000      43.827784      1192.6146 
 426   0.0000      43.952364      1196.0046 
 427   0.0000      43.998711      1197.2658 
 428   0.0000      44.004469      1197.4225 
 429   0.0000      44.085814      1199.6360 
 430   0.0000      44.091791      1199.7986 
 431   0.0000      44.096688      1199.9319 
 432   0.0000      44.131844      1200.8885 
 433   0.0000      44.133572      1200.9356 
 434   0.0000      44.140989      1201.1374 
 435   0.0000     205.061405      5580.0045 
 436   0.0000     205.109875      5581.3234 
 437   0.0000     205.125464      5581.7476 
 438   0.0000     205.131313      5581.9068 
 439   0.0000     205.166907      5582.8754 
 440   0.0000     205.170630      5582.9767 
 441   0.0000     205.175758      5583.1162 
 442   0.0000     205.183646      5583.3309 
 443   0.0000     205.186307      5583.4033 
 444   0.0000     205.193555      5583.6005 

                 SPIN DOWN ORBITALS
  NO   OCC          E(Eh)            E(eV) 
   0   1.0000    -234.195736     -6372.7900 
   1   1.0000     -26.828045      -730.0282 
   2   1.0000     -22.994533      -625.7130 
   3   1.0000     -22.992766      -625.6650 
   4   1.0000     -22.989441      -625.5745 
   5   1.0000      -4.027733      -109.6002 
   6   1.0000      -4.027017      -109.5807 
   7   1.0000      -4.026731      -109.5729 
   8   1.0000      -4.026342      -109.5623 
   9   1.0000      -4.026030      -109.5538 
  10   1.0000      -4.025456      -109.5382 
  11   1.0000      -4.019615      -109.3793 
  12   1.0000      -4.018842      -109.3583 
  13   1.0000      -4.018312      -109.3438 
  14   1.0000      -4.015069      -109.2556 
  15   1.0000      -2.942126       -80.0593 
  16   1.0000      -2.247175       -61.1487 
  17   1.0000      -2.246427       -61.1284 
  18   1.0000      -2.242729       -61.0278 
  19   1.0000      -2.242650       -61.0256 
  20   1.0000      -2.242046       -61.0092 
  21   1.0000      -2.241773       -61.0018 
  22   1.0000      -2.241270       -60.9881 
  23   1.0000      -2.240962       -60.9797 
  24   1.0000      -2.240690       -60.9723 
  25   1.0000      -2.240115       -60.9566 
  26   1.0000      -2.238704       -60.9182 
  27   1.0000      -2.238144       -60.9030 
  28   1.0000      -2.237187       -60.8770 
  29   1.0000      -2.236372       -60.8548 
  30   1.0000      -2.236140       -60.8485 
  31   1.0000      -2.234852       -60.8134 
  32   1.0000      -2.234527       -60.8046 
  33   1.0000      -2.234491       -60.8036 
  34   1.0000      -2.234348       -60.7997 
  35   1.0000      -2.233666       -60.7811 
  36   1.0000      -2.233260       -60.7701 
  37   1.0000      -2.232205       -60.7414 
  38   1.0000      -2.231761       -60.7293 
  39   1.0000      -2.231262       -60.7157 
  40   1.0000      -2.229801       -60.6760 
  41   1.0000      -2.228139       -60.6307 
  42   1.0000      -2.228041       -60.6281 
  43   1.0000      -2.227533       -60.6143 
  44   1.0000      -2.227242       -60.6063 
  45   1.0000      -2.221595       -60.4527 
  46   1.0000      -1.851148       -50.3723 
  47   1.0000      -1.849446       -50.3260 
  48   1.0000      -1.842600       -50.1397 
  49   1.0000      -0.408052       -11.1037 
  50   1.0000      -0.384040       -10.4502 
  51   1.0000      -0.364241        -9.9115 
  52   1.0000      -0.361119        -9.8265 
  53   1.0000      -0.358373        -9.7518 
  54   1.0000      -0.357971        -9.7409 
  55   1.0000      -0.355524        -9.6743 
  56   1.0000      -0.349779        -9.5180 
  57   1.0000      -0.341566        -9.2945 
  58   1.0000      -0.333403        -9.0724 
  59   1.0000      -0.331937        -9.0325 
  60   1.0000      -0.327542        -8.9129 
  61   1.0000      -0.326682        -8.8895 
  62   1.0000      -0.323826        -8.8118 
  63   1.0000      -0.321597        -8.7511 
  64   1.0000      -0.320122        -8.7110 
  65   1.0000      -0.318280        -8.6608 
  66   1.0000      -0.316543        -8.6136 
  67   1.0000      -0.315894        -8.5959 
  68   1.0000      -0.311031        -8.4636 
  69   1.0000      -0.310764        -8.4563 
  70   1.0000      -0.307608        -8.3704 
  71   1.0000      -0.303906        -8.2697 
  72   1.0000      -0.301060        -8.1923 
  73   1.0000      -0.299934        -8.1616 
  74   1.0000      -0.290304        -7.8996 
  75   1.0000      -0.289964        -7.8903 
  76   1.0000      -0.287256        -7.8166 
  77   1.0000      -0.283314        -7.7094 
  78   1.0000      -0.282941        -7.6992 
  79   1.0000      -0.280293        -7.6272 
  80   1.0000      -0.277705        -7.5567 
  81   1.0000      -0.275325        -7.4920 
  82   1.0000      -0.274788        -7.4774 
  83   1.0000      -0.273162        -7.4331 
  84   1.0000      -0.271901        -7.3988 
  85   1.0000      -0.269385        -7.3303 
  86   1.0000      -0.266874        -7.2620 
  87   1.0000      -0.266043        -7.2394 
  88   1.0000      -0.265997        -7.2381 
  89   1.0000      -0.263327        -7.1655 
  90   1.0000      -0.260916        -7.0999 
  91   1.0000      -0.258533        -7.0351 
  92   1.0000      -0.257508        -7.0071 
  93   1.0000      -0.255250        -6.9457 
  94   1.0000      -0.253685        -6.9031 
  95   1.0000      -0.252386        -6.8678 
  96   1.0000      -0.249293        -6.7836 
  97   1.0000      -0.248153        -6.7526 
  98   1.0000      -0.240733        -6.5507 
  99   1.0000      -0.238682        -6.4949 
 100   1.0000      -0.237706        -6.4683 
 101   1.0000      -0.236259        -6.4289 
 102   1.0000      -0.230739        -6.2787 
 103   1.0000      -0.209811        -5.7093 
 104   1.0000      -0.185565        -5.0495 
 105   0.0000      -0.191953        -5.2233 
 106   0.0000      -0.147189        -4.0052 
 107   0.0000      -0.147109        -4.0030 
 108   0.0000      -0.140029        -3.8104 
 109   0.0000      -0.121997        -3.3197 
 110   0.0000      -0.117078        -3.1859 
 111   0.0000      -0.115738        -3.1494 
 112   0.0000      -0.114655        -3.1199 
 113   0.0000      -0.110287        -3.0011 
 114   0.0000      -0.098703        -2.6858 
 115   0.0000      -0.062813        -1.7092 
 116   0.0000      -0.059760        -1.6262 
 117   0.0000      -0.051918        -1.4128 
 118   0.0000      -0.042238        -1.1493 
 119   0.0000      -0.040666        -1.1066 
 120   0.0000      -0.026812        -0.7296 
 121   0.0000      -0.026585        -0.7234 
 122   0.0000      -0.025437        -0.6922 
 123   0.0000      -0.011072        -0.3013 
 124   0.0000      -0.006396        -0.1740 
 125   0.0000       0.021276         0.5789 
 126   0.0000       0.022853         0.6219 
 127   0.0000       0.044505         1.2110 
 128   0.0000       0.045738         1.2446 
 129   0.0000       0.051179         1.3926 
 130   0.0000       0.053392         1.4529 
 131   0.0000       0.055518         1.5107 
 132   0.0000       0.057895         1.5754 
 133   0.0000       0.062702         1.7062 
 134   0.0000       0.063889         1.7385 
 135   0.0000       0.065073         1.7707 
 136   0.0000       0.077771         2.1163 
 137   0.0000       0.089154         2.4260 
 138   0.0000       0.090858         2.4724 
 139   0.0000       0.096837         2.6351 
 140   0.0000       0.098185         2.6717 
 141   0.0000       0.103898         2.8272 
 142   0.0000       0.131061         3.5664 
 143   0.0000       0.139886         3.8065 
 144   0.0000       0.142246         3.8707 
 145   0.0000       0.146570         3.9884 
 146   0.0000       0.153599         4.1796 
 147   0.0000       0.155386         4.2283 
 148   0.0000       0.156220         4.2510 
 149   0.0000       0.171970         4.6795 
 150   0.0000       0.173098         4.7102 
 151   0.0000       0.183672         4.9980 
 152   0.0000       0.187731         5.1084 
 153   0.0000       0.197008         5.3609 
 154   0.0000       0.218518         5.9462 
 155   0.0000       0.220523         6.0007 
 156   0.0000       0.225973         6.1490 
 157   0.0000       0.234722         6.3871 
 158   0.0000       0.237135         6.4528 
 159   0.0000       0.241055         6.5594 
 160   0.0000       0.248498         6.7620 
 161   0.0000       0.250316         6.8114 
 162   0.0000       0.250995         6.8299 
 163   0.0000       0.252524         6.8715 
 164   0.0000       0.253702         6.9036 
 165   0.0000       0.260524         7.0892 
 166   0.0000       0.263064         7.1583 
 167   0.0000       0.279680         7.6105 
 168   0.0000       0.283907         7.7255 
 169   0.0000       0.286271         7.7898 
 170   0.0000       0.287447         7.8218 
 171   0.0000       0.304765         8.2931 
 172   0.0000       0.305385         8.3099 
 173   0.0000       0.305970         8.3259 
 174   0.0000       0.307366         8.3639 
 175   0.0000       0.322672         8.7804 
 176   0.0000       0.324319         8.8252 
 177   0.0000       0.334475         9.1015 
 178   0.0000       0.339864         9.2482 
 179   0.0000       0.339973         9.2511 
 180   0.0000       0.341225         9.2852 
 181   0.0000       0.342019         9.3068 
 182   0.0000       0.344154         9.3649 
 183   0.0000       0.344980         9.3874 
 184   0.0000       0.368518        10.0279 
 185   0.0000       0.372071        10.1246 
 186   0.0000       0.383307        10.4303 
 187   0.0000       0.384918        10.4742 
 188   0.0000       0.385590        10.4925 
 189   0.0000       0.401515        10.9258 
 190   0.0000       0.408751        11.1227 
 191   0.0000       0.416836        11.3427 
 192   0.0000       0.420156        11.4330 
 193   0.0000       0.422852        11.5064 
 194   0.0000       0.434016        11.8102 
 195   0.0000       0.436504        11.8779 
 196   0.0000       0.445344        12.1184 
 197   0.0000       0.447706        12.1827 
 198   0.0000       0.448163        12.1951 
 199   0.0000       0.454840        12.3768 
 200   0.0000       0.456105        12.4112 
 201   0.0000       0.464851        12.6492 
 202   0.0000       0.489894        13.3307 
 203   0.0000       0.496883        13.5209 
 204   0.0000       0.498540        13.5660 
 205   0.0000       0.502503        13.6738 
 206   0.0000       0.504556        13.7297 
 207   0.0000       0.506611        13.7856 
 208   0.0000       0.517024        14.0689 
 209   0.0000       0.518270        14.1029 
 210   0.0000       0.520901        14.1744 
 211   0.0000       0.522865        14.2279 
 212   0.0000       0.526359        14.3230 
 213   0.0000       0.547517        14.8987 
 214   0.0000       0.610250        16.6057 
 215   0.0000       0.613040        16.6817 
 216   0.0000       0.635558        17.2944 
 217   0.0000       0.656045        17.8519 
 218   0.0000       0.660234        17.9659 
 219   0.0000       0.672609        18.3026 
 220   0.0000       0.679036        18.4775 
 221   0.0000       0.701174        19.0799 
 222   0.0000       0.701305        19.0835 
 223   0.0000       0.702974        19.1289 
 224   0.0000       0.706594        19.2274 
 225   0.0000       0.712213        19.3803 
 226   0.0000       0.720083        19.5944 
 227   0.0000       0.755867        20.5682 
 228   0.0000       0.756419        20.5832 
 229   0.0000       0.767178        20.8760 
 230   0.0000       0.768778        20.9195 
 231   0.0000       0.814416        22.1614 
 232   0.0000       0.816334        22.2136 
 233   0.0000       0.837127        22.7794 
 234   0.0000       0.841175        22.8895 
 235   0.0000       0.892780        24.2938 
 236   0.0000       0.892889        24.2968 
 237   0.0000       0.901674        24.5358 
 238   0.0000       0.921480        25.0747 
 239   0.0000       0.924922        25.1684 
 240   0.0000       0.941075        25.6079 
 241   0.0000       0.957404        26.0523 
 242   0.0000       0.960202        26.1284 
 243   0.0000       0.972624        26.4665 
 244   0.0000       0.975990        26.5580 
 245   0.0000       1.015868        27.6432 
 246   0.0000       1.084258        29.5042 
 247   0.0000       1.086399        29.5624 
 248   0.0000       1.126319        30.6487 
 249   0.0000       1.214897        33.0590 
 250   0.0000       1.220533        33.2124 
 251   0.0000       1.258094        34.2345 
 252   0.0000       1.268671        34.5223 
 253   0.0000       1.269392        34.5419 
 254   0.0000       1.271213        34.5915 
 255   0.0000       1.293714        35.2037 
 256   0.0000       1.293769        35.2053 
 257   0.0000       1.315773        35.8040 
 258   0.0000       1.323670        36.0189 
 259   0.0000       1.325007        36.0553 
 260   0.0000       1.333051        36.2742 
 261   0.0000       1.338559        36.4240 
 262   0.0000       1.379118        37.5277 
 263   0.0000       1.388487        37.7826 
 264   0.0000       1.391420        37.8625 
 265   0.0000       1.393829        37.9280 
 266   0.0000       1.397548        38.0292 
 267   0.0000       1.400734        38.1159 
 268   0.0000       1.403834        38.2003 
 269   0.0000       1.407772        38.3074 
 270   0.0000       1.409982        38.3676 
 271   0.0000       1.424930        38.7743 
 272   0.0000       1.435122        39.0516 
 273   0.0000       1.440793        39.2060 
 274   0.0000       1.442416        39.2501 
 275   0.0000       1.446638        39.3650 
 276   0.0000       1.451072        39.4857 
 277   0.0000       1.452601        39.5273 
 278   0.0000       1.457977        39.6736 
 279   0.0000       1.458878        39.6981 
 280   0.0000       1.467849        39.9422 
 281   0.0000       1.469457        39.9859 
 282   0.0000       1.470734        40.0207 
 283   0.0000       1.472221        40.0612 
 284   0.0000       1.476781        40.1853 
 285   0.0000       1.480401        40.2837 
 286   0.0000       1.482322        40.3360 
 287   0.0000       1.483962        40.3807 
 288   0.0000       1.485252        40.4158 
 289   0.0000       1.487358        40.4731 
 290   0.0000       1.487808        40.4853 
 291   0.0000       1.487970        40.4897 
 292   0.0000       1.493801        40.6484 
 293   0.0000       1.494217        40.6597 
 294   0.0000       1.498695        40.7816 
 295   0.0000       1.498868        40.7863 
 296   0.0000       1.500373        40.8272 
 297   0.0000       1.501461        40.8568 
 298   0.0000       1.502496        40.8850 
 299   0.0000       1.505651        40.9709 
 300   0.0000       1.506230        40.9866 
 301   0.0000       1.508143        41.0387 
 302   0.0000       1.509201        41.0674 
 303   0.0000       1.509644        41.0795 
 304   0.0000       1.511135        41.1201 
 305   0.0000       1.512843        41.1665 
 306   0.0000       1.514005        41.1982 
 307   0.0000       1.516196        41.2578 
 308   0.0000       1.517202        41.2852 
 309   0.0000       1.517464        41.2923 
 310   0.0000       1.521868        41.4121 
 311   0.0000       1.524769        41.4911 
 312   0.0000       1.526635        41.5418 
 313   0.0000       1.528644        41.5965 
 314   0.0000       1.532222        41.6939 
 315   0.0000       1.533788        41.7365 
 316   0.0000       1.536760        41.8174 
 317   0.0000       1.542652        41.9777 
 318   0.0000       1.542905        41.9846 
 319   0.0000       1.544754        42.0349 
 320   0.0000       1.545088        42.0440 
 321   0.0000       1.546703        42.0879 
 322   0.0000       1.547120        42.0993 
 323   0.0000       1.552811        42.2541 
 324   0.0000       1.556886        42.3650 
 325   0.0000       1.557492        42.3815 
 326   0.0000       1.560209        42.4554 
 327   0.0000       1.562215        42.5100 
 328   0.0000       1.566763        42.6338 
 329   0.0000       1.567713        42.6597 
 330   0.0000       1.574119        42.8339 
 331   0.0000       1.577873        42.9361 
 332   0.0000       1.579625        42.9838 
 333   0.0000       1.584710        43.1222 
 334   0.0000       1.586827        43.1798 
 335   0.0000       1.588173        43.2164 
 336   0.0000       1.593451        43.3600 
 337   0.0000       1.595654        43.4199 
 338   0.0000       1.595873        43.4259 
 339   0.0000       1.597804        43.4785 
 340   0.0000       1.603481        43.6329 
 341   0.0000       1.606775        43.7226 
 342   0.0000       1.614523        43.9334 
 343   0.0000       1.616978        44.0002 
 344   0.0000       1.617260        44.0079 
 345   0.0000       1.631734        44.4018 
 346   0.0000       1.634539        44.4781 
 347   0.0000       1.652997        44.9803 
 348   0.0000       1.653928        45.0057 
 349   0.0000       1.655192        45.0401 
 350   0.0000       1.656011        45.0624 
 351   0.0000       1.689695        45.9789 
 352   0.0000       1.691184        46.0195 
 353   0.0000       1.695557        46.1385 
 354   0.0000       1.738095        47.2960 
 355   0.0000       1.744983        47.4834 
 356   0.0000       1.748067        47.5673 
 357   0.0000       1.771939        48.2169 
 358   0.0000       1.773257        48.2528 
 359   0.0000       1.776814        48.3496 
 360   0.0000       1.787124        48.6301 
 361   0.0000       1.791404        48.7466 
 362   0.0000       1.803402        49.0731 
 363   0.0000       1.828710        49.7617 
 364   0.0000       1.834137        49.9094 
 365   0.0000       1.890701        51.4486 
 366   0.0000       1.929333        52.4998 
 367   0.0000       1.936813        52.7034 
 368   0.0000       1.982486        53.9462 
 369   0.0000       2.090871        56.8955 
 370   0.0000       2.157771        58.7159 
 371   0.0000       2.161537        58.8184 
 372   0.0000       2.215542        60.2880 
 373   0.0000       2.293780        62.4169 
 374   0.0000       2.299434        62.5708 
 375   0.0000       2.373182        64.5776 
 376   0.0000       2.409450        65.5645 
 377   0.0000       2.414518        65.7024 
 378   0.0000       2.449067        66.6425 
 379   0.0000       2.450896        66.6923 
 380   0.0000       2.459223        66.9189 
 381   0.0000       2.493828        67.8605 
 382   0.0000       3.016056        82.0711 
 383   0.0000       3.374918        91.8362 
 384   0.0000       3.381988        92.0286 
 385   0.0000       3.384813        92.1054 
 386   0.0000       3.388702        92.2113 
 387   0.0000       3.389668        92.2376 
 388   0.0000       3.390153        92.2508 
 389   0.0000       3.417400        92.9922 
 390   0.0000       3.435791        93.4926 
 391   0.0000       3.436219        93.5043 
 392   0.0000       3.498388        95.1960 
 393   0.0000       3.541921        96.3806 
 394   0.0000       3.545318        96.4730 
 395   0.0000      23.814672       648.0302 
 396   0.0000      23.834966       648.5824 
 397   0.0000      23.839431       648.7039 
 398   0.0000      24.110361       656.0763 
 399   0.0000      24.428600       664.7360 
 400   0.0000      24.430476       664.7871 
 401   0.0000      24.501977       666.7327 
 402   0.0000      24.735810       673.0956 
 403   0.0000      24.918648       678.0709 
 404   0.0000      24.920660       678.1256 
 405   0.0000      25.304536       688.5714 
 406   0.0000      25.306016       688.6117 
 407   0.0000      25.671857       698.5667 
 408   0.0000      25.677350       698.7162 
 409   0.0000      25.952189       706.1950 
 410   0.0000      26.316223       716.1008 
 411   0.0000      26.318526       716.1635 
 412   0.0000      26.364592       717.4170 
 413   0.0000      26.555177       722.6031 
 414   0.0000      26.557476       722.6657 
 415   0.0000      26.906238       732.1560 
 416   0.0000      27.033051       735.6067 
 417   0.0000      27.298432       742.8281 
 418   0.0000      27.305350       743.0164 
 419   0.0000      27.966808       761.0155 
 420   0.0000      27.970171       761.1071 
 421   0.0000      28.277307       769.4647 
 422   0.0000      28.280606       769.5544 
 423   0.0000      28.467686       774.6451 
 424   0.0000      29.541689       803.8702 
 425   0.0000      43.828400      1192.6314 
 426   0.0000      43.952905      1196.0193 
 427   0.0000      43.999321      1197.2824 
 428   0.0000      44.005157      1197.4412 
 429   0.0000      44.086325      1199.6499 
 430   0.0000      44.092314      1199.8129 
 431   0.0000      44.097296      1199.9484 
 432   0.0000      44.132446      1200.9049 
 433   0.0000      44.134155      1200.9514 
 434   0.0000      44.141760      1201.1584 
 435   0.0000     205.061848      5580.0166 
 436   0.0000     205.110249      5581.3336 
 437   0.0000     205.125928      5581.7603 
 438   0.0000     205.131817      5581.9205 
 439   0.0000     205.167227      5582.8841 
 440   0.0000     205.171000      5582.9867 
 441   0.0000     205.176186      5583.1279 
 442   0.0000     205.184097      5583.3431 
 443   0.0000     205.186748      5583.4153 
 444   0.0000     205.194094      5583.6152 

                    ********************************
                    * MULLIKEN POPULATION ANALYSIS *
                    ********************************

--------------------------------------------
MULLIKEN ATOMIC CHARGES AND SPIN POPULATIONS
--------------------------------------------
   0 Au:    0.126059    0.079411
   1 Au:    0.267659    0.061965
   2 Au:    0.340569    0.088590
   3 Au:   -0.042095    0.171747
   4 Au:    0.267669    0.058366
   5 Au:    0.141407    0.122571
   6 Au:    0.230376    0.071869
   7 Au:    0.119022    0.063240
   8 Au:    0.231431    0.068794
   9 Au:    0.276454    0.076109
  10 Mn:   -1.958551    4.137339
Sum of atomic charges         :   -0.0000000
Sum of atomic spin populations:    5.0000000

-----------------------------------------------------
MULLIKEN REDUCED ORBITAL CHARGES AND SPIN POPULATIONS
-----------------------------------------------------
CHARGE
  0 Aus       :     2.931205  s :     2.931205
      pz      :     2.009884  p :     6.214916
      px      :     2.011618
      py      :     2.193414
      dz2     :     1.948729  d :     9.723189
      dxz     :     1.938484
      dyz     :     1.969439
      dx2y2   :     1.903568
      dxy     :     1.962968
      f0      :     0.000454  f :     0.004631
      f+1     :     0.000347
      f-1     :     0.000831
      f+2     :     0.000662
      f-2     :     0.000397
      f+3     :     0.000819
      f-3     :     0.001122
  1 Aus       :     2.955447  s :     2.955447
      pz      :     1.982014  p :     6.111913
      px      :     2.041701
      py      :     2.088199
      dz2     :     1.915779  d :     9.661266
      dxz     :     1.944290
      dyz     :     1.923069
      dx2y2   :     1.924437
      dxy     :     1.953690
      f0      :     0.000552  f :     0.003716
      f+1     :     0.000400
      f-1     :     0.000702
      f+2     :     0.000599
      f-2     :     0.000547
      f+3     :     0.000380
      f-3     :     0.000536
  2 Aus       :     2.915975  s :     2.915975
      pz      :     2.024519  p :     6.034366
      px      :     2.005763
      py      :     2.004084
      dz2     :     1.924530  d :     9.705732
      dxz     :     1.979878
      dyz     :     1.965435
      dx2y2   :     1.892731
      dxy     :     1.943158
      f0      :     0.000500  f :     0.003357
      f+1     :     0.000394
      f-1     :     0.000631
      f+2     :     0.000372
      f-2     :     0.000283
      f+3     :     0.000525
      f-3     :     0.000653
  3 Aus       :     3.221512  s :     3.221512
      pz      :     2.121021  p :     6.164898
      px      :     2.025476
      py      :     2.018401
      dz2     :     1.946732  d :     9.651164
      dxz     :     1.921651
      dyz     :     1.893199
      dx2y2   :     1.947461
      dxy     :     1.942122
      f0      :     0.000730  f :     0.004521
      f+1     :     0.000642
      f-1     :     0.001085
      f+2     :     0.000687
      f-2     :     0.000745
      f+3     :     0.000345
      f-3     :     0.000286
  4 Aus       :     2.866090  s :     2.866090
      pz      :     2.053061  p :     6.132639
      px      :     2.054732
      py      :     2.024846
      dz2     :     1.954990  d :     9.729611
      dxz     :     1.952599
      dyz     :     1.917054
      dx2y2   :     1.941816
      dxy     :     1.963152
      f0      :     0.000594  f :     0.003991
      f+1     :     0.000793
      f-1     :     0.000550
      f+2     :     0.000552
      f-2     :     0.000409
      f+3     :     0.000433
      f-3     :     0.000660
[...]
  8 Aus       :    -0.000284  s :    -0.000284
      pz      :    -0.005895  p :    -0.012946
      px      :     0.007153
      py      :    -0.014204
      dz2     :    -0.002205  d :     0.025729
      dxz     :     0.014920
      dyz     :    -0.000091
      dx2y2   :     0.011865
      dxy     :     0.001240
      f0      :     0.000039  f :     0.000262
      f+1     :     0.000031
      f-1     :    -0.000002
      f+2     :     0.000062
      f-2     :     0.000006
      f+3     :     0.000081
      f-3     :     0.000044
  9 Aus       :    -0.169133  s :    -0.169133
      pz      :    -0.003769  p :    -0.004800
      px      :    -0.000485
      py      :    -0.000546
      dz2     :    -0.002296  d :     0.009217
      dxz     :     0.007556
      dyz     :     0.000850
      dx2y2   :     0.000974
      dxy     :     0.002132
      f0      :     0.000019  f :     0.000125
      f+1     :     0.000027
      f-1     :    -0.000009
      f+2     :     0.000044
      f-2     :     0.000030
      f+3     :     0.000011
      f-3     :     0.000003
 10 Mns       :    -0.016562  s :    -0.016562
      pz      :     0.029430  p :     0.088767
      px      :     0.029445
      py      :     0.029893
      dz2     :     0.844202  d :     3.888246
      dxz     :     0.754816
      dyz     :     0.743520
      dx2y2   :     0.771913
      dxy     :     0.773794
      f0      :     0.000007  f :     0.000062
      f+1     :     0.000008
      f-1     :     0.000009
      f+2     :     0.000010
      f-2     :     0.000009
      f+3     :     0.000010
      f-3     :     0.000009


                     *******************************
                     * LOEWDIN POPULATION ANALYSIS *
                     *******************************

-------------------------------------------
LOEWDIN ATOMIC CHARGES AND SPIN POPULATIONS
-------------------------------------------
   0 Au:    0.015173   -0.090991
   1 Au:    0.093954   -0.055105
   2 Au:    0.077106   -0.034536
   3 Au:    0.015337   -0.091477
   4 Au:    0.034316   -0.129377
   5 Au:    0.034048   -0.128799
   6 Au:    0.093777   -0.054774
   7 Au:    0.015316   -0.090970
   8 Au:    0.093839   -0.054829
   9 Au:    0.034678   -0.129272
  10 Mn:   -0.507543    3.860131

----------------------------------------------------
LOEWDIN REDUCED ORBITAL CHARGES AND SPIN POPULATIONS
----------------------------------------------------
CHARGE
  0 Aus       :     2.622064  s :     2.622064
      pz      :     2.082531  p :     6.502513
      px      :     2.088780
      py      :     2.331202
      dz2     :     1.974893  d :     9.854408
      dxz     :     1.963502
      dyz     :     1.979821
      dx2y2   :     1.956347
      dxy     :     1.979845
      f0      :     0.000527  f :     0.005843
      f+1     :     0.000488
      f-1     :     0.001066
      f+2     :     0.000854
      f-2     :     0.000467
      f+3     :     0.000951
      f-3     :     0.001488
  1 Aus       :     2.678243  s :     2.678243
      pz      :     2.076943  p :     6.382161
      px      :     2.109080
      py      :     2.196139
      dz2     :     1.948787  d :     9.840879
      dxz     :     1.969104
      dyz     :     1.968507
      dx2y2   :     1.974917
      dxy     :     1.979566
      f0      :     0.000757  f :     0.004763
      f+1     :     0.000515
      f-1     :     0.000907
      f+2     :     0.000790
      f-2     :     0.000680
      f+3     :     0.000415
      f-3     :     0.000698
  2 Aus       :     2.818962  s :     2.818962
      pz      :     2.076103  p :     6.251332
      px      :     2.076433
      py      :     2.098795
      dz2     :     1.950446  d :     9.848404
      dxz     :     1.986622
      dyz     :     1.981353
      dx2y2   :     1.955370
      dxy     :     1.974613
      f0      :     0.000590  f :     0.004195
      f+1     :     0.000505
      f-1     :     0.000825
      f+2     :     0.000421
      f-2     :     0.000314
      f+3     :     0.000595
      f-3     :     0.000944
  3 Aus       :     2.621773  s :     2.621773
      pz      :     2.281944  p :     6.502510
      px      :     2.085659
      py      :     2.134907
      dz2     :     1.975718  d :     9.854536
      dxz     :     1.978144
      dyz     :     1.960189
      dx2y2   :     1.971362
      dxy     :     1.969124
      f0      :     0.000894  f :     0.005843
      f+1     :     0.000774
      f-1     :     0.001444
      f+2     :     0.000896
      f-2     :     0.000969
      f+3     :     0.000507
      f-3     :     0.000359
  4 Aus       :     2.606612  s :     2.606612
      pz      :     2.181324  p :     6.473514
      px      :     2.149202
      py      :     2.142987
      dz2     :     1.995883  d :     9.880640
      dxz     :     1.976464
      dyz     :     1.943978
      dx2y2   :     1.984003
      dxy     :     1.980311
      f0      :     0.000683  f :     0.004919
      f+1     :     0.000997
      f-1     :     0.000637
      f+2     :     0.000772
      f-2     :     0.000467
      f+3     :     0.000460
      f-3     :     0.000903
  5 Aus       :     2.607040  s :     2.607040
      pz      :     2.144444  p :     6.473364
      px      :     2.196142
      py      :     2.132778
      dz2     :     1.988023  d :     9.880632
      dxz     :     1.973736
      dyz     :     1.979348
      dx2y2   :     1.984219
      dxy     :     1.955306
      f0      :     0.000502  f :     0.004916
      f+1     :     0.000819
      f-1     :     0.000824
      f+2     :     0.000724
      f-2     :     0.000536
      f+3     :     0.000862
      f-3     :     0.000650
  6 Aus       :     2.678147  s :     2.678147
      pz      :     2.119991  p :     6.382291
      px      :     2.130040
      py      :     2.132260
      dz2     :     1.971689  d :     9.841031
      dxz     :     1.983335
      dyz     :     1.957765
      dx2y2   :     1.980515
      dxy     :     1.947727
      f0      :     0.000662  f :     0.004753
      f+1     :     0.000692
      f-1     :     0.000642
      f+2     :     0.000587
      f-2     :     0.000455
      f+3     :     0.000865
      f-3     :     0.000850
  7 Aus       :     2.622171  s :     2.622171
      pz      :     2.081988  p :     6.502322
      px      :     2.273296
      py      :     2.147038
      dz2     :     1.976090  d :     9.854351
      dxz     :     1.978639
      dyz     :     1.965102
      dx2y2   :     1.971930
      dxy     :     1.962590
      f0      :     0.000525  f :     0.005840
      f+1     :     0.000953
      f-1     :     0.000559
      f+2     :     0.000525
      f-2     :     0.000840
      f+3     :     0.000968
      f-3     :     0.001470
  8 Aus       :     2.678065  s :     2.678065
      pz      :     2.118040  p :     6.382361
      px      :     2.077602
      py      :     2.186718
      dz2     :     1.971089  d :     9.840978
      dxz     :     1.960793
      dyz     :     1.982426
      dx2y2   :     1.953581
      dxy     :     1.973090
      f0      :     0.000605  f :     0.004758
      f+1     :     0.000670
      f-1     :     0.000701
      f+2     :     0.000455
      f-2     :     0.000586
      f+3     :     0.000896
      f-3     :     0.000846
  9 Aus       :     2.606688  s :     2.606688
      pz      :     2.176316  p :     6.473134
      px      :     2.156411
      py      :     2.140407
      dz2     :     1.996616  d :     9.880590
      dxz     :     1.945072
      dyz     :     1.975019
      dx2y2   :     1.981981
      dxy     :     1.981902
      f0      :     0.000654  f :     0.004911
      f+1     :     0.000778
      f-1     :     0.000918
      f+2     :     0.000556
      f-2     :     0.000663
      f+3     :     0.000446
      f-3     :     0.000896
 10 Mns       :     6.318376  s :     6.318376
      pz      :     4.220221  p :    12.665757
      px      :     4.220252
      py      :     4.225284
      dz2     :     1.240035  d :     6.522274
      dxz     :     1.315305
      dyz     :     1.342930
      dx2y2   :     1.303547
      dxy     :     1.320458
      f0      :     0.000172  f :     0.001135
      f+1     :     0.000131
      f-1     :     0.000142
      f+2     :     0.000200
      f-2     :     0.000171
      f+3     :     0.000196
      f-3     :     0.000123

SPIN
  0 Aus       :    -0.104454  s :    -0.104454
      pz      :    -0.005873  p :    -0.019425
      px      :    -0.008973
      py      :    -0.004579
      dz2     :     0.010039  d :     0.032473
      dxz     :     0.012767
      dyz     :    -0.004241
      dx2y2   :     0.014525
      dxy     :    -0.000616
      f0      :     0.000046  f :     0.000415
      f+1     :     0.000117
      f-1     :     0.000008
      f+2     :     0.000116
      f-2     :     0.000046
      f+3     :     0.000035
      f-3     :     0.000047
  1 Aus       :    -0.006257  s :    -0.006257
      pz      :    -0.001068  p :    -0.069033
      px      :    -0.018142
      py      :    -0.049823
      dz2     :     0.017486  d :     0.019744
      dxz     :     0.013135
      dyz     :     0.004404
      dx2y2   :    -0.010468
      dxy     :    -0.004813
      f0      :     0.000219  f :     0.000442
      f+1     :     0.000136
      f-1     :     0.000144
      f+2     :    -0.000022
      f-2     :    -0.000020
      f+3     :    -0.000002
      f-3     :    -0.000014
  2 Aus       :     0.037612  s :     0.037612
      pz      :    -0.017069  p :    -0.038831
      px      :    -0.017005
      py      :    -0.004757
      dz2     :    -0.016974  d :    -0.033144
      dxz     :     0.000970
      dyz     :    -0.000290
      dx2y2   :    -0.013013
      dxy     :    -0.003838
      f0      :    -0.000023  f :    -0.000173
      f+1     :    -0.000031
      f-1     :    -0.000049
      f+2     :     0.000001
      f-2     :     0.000002
      f+3     :    -0.000005
      f-3     :    -0.000068
  3 Aus       :    -0.104701  s :    -0.104701
      pz      :    -0.017741  p :    -0.019506
      px      :    -0.002922
      py      :     0.001156
      dz2     :     0.003774  d :     0.032317
      dxz     :    -0.007357
      dyz     :     0.011768
      dx2y2   :     0.012835
      dxy     :     0.011296
      f0      :     0.000056  f :     0.000413
      f+1     :     0.000020
      f-1     :     0.000064
      f+2     :     0.000007
      f-2     :     0.000052
      f+3     :     0.000110
      f-3     :     0.000105
  4 Aus       :    -0.090701  s :    -0.090701
      pz      :    -0.023377  p :    -0.046829
      px      :    -0.012644
      py      :    -0.010807
      dz2     :    -0.002864  d :     0.007916
      dxz     :    -0.004819
      dyz     :     0.012375
      dx2y2   :     0.003549
      dxy     :    -0.000325
      f0      :     0.000039  f :     0.000236
      f+1     :    -0.000019
      f-1     :     0.000033
      f+2     :     0.000099
      f-2     :     0.000050
      f+3     :     0.000025
      f-3     :     0.000008
  5 Aus       :    -0.090234  s :    -0.090234
      pz      :    -0.012086  p :    -0.046734
      px      :    -0.023890
      py      :    -0.010758
      dz2     :    -0.000694  d :     0.007933
      dxz     :    -0.008508
      dyz     :     0.001582
      dx2y2   :     0.005225
      dxy     :     0.010328
      f0      :     0.000023  f :     0.000236
      f+1     :     0.000004
      f-1     :     0.000029
      f+2     :    -0.000001
      f-2     :     0.000041
      f+3     :     0.000142
      f-3     :    -0.000003
  6 Aus       :    -0.006238  s :    -0.006238
      pz      :    -0.018719  p :    -0.068715
      px      :    -0.019214
      py      :    -0.030782
      dz2     :    -0.006666  d :     0.019739
      dxz     :     0.004907
      dyz     :     0.012109
      dx2y2   :    -0.007463
      dxy     :     0.016853
      f0      :     0.000060  f :     0.000440
      f+1     :     0.000013
      f-1     :     0.000040
      f+2     :     0.000035
      f-2     :     0.000098
      f+3     :     0.000115
      f-3     :     0.000079
  7 Aus       :    -0.104551  s :    -0.104551
      pz      :    -0.005180  p :    -0.019399
      px      :    -0.016425
      py      :     0.002206
      dz2     :     0.009823  d :     0.032564
      dxz     :    -0.003238
      dyz     :     0.010728
      dx2y2   :     0.004851
      dxy     :     0.010399
      f0      :     0.000048  f :     0.000416
      f+1     :    -0.000002
      f-1     :     0.000117
      f+2     :     0.000088
      f-2     :     0.000072
      f+3     :     0.000047
      f-3     :     0.000047
  8 Aus       :    -0.006257  s :    -0.006257
      pz      :    -0.018848  p :    -0.068743
      px      :    -0.002049
      py      :    -0.047846
      dz2     :    -0.006875  d :     0.019731
      dxz     :     0.016840
      dyz     :    -0.001480
      dx2y2   :     0.012160
      dxy     :    -0.000914
      f0      :     0.000064  f :     0.000440
      f+1     :     0.000060
      f-1     :    -0.000011
      f+2     :     0.000119
      f-2     :    -0.000004
      f+3     :     0.000138
      f-3     :     0.000075
  9 Aus       :    -0.090833  s :    -0.090833
      pz      :    -0.022923  p :    -0.046734
      px      :    -0.021557
      py      :    -0.002255
      dz2     :    -0.003336  d :     0.008057
      dxz     :     0.009082
      dyz     :    -0.000297
      dx2y2   :     0.001147
      dxy     :     0.001461
      f0      :     0.000034  f :     0.000238
      f+1     :     0.000053
      f-1     :    -0.000022
      f+2     :     0.000085
      f-2     :     0.000062
      f+3     :     0.000019
      f-3     :     0.000007
 10 Mns       :     0.021794  s :     0.021794
      pz      :     0.014894  p :     0.043866
      px      :     0.014884
      py      :     0.014089
      dz2     :     0.833900  d :     3.794428
      dxz     :     0.727284
      dyz     :     0.721460
      dx2y2   :     0.755091
      dxy     :     0.756694
      f0      :     0.000004  f :     0.000042
      f+1     :     0.000006
      f-1     :     0.000006
      f+2     :     0.000007
      f-2     :     0.000006
      f+3     :     0.000006
      f-3     :     0.000006


                      *****************************
                      * MAYER POPULATION ANALYSIS *
                      *****************************

  NA   - Mulliken gross atomic population
  ZA   - Total nuclear charge
  QA   - Mulliken gross atomic charge
  VA   - Mayer's total valence
  BVA  - Mayer's bonded valence
  FA   - Mayer's free valence

  ATOM       NA         ZA         QA         VA         BVA        FA
  0 Au    18.9207    19.0000     0.0793     1.7858     1.7351     0.0507
  1 Au    18.7623    19.0000     0.2377     1.5557     1.5526     0.0031
  2 Au    18.6744    19.0000     0.3256     1.4764     1.4707     0.0057
  3 Au    18.9197    19.0000     0.0803     1.7851     1.7342     0.0509
  4 Au    18.7693    19.0000     0.2307     1.5950     1.5644     0.0306
  5 Au    18.7699    19.0000     0.2301     1.5949     1.5647     0.0302
  6 Au    18.7620    19.0000     0.2380     1.5555     1.5523     0.0031
  7 Au    18.9206    19.0000     0.0794     1.7855     1.7348     0.0507
  8 Au    18.7618    19.0000     0.2382     1.5557     1.5526     0.0031
  9 Au    18.7691    19.0000     0.2309     1.5943     1.5637     0.0306
 10 Mn    26.9701    25.0000    -1.9701     8.4181     5.0523     3.3658

  Mayer bond orders larger than 0.100000
B(  0-Au,  2-Au) :   0.3548 B(  0-Au,  3-Au) :   0.1114 B(  0-Au,  6-Au) :   0.3809 
B(  0-Au,  7-Au) :   0.1108 B(  0-Au, 10-Mn) :   0.5958 B(  1-Au,  3-Au) :   0.3809 
B(  1-Au,  4-Au) :   0.1819 B(  1-Au,  5-Au) :   0.1050 B(  1-Au,  9-Au) :   0.1807 
B(  1-Au, 10-Mn) :   0.5414 B(  2-Au,  3-Au) :   0.3548 B(  2-Au,  7-Au) :   0.3544 
B(  2-Au, 10-Mn) :   0.1135 B(  3-Au,  7-Au) :   0.1110 B(  3-Au, 10-Mn) :   0.5947 
B(  4-Au,  5-Au) :   0.2166 B(  4-Au,  6-Au) :   0.1812 B(  4-Au,  8-Au) :   0.1047 
B(  4-Au,  9-Au) :   0.2162 B(  4-Au, 10-Mn) :   0.5094 B(  5-Au,  6-Au) :   0.1820 
B(  5-Au,  8-Au) :   0.1815 B(  5-Au,  9-Au) :   0.2157 B(  5-Au, 10-Mn) :   0.5095 
B(  6-Au,  9-Au) :   0.1048 B(  6-Au, 10-Mn) :   0.5409 B(  7-Au,  8-Au) :   0.3810 
B(  7-Au, 10-Mn) :   0.5960 B(  8-Au,  9-Au) :   0.1817 B(  8-Au, 10-Mn) :   0.5410 
B(  9-Au, 10-Mn) :   0.5102 

-------
TIMINGS
-------

Total SCF time: 0 days 0 hours 1 min 0 sec 

Total time                  ....      60.455 sec
Sum of individual times     ....      58.657 sec  ( 97.0%)

Fock matrix formation       ....      52.187 sec  ( 86.3%)
  Split-RI-J                ....      16.801 sec  ( 32.2% of F)
  XC integration            ....      34.866 sec  ( 66.8% of F)
    Basis function eval.    ....       4.956 sec  ( 14.2% of XC)
    Density eval.           ....      16.294 sec  ( 46.7% of XC)
    XC-Functional eval.     ....       0.633 sec  (  1.8% of XC)
    XC-Potential eval.      ....      12.085 sec  ( 34.7% of XC)
Diagonalization             ....       3.778 sec  (  6.2%)
Density matrix formation    ....       0.166 sec  (  0.3%)
Population analysis         ....       0.214 sec  (  0.4%)
Initial guess               ....       0.292 sec  (  0.5%)
Orbital Transformation      ....       0.000 sec  (  0.0%)
Orbital Orthonormalization  ....       0.256 sec  (  0.4%)
DIIS solution               ....       0.000 sec  (  0.0%)
Grid generation             ....       2.020 sec  (  3.3%)

Maximum memory used throughout the entire SCF-calculation: 62.0 MB

-------------------------   --------------------
FINAL SINGLE POINT ENERGY     -2509.031391522323
-------------------------   --------------------


                            ***************************************
                            *     ORCA property calculations      *
                            ***************************************

                                    ---------------------
                                    Active property flags
                                    ---------------------
   (+) Dipole Moment


------------------------------------------------------------------------------
                       ORCA ELECTRIC PROPERTIES CALCULATION
------------------------------------------------------------------------------

Dipole Moment Calculation                       ... on
Quadrupole Moment Calculation                   ... off
Polarizability Calculation                      ... off
GBWName                                         ... pbeSP_job2.gbw
Electron density                                ... pbeSP_job2.scfp
The origin for moment calculation is the CENTER OF MASS  = (14.602145, 14.163909 14.306891)

-------------
DIPOLE MOMENT
-------------
                                X             Y             Z
Electronic contribution:      3.55445      -6.49793       3.50648
Nuclear contribution   :     -3.55243       6.49306      -3.50548
                        -----------------------------------------
Total Dipole Moment    :      0.00202      -0.00487       0.00099
                        -----------------------------------------
Magnitude (a.u.)       :      0.00536
Magnitude (Debye)      :      0.01363



--------------------
Rotational spectrum 
--------------------
 
Rotational constants in cm-1:     0.002289     0.001360     0.001359 
Rotational constants in MHz :    68.619124    40.759069    40.746877 

 Dipole components along the rotational axes: 
x,y,z [a.u.] :     0.005163    -0.000724    -0.001250 
x,y,z [Debye]:     0.013122    -0.001840    -0.003177 

 

Timings for individual modules:

Sum of individual times         ...       70.916 sec (=   1.182 min)
GTO integral calculation        ...       10.172 sec (=   0.170 min)  14.3 %
SCF iterations                  ...       60.744 sec (=   1.012 min)  85.7 %



                             ****ORCA TERMINATED NORMALLY****
TOTAL RUN TIME: 0 days 0 hours 3 minutes 5 seconds 783 msec
