
                                 *****************
                                 * O   R   C   A *
                                 *****************

                                            #,                                       
                                            ###                                      
                                            ####                                     
                                            #####                                    
                                            ######                                   
                                           ########,                                 
                                     ,,################,,,,,                         
                               ,,#################################,,                 
                          ,,##########################################,,             
                       ,#########################################, ''#####,          
                    ,#############################################,,   '####,        
                  ,##################################################,,,,####,       
                ,###########''''           ''''###############################       
              ,#####''   ,,,,##########,,,,          '''####'''          '####       
            ,##' ,,,,###########################,,,                        '##       
           ' ,,###''''                  '''############,,,                           
         ,,##''                                '''############,,,,        ,,,,,,###''
      ,#''                                            '''#######################'''  
     '                                                          ''''####''''         
             ,#######,   #######,   ,#######,      ##                                
            ,#'     '#,  ##    ##  ,#'     '#,    #''#        ######   ,####,        
            ##       ##  ##   ,#'  ##            #'  '#       #        #'  '#        
            ##       ##  #######   ##           ,######,      #####,   #    #        
            '#,     ,#'  ##    ##  '#,     ,#' ,#      #,         ##   #,  ,#        
             '#######'   ##     ##  '#######'  #'      '#     #####' # '####'        



                  #######################################################
                  #                        -***-                        #
                  #          Department of theory and spectroscopy      #
                  #    Directorship and core code : Frank Neese         #
                  #        Max Planck Institute fuer Kohlenforschung    #
                  #                Kaiser Wilhelm Platz 1               #
                  #                 D-45470 Muelheim/Ruhr               #
                  #                      Germany                        #
                  #                                                     #
                  #                  All rights reserved                #
                  #                        -***-                        #
                  #######################################################


                         Program Version 5.0.3 -  RELEASE  -


 With contributions from (in alphabetic order):
   Daniel Aravena         : Magnetic Suceptibility
   Michael Atanasov       : Ab Initio Ligand Field Theory (pilot matlab implementation)
   Alexander A. Auer      : GIAO ZORA, VPT2 properties, NMR spectrum
   Ute Becker             : Parallelization
   Giovanni Bistoni       : ED, misc. LED, open-shell LED, HFLD
   Martin Brehm           : Molecular dynamics
   Dmytro Bykov           : SCF Hessian
   Vijay G. Chilkuri      : MRCI spin determinant printing, contributions to CSF-ICE
   Dipayan Datta          : RHF DLPNO-CCSD density
   Achintya Kumar Dutta   : EOM-CC, STEOM-CC
   Dmitry Ganyushin       : Spin-Orbit,Spin-Spin,Magnetic field MRCI
   Miquel Garcia          : C-PCM and meta-GGA Hessian, CC/C-PCM, Gaussian charge scheme
   Yang Guo               : DLPNO-NEVPT2, F12-NEVPT2, CIM, IAO-localization
   Andreas Hansen         : Spin unrestricted coupled pair/coupled cluster methods
   Benjamin Helmich-Paris : MC-RPA, TRAH-SCF, COSX integrals
   Lee Huntington         : MR-EOM, pCC
   Robert Izsak           : Overlap fitted RIJCOSX, COSX-SCS-MP3, EOM
   Marcus Kettner         : VPT2
   Christian Kollmar      : KDIIS, OOCD, Brueckner-CCSD(T), CCSD density, CASPT2, CASPT2-K
   Simone Kossmann        : Meta GGA functionals, TD-DFT gradient, OOMP2, MP2 Hessian
   Martin Krupicka        : Initial AUTO-CI
   Lucas Lang             : DCDCAS
   Marvin Lechner         : AUTO-CI (C++ implementation), FIC-MRCC
   Dagmar Lenk            : GEPOL surface, SMD
   Dimitrios Liakos       : Extrapolation schemes; Compound Job, initial MDCI parallelization
   Dimitrios Manganas     : Further ROCIS development; embedding schemes
   Dimitrios Pantazis     : SARC Basis sets
   Anastasios Papadopoulos: AUTO-CI, single reference methods and gradients
   Taras Petrenko         : DFT Hessian,TD-DFT gradient, ASA, ECA, R-Raman, ABS, FL, XAS/XES, NRVS
   Peter Pinski           : DLPNO-MP2, DLPNO-MP2 Gradient
   Christoph Reimann      : Effective Core Potentials
   Marius Retegan         : Local ZFS, SOC
   Christoph Riplinger    : Optimizer, TS searches, QM/MM, DLPNO-CCSD(T), (RO)-DLPNO pert. Triples
   Tobias Risthaus        : Range-separated hybrids, TD-DFT gradient, RPA, STAB
   Michael Roemelt        : Original ROCIS implementation
   Masaaki Saitow         : Open-shell DLPNO-CCSD energy and density
   Barbara Sandhoefer     : DKH picture change effects
   Avijit Sen             : IP-ROCIS
   Kantharuban Sivalingam : CASSCF convergence, NEVPT2, FIC-MRCI
   Bernardo de Souza      : ESD, SOC TD-DFT
   Georgi Stoychev        : AutoAux, RI-MP2 NMR, DLPNO-MP2 response
   Willem Van den Heuvel  : Paramagnetic NMR
   Boris Wezisla          : Elementary symmetry handling
   Frank Wennmohs         : Technical directorship


 We gratefully acknowledge several colleagues who have allowed us to
 interface, adapt or use parts of their codes:
   Stefan Grimme, W. Hujo, H. Kruse, P. Pracht,  : VdW corrections, initial TS optimization,
                  C. Bannwarth, S. Ehlert          DFT functionals, gCP, sTDA/sTD-DF
   Ed Valeev, F. Pavosevic, A. Kumar             : LibInt (2-el integral package), F12 methods
   Garnet Chan, S. Sharma, J. Yang, R. Olivares  : DMRG
   Ulf Ekstrom                                   : XCFun DFT Library
   Mihaly Kallay                                 : mrcc  (arbitrary order and MRCC methods)
   Jiri Pittner, Ondrej Demel                    : Mk-CCSD
   Frank Weinhold                                : gennbo (NPA and NBO analysis)
   Christopher J. Cramer and Donald G. Truhlar   : smd solvation model
   Lars Goerigk                                  : TD-DFT with DH, B97 family of functionals
   V. Asgeirsson, H. Jonsson                     : NEB implementation
   FAccTs GmbH                                   : IRC, NEB, NEB-TS, DLPNO-Multilevel, CI-OPT
                                                   MM, QMMM, 2- and 3-layer-ONIOM, Crystal-QMMM,
                                                   LR-CPCM, SF, NACMEs, symmetry and pop. for TD-DFT,
                                                   nearIR, NL-DFT gradient (VV10), updates on ESD,
                                                   ML-optimized integration grids
   S Lehtola, MJT Oliveira, MAL Marques          : LibXC Library
   Liviu Ungur et al                             : ANISO software


 Your calculation uses the libint2 library for the computation of 2-el integrals
 For citations please refer to: http://libint.valeyev.net

 Your ORCA version has been built with support for libXC version: 5.1.0
 For citations please refer to: https://tddft.org/programs/libxc/

 This ORCA versions uses:
   CBLAS   interface :  Fast vector & matrix operations
   LAPACKE interface :  Fast linear algebra routines
   SCALAPACK package :  Parallel linear algebra routines
   Shared memory     :  Shared parallel matrices
   BLAS/LAPACK       :  OpenBLAS 0.3.15  USE64BITINT DYNAMIC_ARCH NO_AFFINITY Haswell SINGLE_THREADED
        Core in use  :  Haswell
   Copyright (c) 2011-2014, The OpenBLAS Project




***************************************
The coordinates will be read from file: pbe.xyz
***************************************


================================================================================

cite the ECPs for Au [Def2-ECP] as follows:
Ce-Yb(ecp-28): M. Dolg, H. Stoll, H.Preuss, J. Chem. Phys., 1989, 90, 1730-1734.
Y-Cd(ecp-28), Hf-Hg(ecp-46): D. Andrae,U. Haeussermann, M. Dolg, H. Stoll, H. Preuss, Theor. Chim. Acta, 1990, 77, 123-141.
In-Sb(ecp-28), Tl-Bi(ecp-46): B. Metz, H. Stoll, M. Dolg, J. Chem. Phys., 2000, 113, 2563-2569.
Te-Xe(ecp-28), Po-Rn(ecp-46): K. A. Peterson, D. Figgen, E. Goll, H. Stoll, M. Dolg, J. Chem. Phys., 2003, 119, 11113-11123.
Rb(ecp-28), Cs(ecp-46): T. Leininger, A. Nicklass, W. Kuechle, H. Stoll, M. Dolg, A. Bergner, Chem. Phys. Lett., 1996, 255, 274-280.
Sr(ecp-28), Ba(ecp-46): M. Kaupp, P. V. Schleyer, H. Stoll and H. Preuss, J. Chem. Phys., 1991, 94, 1360-1366.
La(ecp-46): M. Dolg, H. Stoll, A. Savin, H. Preuss, Theor. Chim. Acta, 1989, 75, 173-194.
Lu(ecp-28): X. Cao, M. Dolg, J. Chem. Phys., 2001, 115, 7348-7355.

ECP parameters for Au [Def2-ECP] have been obtained from:
TURBOMOLE (7.0.2)

----- Orbital basis set information -----
Your calculation utilizes the basis: def2-TZVP
   F. Weigend and R. Ahlrichs, Phys. Chem. Chem. Phys. 7, 3297 (2005).

----- AuxJ basis set information -----
Your calculation utilizes the auxiliary basis: def2/J
   F. Weigend, Phys. Chem. Chem. Phys. 8, 1057 (2006).

----- AuxC basis set information -----
Your calculation utilizes the auxiliary basis: def2-TZVP/C
  H-La, Hf-Rn : A. Hellweg, C. Hattig, S. Hofener and W. Klopper, Theor. Chem. Acc. 117, 587 (2007).
        Ce-Lu : J. Chmela and M. E. Harding, Mol. Phys. (2018).

================================================================================
                                        WARNINGS
                       Please study these warnings very carefully!
================================================================================


WARNING: your system is open-shell and RHF/RKS was chosen
  ===> : WILL SWITCH to UHF/UKS


WARNING: No MP2 level density has been requested!
         To caclulate MP2 level properties use
         %mp2 Density relaxed end
         or
         %mp2 Density unrelaxed end
         Otherwise for double-hybrid DFT only the energy is correct!

WARNING: The frozen-core approximation is turned on by default for 
         the MP2 part of double-hybrid DFT.

INFO   : the flag for use of the SHARK integral package has been found!



***************************************
The coordinates will be read from file: pbe.xyz
***************************************


================================================================================

cite the ECPs for Au [Def2-ECP] as follows:
Ce-Yb(ecp-28): M. Dolg, H. Stoll, H.Preuss, J. Chem. Phys., 1989, 90, 1730-1734.
Y-Cd(ecp-28), Hf-Hg(ecp-46): D. Andrae,U. Haeussermann, M. Dolg, H. Stoll, H. Preuss, Theor. Chim. Acta, 1990, 77, 123-141.
In-Sb(ecp-28), Tl-Bi(ecp-46): B. Metz, H. Stoll, M. Dolg, J. Chem. Phys., 2000, 113, 2563-2569.
Te-Xe(ecp-28), Po-Rn(ecp-46): K. A. Peterson, D. Figgen, E. Goll, H. Stoll, M. Dolg, J. Chem. Phys., 2003, 119, 11113-11123.
Rb(ecp-28), Cs(ecp-46): T. Leininger, A. Nicklass, W. Kuechle, H. Stoll, M. Dolg, A. Bergner, Chem. Phys. Lett., 1996, 255, 274-280.
Sr(ecp-28), Ba(ecp-46): M. Kaupp, P. V. Schleyer, H. Stoll and H. Preuss, J. Chem. Phys., 1991, 94, 1360-1366.
La(ecp-46): M. Dolg, H. Stoll, A. Savin, H. Preuss, Theor. Chim. Acta, 1989, 75, 173-194.
Lu(ecp-28): X. Cao, M. Dolg, J. Chem. Phys., 2001, 115, 7348-7355.

ECP parameters for Au [Def2-ECP] have been obtained from:
TURBOMOLE (7.0.2)

----- Orbital basis set information -----
Your calculation utilizes the basis: def2-TZVP
   F. Weigend and R. Ahlrichs, Phys. Chem. Chem. Phys. 7, 3297 (2005).

----- AuxJ basis set information -----
Your calculation utilizes the auxiliary basis: def2/J
   F. Weigend, Phys. Chem. Chem. Phys. 8, 1057 (2006).

----- AuxC basis set information -----
Your calculation utilizes the auxiliary basis: def2-TZVP/C
  H-La, Hf-Rn : A. Hellweg, C. Hattig, S. Hofener and W. Klopper, Theor. Chem. Acc. 117, 587 (2007).
        Ce-Lu : J. Chmela and M. E. Harding, Mol. Phys. (2018).

================================================================================
                                        WARNINGS
                       Please study these warnings very carefully!
================================================================================


WARNING: No MP2 level density has been requested!
         To caclulate MP2 level properties use
         %mp2 Density relaxed end
         or
         %mp2 Density unrelaxed end
         Otherwise for double-hybrid DFT only the energy is correct!

WARNING: The frozen-core approximation is turned on by default for 
         the MP2 part of double-hybrid DFT.

INFO   : the flag for use of the SHARK integral package has been found!

================================================================================
                                       INPUT FILE
================================================================================
NAME = b2plyp.inp
|  1> !RI-B2PLYP def2-TZVP def2-TZVP/C
|  2> !RIJCOSX VERYSLOWCONV
|  3> 
|  4> %scf
|  5>   AutoTRAHIter 200
|  6>   maxiter 400
|  7> end
|  8> 
|  9> 
| 10> %pal nprocs 6 end 
| 11> 
| 12> *xyzfile 0 5 pbe.xyz
| 13> 
| 14> $new_job
| 15> 
| 16> !RI-B2PLYP def2-TZVP def2-TZVP/C
| 17> !RIJCOSX VERYSLOWCONV
| 18> 
| 19> %scf
| 20>   AutoTRAHIter 200
| 21>   maxiter 400
| 22> end
| 23> 
| 24> 
| 25> %pal nprocs 6 end 
| 26> 
| 27> *xyzfile 0 3 pbe.xyz
| 28> 
| 29> 
| 30> 
| 31> 
| 32> 
| 33>                          ****END OF INPUT****
================================================================================


                 $$$$$$$$$$$$$$$$$$$$$$$$$$$$$$$$$$$$$$$$$$$$$$ 
                 $ THERE ARE  2 JOBS TO BE PROCESSED THIS RUN $
                 $$$$$$$$$$$$$$$$$$$$$$$$$$$$$$$$$$$$$$$$$$$$$$ 




                 $$$$$$$$$$$$$$$$  JOB NUMBER  1 $$$$$$$$$$$$$$


                       ****************************
                       * Single Point Calculation *
                       ****************************

---------------------------------
CARTESIAN COORDINATES (ANGSTROEM)
---------------------------------
  Au    10.061932    2.863342    7.278145
  Au    11.600888    4.974662    7.573515
  Au     8.598929    4.855320    8.567224
  Au    13.825454    6.275031    8.049339
  Au     9.314092    4.804353    5.415430
  Au     7.965973    7.088525    5.173839
  Au    11.793561    7.955567    7.576102
  Au     7.295993    7.136462    8.136776
  Au     9.553844    9.241498    7.057204
  Au     6.913903    9.300731    6.458050
  Fe     9.632895    6.693393    7.114578

----------------------------
CARTESIAN COORDINATES (A.U.)
----------------------------
  NO LB      ZA    FRAG     MASS         X           Y           Z
   0 Au   19.0000*   0   196.966   19.014295    5.410932   13.753701
   1 Au   19.0000*   0   196.966   21.922501    9.400750   14.311870
   2 Au   19.0000*   0   196.966   16.249621    9.175224   16.189708
   3 Au   19.0000*   0   196.966   26.126322   11.858091   15.211047
   4 Au   19.0000*   0   196.966   17.601083    9.078911   10.233680
   5 Au   19.0000*   0   196.966   15.053507   13.395372    9.777140
   6 Au   19.0000*   0   196.966   22.286600   15.033842   14.316758
   7 Au   19.0000*   0   196.966   13.787428   13.485959   15.376279
   8 Au   19.0000*   0   196.966   18.054148   17.463901   13.336183
   9 Au   19.0000*   0   196.966   13.065383   17.575834   12.203947
  10 Fe   26.0000    0    55.850   18.203533   12.648680   13.444605
* core charge reduced due to ECP

--------------------------------
INTERNAL COORDINATES (ANGSTROEM)
--------------------------------
 Au     0   0   0     0.000000000000     0.00000000     0.00000000
 Au     1   0   0     2.629316532428     0.00000000     0.00000000
 Au     1   2   0     2.787485963609    71.42266591     0.00000000
 Au     2   1   3     2.620317415961   156.31989977   141.68975395
 Au     1   2   3     2.792220454100    70.94376279    75.46805952
 Au     5   1   2     2.663312643914   142.39860969   282.36963634
 Au     4   2   1     2.678944402380    68.61206213   180.92625733
 Au     3   1   2     2.662055750549   142.60502584    76.91316145
 Au     7   4   2     2.634237430419   170.36750240   359.38003147
 Au     9   7   4     2.707726148161   152.03262573     0.23818233
 Fe     7   4   2     2.544516236869   111.40271828     0.00000000

---------------------------
INTERNAL COORDINATES (A.U.)
---------------------------
 Au     0   0   0     0.000000000000     0.00000000     0.00000000
 Au     1   0   0     4.968688165680     0.00000000     0.00000000
 Au     1   2   0     5.267585073370    71.42266591     0.00000000
 Au     2   1   3     4.951682300110   156.31989977   141.68975395
 Au     1   2   3     5.276531963783    70.94376279    75.46805952
 Au     5   1   2     5.032931506007   142.39860969   282.36963634
 Au     4   2   1     5.062471248500    68.61206213   180.92625733
 Au     3   1   2     5.030556321767   142.60502584    76.91316145
 Au     7   4   2     4.977987315215   170.36750240   359.38003147
 Au     9   7   4     5.116860865681   152.03262573     0.23818233
 Fe     7   4   2     4.808438830999   111.40271828     0.00000000

---------------------
BASIS SET INFORMATION
---------------------
There are 2 groups of distinct atoms

 Group   1 Type Au  : 8s7p6d1f contracted to 6s4p3d1f pattern {311111/4111/411/1}
 Group   2 Type Fe  : 17s11p7d1f contracted to 6s4p4d1f pattern {842111/6311/4111/1}

Atom   0Au   basis set group =>   1
Atom   1Au   basis set group =>   1
Atom   2Au   basis set group =>   1
Atom   3Au   basis set group =>   1
Atom   4Au   basis set group =>   1
Atom   5Au   basis set group =>   1
Atom   6Au   basis set group =>   1
Atom   7Au   basis set group =>   1
Atom   8Au   basis set group =>   1
Atom   9Au   basis set group =>   1
Atom  10Fe   basis set group =>   2
---------------------------------
AUXILIARY/J BASIS SET INFORMATION
---------------------------------
There are 2 groups of distinct atoms

 Group   1 Type Au  : 11s5p5d3f3g contracted to 8s5p5d2f3g pattern {41111111/11111/11111/21/111}
 Group   2 Type Fe  : 19s5p5d3f3g contracted to 8s5p5d2f3g pattern {121111111/11111/11111/21/111}

Atom   0Au   basis set group =>   1
Atom   1Au   basis set group =>   1
Atom   2Au   basis set group =>   1
Atom   3Au   basis set group =>   1
Atom   4Au   basis set group =>   1
Atom   5Au   basis set group =>   1
Atom   6Au   basis set group =>   1
Atom   7Au   basis set group =>   1
Atom   8Au   basis set group =>   1
Atom   9Au   basis set group =>   1
Atom  10Fe   basis set group =>   2
---------------------------------
AUXILIARY/C BASIS SET INFORMATION
---------------------------------
There are 2 groups of distinct atoms

 Group   1 Type Au  : 8s8p7d5f3g2h contracted to 8s8p7d5f3g2h pattern {11111111/11111111/1111111/11111/111/11}
 Group   2 Type Fe  : 11s9p8d6f5g2h contracted to 9s8p8d6f5g2h pattern {311111111/21111111/11111111/111111/11111/11}

Atom   0Au   basis set group =>   1
Atom   1Au   basis set group =>   1
Atom   2Au   basis set group =>   1
Atom   3Au   basis set group =>   1
Atom   4Au   basis set group =>   1
Atom   5Au   basis set group =>   1
Atom   6Au   basis set group =>   1
Atom   7Au   basis set group =>   1
Atom   8Au   basis set group =>   1
Atom   9Au   basis set group =>   1
Atom  10Fe   basis set group =>   2
-------------------------
ECP PARAMETER INFORMATION
-------------------------

 Group 1, Type Au ECP Def2-ECP (replacing 60 core electrons, lmax=3)

Atom   0Au   ECP group =>   1
Atom   1Au   ECP group =>   1
Atom   2Au   ECP group =>   1
Atom   3Au   ECP group =>   1
Atom   4Au   ECP group =>   1
Atom   5Au   ECP group =>   1
Atom   6Au   ECP group =>   1
Atom   7Au   ECP group =>   1
Atom   8Au   ECP group =>   1
Atom   9Au   ECP group =>   1



           ************************************************************
           *        Program running with 6 parallel MPI-processes     *
           *              working on a common directory               *
           ************************************************************
------------------------------------------------------------------------------
                           ORCA GTO INTEGRAL CALCULATION
                           -- RI-GTO INTEGRALS CHOSEN --
------------------------------------------------------------------------------
------------------------------------------------------------------------------
                   ___                                                        
                  /   \      - P O W E R E D   B Y -                         
                 /     \                                                     
                 |  |  |   _    _      __       _____    __    __             
                 |  |  |  | |  | |    /  \     |  _  \  |  |  /  |          
                  \  \/   | |  | |   /    \    | | | |  |  | /  /          
                 / \  \   | |__| |  /  /\  \   | |_| |  |  |/  /          
                |  |  |   |  __  | /  /__\  \  |    /   |      \           
                |  |  |   | |  | | |   __   |  |    \   |  |\   \          
                \     /   | |  | | |  |  |  |  | |\  \  |  | \   \       
                 \___/    |_|  |_| |__|  |__|  |_| \__\ |__|  \__/        
                                                                              
                      - O R C A' S   B I G   F R I E N D -                    
                                      &                                       
                       - I N T E G R A L  F E E D E R -                       
                                                                              
 v1 FN, 2020, v2 2021                                                         
------------------------------------------------------------------------------


Reading SHARK input file b2plyp.SHARKINP.tmp ... ok
----------------------
SHARK INTEGRAL PACKAGE
----------------------

Number of atoms                             ...     11
Number of basis functions                   ...    445
Number of shells                            ...    155
Maximum angular momentum                    ...      3
Integral batch strategy                     ... SHARK/LIBINT Hybrid
RI-J (if used) integral strategy            ... SPLIT-RIJ (Revised 2003 algorithm where possible)
Printlevel                                  ...      1
Contraction scheme used                     ... SEGMENTED contraction
Coulomb Range Separation                    ... NOT USED
Exchange Range Separation                   ... NOT USED
Finite Nucleus Model                        ... NOT USED
Auxiliary Coulomb fitting basis             ... AVAILABLE
   # of basis functions in Aux-J            ...    979
   # of shells in Aux-J                     ...    253
   Maximum angular momentum in Aux-J        ...      4
Auxiliary J/K fitting basis                 ... NOT available
Auxiliary Correlation fitting basis         ... AVAILABLE
   # of basis functions in Aux-C            ...   1692
   # of shells in Aux-C                     ...    368
   Maximum angular momentum in Aux-C        ...      5
Auxiliary 'external' fitting basis          ... NOT available
Integral threshold                          ...     1.000000e-10
Primitive cut-off                           ...     1.000000e-11
Primitive pair pre-selection threshold      ...     1.000000e-11

Calculating pre-screening integrals         ... done (  0.1 sec) Dimension = 155
Organizing shell pair data                  ... done (  0.1 sec)
Shell pair information
Total number of shell pairs                 ...     12090
Shell pairs after pre-screening             ...      9636
Total number of primitive shell pairs       ...     33105
Primitive shell pairs kept                  ...     19356
          la=0 lb=0:   1533 shell pairs
          la=1 lb=0:   2190 shell pairs
          la=1 lb=1:    829 shell pairs
          la=2 lb=0:   1909 shell pairs
          la=2 lb=1:   1347 shell pairs
          la=2 lb=2:    558 shell pairs
          la=3 lb=0:    511 shell pairs
          la=3 lb=1:    380 shell pairs
          la=3 lb=2:    328 shell pairs
          la=3 lb=3:     51 shell pairs

Calculating one electron integrals          ... done (  0.0 sec)
Calculating ECP integrals                   ... done (  3.2 sec)
Calculating RI/J V-Matrix + Cholesky decomp.... done (  0.0 sec)
Calculating RI/C V-Matrix + Cholesky decomp.... done (  0.1 sec)
Calculating Nuclear repulsion               ... done (  0.0 sec) ENN=   3100.269334365160 Eh

SHARK setup successfully completed in   3.8 seconds

Maximum memory used throughout the entire GTOINT-calculation: 29.8 MB


           ************************************************************
           *        Program running with 6 parallel MPI-processes     *
           *              working on a common directory               *
           ************************************************************
-------------------------------------------------------------------------------
                                 ORCA SCF
-------------------------------------------------------------------------------

------------
SCF SETTINGS
------------
Hamiltonian:
 Density Functional     Method          .... DFT(GTOs)
 Exchange Functional    Exchange        .... B88
   X-Alpha parameter    XAlpha          ....  0.666667
   Becke's b parameter  XBeta           ....  0.004200
 Correlation Functional Correlation     .... LYP
 LDA part of GGA corr.  LDAOpt          .... VWN-3
 Gradients option       PostSCFGGA      .... off
 Hybrid DFT is turned on
   Fraction HF Exchange ScalHFX         ....  0.530000
   Scaling of DF-GGA-X  ScalDFX         ....  0.470000
   Scaling of DF-GGA-C  ScalDFC         ....  0.730000
   Scaling of DF-LDA-C  ScalLDAC        ....  0.730000
   Perturbative correction              ....  0.270000
   Density functional embedding theory  .... OFF
   NL short-range parameter             ....  7.800000
 RI-approximation to the Coulomb term is turned on
   Number of AuxJ basis functions       .... 979
   RIJ-COSX (HFX calculated with COS-X)).... on


General Settings:
 Integral files         IntName         .... b2plyp
 Hartree-Fock type      HFTyp           .... UHF
 Total Charge           Charge          ....    0
 Multiplicity           Mult            ....    5
 Number of Electrons    NEL             ....  216
 Basis Dimension        Dim             ....  445
 Nuclear Repulsion      ENuc            ....   3100.2693343652 Eh

Convergence Acceleration:
 DIIS                   CNVDIIS         .... on
   Start iteration      DIISMaxIt       ....     0
   Startup error        DIISStart       ....  0.200000
   # of expansion vecs  DIISMaxEq       ....     5
   Bias factor          DIISBfac        ....   1.050
   Max. coefficient     DIISMaxC        ....  10.000
 Trust-Rad. Augm. Hess. CNVTRAH         .... auto
   Auto Start mean grad. ratio tolernc. ....  1.125000
   Auto Start start iteration           ....   200
   Auto Start num. interpolation iter.  ....    10
   Max. Number of Micro iterations      ....    16
   Max. Number of Macro iterations      .... Maxiter - #DIIS iter
   Number of Davidson start vectors     ....     2
   Converg. threshold I  (grad. norm)   ....   5.000e-05
   Converg. threshold II (energy diff.) ....   1.000e-06
   Grad. Scal. Fac. for Micro threshold ....   0.100
   Minimum threshold for Micro iter.    ....   0.010
   NR start threshold (gradient norm)   ....   0.001
   Initial trust radius                 ....   0.400
   Minimum AH scaling param. (alpha)    ....   1.000
   Maximum AH scaling param. (alpha)    .... 1000.000
   Orbital update algorithm             .... Taylor
   White noise on init. David. guess    .... on
   Maximum white noise                  ....   0.010
   Quad. conv. algorithm                .... NR
 SOSCF                  CNVSOSCF        .... off
 Level Shifting         CNVShift        .... on
   Level shift para.    LevelShift      ....    0.2500
   Turn off err/grad.   ShiftErr        ....    0.0000
 Zerner damping         CNVZerner       .... off
 Static damping         CNVDamp         .... on
   Fraction old density DampFac         ....    0.9200
   Max. Damping (<1)    DampMax         ....    0.9800
   Min. Damping (>=0)   DampMin         ....    0.0000
   Turn off err/grad.   DampErr         ....    0.0030
 Fernandez-Rico         CNVRico         .... off

SCF Procedure:
 Maximum # iterations   MaxIter         ....   400
 SCF integral mode      SCFMode         .... Direct
   Integral package                     .... SHARK and LIBINT hybrid scheme
 Reset frequency        DirectResetFreq ....    20
 Integral Threshold     Thresh          ....  1.000e-10 Eh
 Primitive CutOff       TCut            ....  1.000e-11 Eh

Convergence Tolerance:
 Convergence Check Mode ConvCheckMode   .... Total+1el-Energy
 Convergence forced     ConvForced      .... 0
 Energy Change          TolE            ....  1.000e-06 Eh
 1-El. energy change                    ....  1.000e-03 Eh
 DIIS Error             TolErr          ....  1.000e-06


Diagonalization of the overlap matrix:
Smallest eigenvalue                        ... 5.173e-04
Time for diagonalization                   ...    0.019 sec
Threshold for overlap eigenvalues          ... 1.000e-08
Number of eigenvalues below threshold      ... 0
Time for construction of square roots      ...    0.012 sec
Total time needed                          ...    0.032 sec

Time for model grid setup =    0.266 sec

------------------------------
INITIAL GUESS: MODEL POTENTIAL
------------------------------
Loading Hartree-Fock densities                     ... done
  calling /media/Programs/ORCA501/orca b2plyp_atom79.inp > b2plyp_atom79.out in order to generate an atomic fitting density for atom 0 (Au with ECP) on-the-fly... 
    atom 0 (Au), assumed electronic state with S=2: 1s2 2s2 2p6 3s2 3p6 4s2 3d10 4p6 5s2 4d10 5p6 6s1 4f14 5d10           ... done
Calculating cut-offs                               ... done
Initializing the effective Hamiltonian             ... done
Setting up the integral package (SHARK)            ... done
Starting the Coulomb interaction                   ... done (   0.1 sec)
Reading the grid                                   ... done
Mapping shells                                     ... done
Starting the XC term evaluation                    ... done (   0.2 sec)
  promolecular density results
     # of electrons  =    816.012371236
     EX              =  -3728.057820812
     EC              =    -16.538278179
     EX+EC           =  -3744.596098990
Transforming the Hamiltonian                       ... done (   0.0 sec)
Diagonalizing the Hamiltonian                      ... done (   0.0 sec)
Back transforming the eigenvectors                 ... done (   0.0 sec)
Now organizing SCF variables                       ... done
                      ------------------
                      INITIAL GUESS DONE (   1.1 sec)
                      ------------------
-------------------
DFT GRID GENERATION
-------------------

General Integration Accuracy     IntAcc      ... 4.388
Radial Grid Type                 RadialGrid  ... OptM3 with GC (2021)
Angular Grid (max. ang.)         AngularGrid ... 4 (Lebedev-302)
Angular grid pruning method      GridPruning ... 4 (adaptive)
Weight generation scheme         WeightScheme... Becke
Basis function cutoff            BFCut       ... 1.0000e-10
Integration weight cutoff        WCut        ... 1.0000e-14
Angular grids for H and He will be reduced by one unit
Partially contracted basis set               ... off
Rotationally invariant grid construction     ... off

Total number of grid points                  ...   123798
Total number of batches                      ...     1939
Average number of points per batch           ...       63
Average number of grid points per atom       ...    11254
Time for grid setup =    0.895 sec

--------------------
COSX GRID GENERATION
--------------------

GRIDX 1
-------
General Integration Accuracy     IntAcc      ... 3.816
Radial Grid Type                 RadialGrid  ... OptM3 with GC (2021)
Angular Grid (max. ang.)         AngularGrid ... 1 (Lebedev-50)
Angular grid pruning method      GridPruning ... 4 (adaptive)
Weight generation scheme         WeightScheme... Becke
Basis function cutoff            BFCut       ... 1.0000e-10
Integration weight cutoff        WCut        ... 1.0000e-14
Angular grids for H and He will be reduced by one unit
Partially contracted basis set               ... on
Rotationally invariant grid construction     ... off

Total number of grid points                  ...    13054
Total number of batches                      ...      209
Average number of points per batch           ...       62
Average number of grid points per atom       ...     1187
UseSFitting                                  ... on

GRIDX 2
-------
General Integration Accuracy     IntAcc      ... 4.020
Radial Grid Type                 RadialGrid  ... OptM3 with GC (2021)
Angular Grid (max. ang.)         AngularGrid ... 2 (Lebedev-110)
Angular grid pruning method      GridPruning ... 4 (adaptive)
Weight generation scheme         WeightScheme... Becke
Basis function cutoff            BFCut       ... 1.0000e-10
Integration weight cutoff        WCut        ... 1.0000e-14
Angular grids for H and He will be reduced by one unit
Partially contracted basis set               ... on
Rotationally invariant grid construction     ... off

Total number of grid points                  ...    39568
Total number of batches                      ...      624
Average number of points per batch           ...       63
Average number of grid points per atom       ...     3597
UseSFitting                                  ... on

GRIDX 3
-------
General Integration Accuracy     IntAcc      ... 4.338
Radial Grid Type                 RadialGrid  ... OptM3 with GC (2021)
Angular Grid (max. ang.)         AngularGrid ... 3 (Lebedev-194)
Angular grid pruning method      GridPruning ... 4 (adaptive)
Weight generation scheme         WeightScheme... Becke
Basis function cutoff            BFCut       ... 1.0000e-10
Integration weight cutoff        WCut        ... 1.0000e-14
Angular grids for H and He will be reduced by one unit
Partially contracted basis set               ... on
Rotationally invariant grid construction     ... off

Total number of grid points                  ...    72923
Total number of batches                      ...     1145
Average number of points per batch           ...       63
Average number of grid points per atom       ...     6629
UseSFitting                                  ... on

Time for X-Grid setup             =    0.687 sec

--------------
SCF ITERATIONS
--------------
ITER       Energy         Delta-E        Max-DP      RMS-DP      [F,P]     Damp
               ***  Starting incremental Fock matrix formation  ***
  0  -2615.2465218064   0.000000000000 0.11371410  0.00077101  0.4093613 0.9200
  1  -2615.9712836781  -0.724761871697 0.08783873  0.00067657  0.2551653 0.9200
                               ***Turning on DIIS***
  2  -2616.3173813742  -0.346097696030 0.05586535  0.00054909  0.2323629 0.9200
  3  -2616.3991980237  -0.081816649520 0.02676126  0.00029839  0.2139032 0.9200
  4  -2616.4683178098  -0.069119786083 0.02499008  0.00027425  0.1967350 0.9200
  5  -2616.5406598349  -0.072342025131 0.02285797  0.00025691  0.1809100 0.9200
  6  -2616.6034641671  -0.062804332178 0.02133514  0.00023781  0.1664234 0.9200
  7  -2616.6641852934  -0.060721126371 0.01947311  0.00022726  0.1531537 0.9200
  8  -2616.7318114477  -0.067626154274 0.01847943  0.00021739  0.1409744 0.9200
  9  -2616.7934652660  -0.061653818306 0.01732407  0.00019867  0.1297499 0.9200
 10  -2616.8517121513  -0.058246885279 0.01598469  0.00018331  0.1193724 0.9200
 11  -2616.9058816998  -0.054169548549 0.01480663  0.00017083  0.1097915 0.9200
 12  -2616.9573514622  -0.051469762376 0.01364908  0.00015999  0.1009858 0.9200
 13  -2617.0072929554  -0.049941493163 0.01260387  0.00015070  0.0929108 0.9200
 14  -2617.0545617569  -0.047268801541 0.01171005  0.00014053  0.0854963 0.9200
 15  -2617.0989299128  -0.044368155900 0.01082507  0.00013053  0.0786633 0.9200
 16  -2617.1405987150  -0.041668802200 0.00998548  0.00012136  0.0723628 0.9200
 17  -2617.1798771437  -0.039278428689 0.00920509  0.00011287  0.0665636 0.9200
 18  -2617.2170183554  -0.037141211663 0.00848441  0.00010507  0.0612351 0.9200
 19  -2617.2520239481  -0.035005592771 0.00782938  0.00009777  0.0563389 0.9200
               *** Restarting incremental Fock matrix formation ***
                                   *** Resetting DIIS ***
 20  -2617.2839202240  -0.031896275821 0.00682939  0.00008534  0.0518310 0.9200
 21  -2617.3152163551  -0.031296131152 0.00631180  0.00007794  0.0476853 0.9200
 22  -2617.3444398051  -0.029223449978 0.00595686  0.00007305  0.0438711 0.9200
 23  -2617.3716385946  -0.027198789471 0.00561729  0.00006961  0.0403642 0.9200
 24  -2617.3969232104  -0.025284615879 0.00525502  0.00006649  0.0371394 0.9200
 25  -2617.4204416192  -0.023518408706 0.00484845  0.00006272  0.0341722 0.9200
 26  -2617.4423636463  -0.021922027159 0.00447721  0.00005897  0.0314403 0.9200
 27  -2617.4627743366  -0.020410690324 0.00414414  0.00005534  0.0289246 0.9200
 28  -2617.4817656887  -0.018991352080 0.00383533  0.00005181  0.0266093 0.9200
 29  -2617.4994350381  -0.017669349352 0.00354319  0.00004840  0.0244797 0.9200
 30  -2617.5158742154  -0.016439177366 0.00326682  0.00004514  0.0225222 0.9200
 31  -2617.5311640995  -0.015289884019 0.00301026  0.00004207  0.0207220 0.9200
 32  -2617.5453759745  -0.014211875005 0.00277516  0.00003921  0.0190681 0.9200
 33  -2617.5585773487  -0.013201374287 0.00255966  0.00003652  0.0175464 0.9200
 34  -2617.5708335631  -0.012256214354 0.00236095  0.00003400  0.0161460 0.9200
 35  -2617.5822070039  -0.011373440827 0.00217699  0.00003164  0.0148571 0.9200
 36  -2617.5927562121  -0.010549208207 0.00200685  0.00002943  0.0136711 0.9200
 37  -2617.6025359667  -0.009779754552 0.00184995  0.00002738  0.0125799 0.9200
 38  -2617.6115979340  -0.009061967317 0.00170550  0.00002548  0.0115759 0.9200
 39  -2617.6199910185  -0.008393084485 0.00157254  0.00002380  0.0106520 0.9200
               *** Restarting incremental Fock matrix formation ***
                                   *** Resetting DIIS ***
 40  -2617.6277608497  -0.007769831194 0.00136910  0.00001960  0.0098018 0.9200
 41  -2617.6349889572  -0.007228107484 0.00126326  0.00001757  0.0090261 0.9200
 42  -2617.6416692887  -0.006680331501 0.00118926  0.00001662  0.0083106 0.9200
 43  -2617.6478367126  -0.006167423886 0.00112197  0.00001618  0.0076493 0.9200
 44  -2617.6535274540  -0.005690741473 0.00105181  0.00001578  0.0070391 0.9200
 45  -2617.6587776765  -0.005250222430 0.00097219  0.00001506  0.0064770 0.9200
 46  -2617.6636246183  -0.004846941835 0.00089863  0.00001431  0.0059607 0.9200
 47  -2617.6680989615  -0.004474343235 0.00084949  0.00001356  0.0054858 0.9200
 48  -2617.6722290724  -0.004130110886 0.00084957  0.00001282  0.0050485 0.9200
 49  -2617.6760414400  -0.003812367622 0.00082534  0.00001207  0.0046457 0.9200
 50  -2617.6795605056  -0.003519065522 0.00078484  0.00001134  0.0042748 0.9200
 51  -2617.6828086172  -0.003248111597 0.00074519  0.00001064  0.0039337 0.9200
 52  -2617.6858062499  -0.002997632719 0.00071207  0.00000998  0.0036199 0.9200
 53  -2617.6885723170  -0.002766067100 0.00068079  0.00000937  0.0033311 0.9200
 54  -2617.6911243630  -0.002552046048 0.00064704  0.00000878  0.0030654 0.9200
 55  -2617.6934786520  -0.002354288943 0.00764072  0.00010280  0.0028209 0.0000
 56  -2617.7210870430  -0.027608390999 0.00138156  0.00000973  0.0008465 0.0000
               *** Restarting incremental Fock matrix formation ***
                                   *** Resetting DIIS ***
 57  -2617.7219090806  -0.000822037663 0.00529303  0.00011293  0.0008414 0.0000
 58  -2617.7220196592  -0.000110578579 0.00193543  0.00003945  0.0007516 0.0000
 59  -2617.7220413244  -0.000021665245 0.00077825  0.00001396  0.0008608 0.0000
 60  -2617.7220510905  -0.000009766084 0.00057847  0.00000723  0.0007560 0.0000
 61  -2617.7220599740  -0.000008883424 0.00062221  0.00000468  0.0007570 0.0000
 62  -2617.7220682913  -0.000008317359 0.00076670  0.00000455  0.0007451 0.0000
 63  -2617.7220777646  -0.000009473244 0.00084189  0.00000457  0.0007236 0.0000
 64  -2617.7220877564  -0.000009991867 0.00093969  0.00000479  0.0007065 0.0000
 65  -2617.7220985582  -0.000010801784 0.00102280  0.00000504  0.0006808 0.0000
 66  -2617.7221100787  -0.000011520523 0.00114383  0.00000547  0.0006693 0.0000
 67  -2617.7221224868  -0.000012408068 0.00104936  0.00000502  0.0006576 0.0000
 68  -2617.7221339053  -0.000011418484 0.00144798  0.00000667  0.0006469 0.0000
 69  -2617.7221488369  -0.000014931636 0.00062395  0.00000320  0.0006514 0.0000
 70  -2617.7221557540  -0.000006917035 0.00274975  0.00001213  0.0006409 0.0000
 71  -2617.7221820636  -0.000026309671 0.00056768  0.00000239  0.0006758 0.0000
 72  -2617.7221781554   0.000003908242 0.00203151  0.00000874  0.0006871 0.0000
 73  -2617.7221968989  -0.000018743543 0.00221955  0.00000984  0.0006357 0.0000
 74  -2617.7222172522  -0.000020353230 0.00103436  0.00000500  0.0006320 0.0000
 75  -2617.7222274286  -0.000010176413 0.00252557  0.00001085  0.0005772 0.0000
 76  -2617.7222487318  -0.000021303229 0.00029361  0.00000277  0.0006149 0.0000
               *** Restarting incremental Fock matrix formation ***
                                   *** Resetting DIIS ***
 77  -2617.7222513697  -0.000002637874 0.00037619  0.00000229  0.0005666 0.0000
 78  -2617.7222547802  -0.000003410530 0.00038800  0.00000189  0.0005874 0.0000
 79  -2617.7222581233  -0.000003343055 0.00041490  0.00000191  0.0006000 0.0000
 80  -2617.7222615248  -0.000003401531 0.00044024  0.00000198  0.0005973 0.0000
 81  -2617.7222651411  -0.000003616331 0.00061579  0.00000269  0.0005998 0.0000
 82  -2617.7222700489  -0.000004907778 0.00087076  0.00000373  0.0005779 0.0000
 83  -2617.7222769633  -0.000006914441 0.00073869  0.00000322  0.0005561 0.0000
 84  -2617.7222827367  -0.000005773392 0.00120125  0.00000505  0.0005408 0.0000
 85  -2617.7222919833  -0.000009246561 0.00042171  0.00000204  0.0005352 0.0000
 86  -2617.7222954206  -0.000003437320 0.00238046  0.00000971  0.0005383 0.0000
 87  -2617.7223125561  -0.000017135453 0.00073596  0.00000275  0.0005584 0.0000
 88  -2617.7223081827   0.000004373343 0.00168299  0.00000671  0.0005917 0.0000
 89  -2617.7223199916  -0.000011808837 0.00226502  0.00000932  0.0005234 0.0000
 90  -2617.7223356448  -0.000015653266 0.00026527  0.00000189  0.0005344 0.0000
 91  -2617.7223382212  -0.000002576377 0.00241755  0.00000969  0.0004812 0.0000
 92  -2617.7223537932  -0.000015571998 0.00056117  0.00000289  0.0005171 0.0000
 93  -2617.7223581652  -0.000004372035 0.00403698  0.00001593  0.0004456 0.0000
 94  -2617.7223817731  -0.000023607874 0.00122553  0.00000443  0.0005460 0.0000
 95  -2617.7223766781   0.000005095016 0.00249467  0.00000963  0.0005154 0.0000
 96  -2617.7223908154  -0.000014137341 0.00373319  0.00001482  0.0004767 0.0000
               *** Restarting incremental Fock matrix formation ***
                                   *** Resetting DIIS ***
 97  -2617.7224120817  -0.000021266296 0.00029106  0.00000214  0.0005051 0.0000
 98  -2617.7224146665  -0.000002584791 0.00024420  0.00000163  0.0003856 0.0000
 99  -2617.7224165411  -0.000001874621 0.00021764  0.00000121  0.0003888 0.0000
100  -2617.7224177460  -0.000001204889 0.00030630  0.00000139  0.0004062 0.0000
101  -2617.7224193625  -0.000001616502 0.00033737  0.00000146  0.0004150 0.0000
102  -2617.7224211039  -0.000001741378 0.00036157  0.00000152  0.0004147 0.0000
103  -2617.7224229532  -0.000001849238 0.00053054  0.00000217  0.0004143 0.0000
104  -2617.7224256598  -0.000002706623 0.00071409  0.00000285  0.0003995 0.0000
105  -2617.7224293167  -0.000003656937 0.00052129  0.00000216  0.0003768 0.0000
106  -2617.7224319688  -0.000002652073 0.00125760  0.00000488  0.0003781 0.0000
107  -2617.7224380913  -0.000006122559 0.00033437  0.00000119  0.0003866 0.0000
108  -2617.7224368288   0.000001262576 0.00094434  0.00000357  0.0004192 0.0000
109  -2617.7224412775  -0.000004448726 0.00111871  0.00000439  0.0003688 0.0000
110  -2617.7224466128  -0.000005335279 0.00064265  0.00000271  0.0003699 0.0000
111  -2617.7224497225  -0.000003109687 0.00122569  0.00000477  0.0003472 0.0000
112  -2617.7224553244  -0.000005601933 0.00010608  0.00000079  0.0003596 0.0000
                 **** Energy Check signals convergence ****

               *****************************************************
               *                     SUCCESS                       *
               *           SCF CONVERGED AFTER 113 CYCLES          *
               *****************************************************

Old exchange energy                            =    -92.041989291 Eh
New exchange energy                            =    -92.041867022 Eh
Exchange energy change after final integration =      0.000122270 Eh
Total energy after final integration           =  -2617.722333543 Eh
Final COS-X integration done in                =     9.004 sec

----------------
TOTAL SCF ENERGY
----------------

Total Energy       :        -2617.72233354 Eh          -71231.84605 eV

Components:
Nuclear Repulsion  :         3100.26933437 Eh           84362.61750 eV
Electronic Energy  :        -5717.99166791 Eh         -155594.46355 eV
One Electron Energy:       -10329.32729276 Eh         -281075.28523 eV
Two Electron Energy:         4611.33562485 Eh          125480.82167 eV
Max COSX asymmetry :            0.00000683 Eh               0.00019 eV

Virial components:
Potential Energy   :        -4339.31433282 Eh         -118078.74600 eV
Kinetic Energy     :         1721.59199927 Eh           46846.89995 eV
Virial Ratio       :            2.52052422


DFT components:
N(Alpha)           :      109.999978665699 electrons
N(Beta)            :      105.999981472906 electrons
N(Total)           :      215.999960138605 electrons
E(X)               :      -82.830841066724 Eh       
E(C)               :       -5.978471309220 Eh       
E(XC)              :      -88.809312375944 Eh       
DFET-embed. en.    :        0.000000000000 Eh       

---------------
SCF CONVERGENCE
---------------

  Last Energy change         ...   -4.8782e-07  Tolerance :   1.0000e-06
  Last MAX-Density change    ...    0.0000e+00  Tolerance :   1.0000e-05
  Last RMS-Density change    ...    0.0000e+00  Tolerance :   1.0000e-06
  Last DIIS Error            ...    3.5616e-04  Tolerance :   1.0000e-06

             **** THE GBW FILE WAS UPDATED (b2plyp.gbw) ****
             **** DENSITY b2plyp.scfp WAS UPDATED ****
             **** ENERGY FILE WAS UPDATED (b2plyp.en.tmp) ****
----------------------
UHF SPIN CONTAMINATION
----------------------

Warning: in a DFT calculation there is little theoretical justification to 
         calculate <S**2> as in Hartree-Fock theory. We will do it anyways
         but you should keep in mind that the values have only limited relevance

Expectation value of <S**2>     :     6.027208
Ideal value S*(S+1) for S=2.0   :     6.000000
Deviation                       :     0.027208

             **** THE GBW FILE WAS UPDATED (b2plyp.gbw) ****
             **** DENSITY b2plyp.scfp WAS UPDATED ****
----------------
ORBITAL ENERGIES
----------------
                 SPIN UP ORBITALS
  NO   OCC          E(Eh)            E(eV) 
   0   1.0000    -258.324772     -7029.3744 
   1   1.0000     -30.889284      -840.5402 
   2   1.0000     -26.606588      -724.0021 
   3   1.0000     -26.582072      -723.3350 
   4   1.0000     -26.572580      -723.0767 
   5   1.0000      -4.411376      -120.0397 
   6   1.0000      -4.397854      -119.6717 
   7   1.0000      -4.396661      -119.6392 
   8   1.0000      -4.394936      -119.5923 
   9   1.0000      -4.394907      -119.5915 
  10   1.0000      -4.391078      -119.4873 
  11   1.0000      -4.389272      -119.4382 
  12   1.0000      -4.389226      -119.4369 
  13   1.0000      -4.385299      -119.3301 
  14   1.0000      -4.382914      -119.2652 
  15   1.0000      -3.903865      -106.2296 
  16   1.0000      -2.653161       -72.1962 
  17   1.0000      -2.602662       -70.8220 
  18   1.0000      -2.580759       -70.2260 
  19   1.0000      -2.534295       -68.9617 
  20   1.0000      -2.530082       -68.8470 
  21   1.0000      -2.521938       -68.6254 
  22   1.0000      -2.520250       -68.5795 
  23   1.0000      -2.518435       -68.5301 
  24   1.0000      -2.517600       -68.5074 
  25   1.0000      -2.516962       -68.4900 
  26   1.0000      -2.514892       -68.4337 
  27   1.0000      -2.514228       -68.4156 
  28   1.0000      -2.514050       -68.4108 
  29   1.0000      -2.512055       -68.3565 
  30   1.0000      -2.511919       -68.3528 
  31   1.0000      -2.511599       -68.3441 
  32   1.0000      -2.509540       -68.2881 
  33   1.0000      -2.508888       -68.2703 
  34   1.0000      -2.508751       -68.2666 
  35   1.0000      -2.507326       -68.2278 
  36   1.0000      -2.506986       -68.2186 
  37   1.0000      -2.506546       -68.2066 
  38   1.0000      -2.506461       -68.2043 
  39   1.0000      -2.506065       -68.1935 
  40   1.0000      -2.503497       -68.1236 
  41   1.0000      -2.501896       -68.0800 
  42   1.0000      -2.501572       -68.0712 
  43   1.0000      -2.501548       -68.0706 
  44   1.0000      -2.500890       -68.0527 
  45   1.0000      -2.500129       -68.0320 
  46   1.0000      -2.500008       -68.0287 
  47   1.0000      -2.499409       -68.0124 
  48   1.0000      -2.494806       -67.8871 
  49   1.0000      -0.558535       -15.1985 
  50   1.0000      -0.554738       -15.0952 
  51   1.0000      -0.539628       -14.6840 
  52   1.0000      -0.524633       -14.2760 
  53   1.0000      -0.499862       -13.6019 
  54   1.0000      -0.481589       -13.1047 
  55   1.0000      -0.472184       -12.8488 
  56   1.0000      -0.465461       -12.6658 
  57   1.0000      -0.454010       -12.3542 
  58   1.0000      -0.453836       -12.3495 
  59   1.0000      -0.450532       -12.2596 
  60   1.0000      -0.441786       -12.0216 
  61   1.0000      -0.438916       -11.9435 
  62   1.0000      -0.436582       -11.8800 
  63   1.0000      -0.431073       -11.7301 
  64   1.0000      -0.426801       -11.6139 
  65   1.0000      -0.423985       -11.5372 
  66   1.0000      -0.418246       -11.3810 
  67   1.0000      -0.416937       -11.3454 
  68   1.0000      -0.416213       -11.3257 
  69   1.0000      -0.411495       -11.1973 
  70   1.0000      -0.406270       -11.0552 
  71   1.0000      -0.402997       -10.9661 
  72   1.0000      -0.400454       -10.8969 
  73   1.0000      -0.398947       -10.8559 
  74   1.0000      -0.396372       -10.7858 
  75   1.0000      -0.394470       -10.7341 
  76   1.0000      -0.392653       -10.6846 
  77   1.0000      -0.385307       -10.4847 
  78   1.0000      -0.383683       -10.4405 
  79   1.0000      -0.380147       -10.3443 
  80   1.0000      -0.378703       -10.3050 
  81   1.0000      -0.375795       -10.2259 
  82   1.0000      -0.375678       -10.2227 
  83   1.0000      -0.372699       -10.1416 
  84   1.0000      -0.372473       -10.1355 
  85   1.0000      -0.371045       -10.0966 
  86   1.0000      -0.367481        -9.9997 
  87   1.0000      -0.366528        -9.9737 
  88   1.0000      -0.365211        -9.9379 
  89   1.0000      -0.365147        -9.9362 
  90   1.0000      -0.363138        -9.8815 
  91   1.0000      -0.359639        -9.7863 
  92   1.0000      -0.358309        -9.7501 
  93   1.0000      -0.356111        -9.6903 
  94   1.0000      -0.356048        -9.6885 
  95   1.0000      -0.353379        -9.6159 
  96   1.0000      -0.351974        -9.5777 
  97   1.0000      -0.349818        -9.5190 
  98   1.0000      -0.348624        -9.4865 
  99   1.0000      -0.342187        -9.3114 
 100   1.0000      -0.340403        -9.2628 
 101   1.0000      -0.339435        -9.2365 
 102   1.0000      -0.332690        -9.0530 
 103   1.0000      -0.323802        -8.8111 
 104   1.0000      -0.321400        -8.7457 
 105   1.0000      -0.320796        -8.7293 
 106   1.0000      -0.311670        -8.4810 
 107   1.0000      -0.246750        -6.7144 
 108   1.0000      -0.237076        -6.4512 
 109   1.0000      -0.231687        -6.3045 
 110   0.0000      -0.091731        -2.4961 
 111   0.0000      -0.081143        -2.2080 
 112   0.0000      -0.063708        -1.7336 
 113   0.0000      -0.060685        -1.6513 
 114   0.0000      -0.029799        -0.8109 
 115   0.0000      -0.021571        -0.5870 
 116   0.0000      -0.006817        -0.1855 
 117   0.0000       0.001085         0.0295 
 118   0.0000       0.004330         0.1178 
 119   0.0000       0.013523         0.3680 
 120   0.0000       0.021300         0.5796 
 121   0.0000       0.030850         0.8395 
 122   0.0000       0.035871         0.9761 
 123   0.0000       0.051081         1.3900 
 124   0.0000       0.061225         1.6660 
 125   0.0000       0.072531         1.9737 
 126   0.0000       0.072891         1.9835 
 127   0.0000       0.084794         2.3074 
 128   0.0000       0.086041         2.3413 
 129   0.0000       0.091180         2.4811 
 130   0.0000       0.093022         2.5313 
 131   0.0000       0.100093         2.7237 
 132   0.0000       0.111028         3.0212 
 133   0.0000       0.111794         3.0421 
 134   0.0000       0.119890         3.2624 
 135   0.0000       0.120110         3.2684 
 136   0.0000       0.121130         3.2961 
 137   0.0000       0.126621         3.4455 
 138   0.0000       0.143145         3.8952 
 139   0.0000       0.146303         3.9811 
 140   0.0000       0.149272         4.0619 
 141   0.0000       0.152139         4.1399 
 142   0.0000       0.167684         4.5629 
 143   0.0000       0.200230         5.4485 
 144   0.0000       0.203303         5.5321 
 145   0.0000       0.210673         5.7327 
 146   0.0000       0.211146         5.7456 
 147   0.0000       0.219326         5.9682 
 148   0.0000       0.233942         6.3659 
 149   0.0000       0.243657         6.6302 
 150   0.0000       0.247053         6.7227 
 151   0.0000       0.257070         6.9952 
 152   0.0000       0.259947         7.0735 
 153   0.0000       0.273360         7.4385 
 154   0.0000       0.275355         7.4928 
 155   0.0000       0.285337         7.7644 
 156   0.0000       0.294440         8.0121 
 157   0.0000       0.303042         8.2462 
 158   0.0000       0.304278         8.2798 
 159   0.0000       0.320730         8.7275 
 160   0.0000       0.326842         8.8938 
 161   0.0000       0.331115         9.0101 
 162   0.0000       0.336566         9.1584 
 163   0.0000       0.342137         9.3100 
 164   0.0000       0.346918         9.4401 
 165   0.0000       0.362222         9.8566 
 166   0.0000       0.363486         9.8910 
 167   0.0000       0.364280         9.9126 
 168   0.0000       0.367053         9.9880 
 169   0.0000       0.372660        10.1406 
 170   0.0000       0.384589        10.4652 
 171   0.0000       0.386829        10.5262 
 172   0.0000       0.393201        10.6995 
 173   0.0000       0.394569        10.7368 
 174   0.0000       0.400856        10.9079 
 175   0.0000       0.401707        10.9310 
 176   0.0000       0.405440        11.0326 
 177   0.0000       0.415243        11.2993 
 178   0.0000       0.425668        11.5830 
 179   0.0000       0.426402        11.6030 
 180   0.0000       0.428382        11.6569 
 181   0.0000       0.438771        11.9396 
 182   0.0000       0.440114        11.9761 
 183   0.0000       0.444239        12.0884 
 184   0.0000       0.457073        12.4376 
 185   0.0000       0.465471        12.6661 
 186   0.0000       0.471850        12.8397 
 187   0.0000       0.474925        12.9234 
 188   0.0000       0.478500        13.0206 
 189   0.0000       0.481724        13.1084 
 190   0.0000       0.487385        13.2624 
 191   0.0000       0.488287        13.2870 
 192   0.0000       0.500437        13.6176 
 193   0.0000       0.509741        13.8708 
 194   0.0000       0.515251        14.0207 
 195   0.0000       0.515806        14.0358 
 196   0.0000       0.521824        14.1996 
 197   0.0000       0.524393        14.2695 
 198   0.0000       0.537435        14.6244 
 199   0.0000       0.542222        14.7546 
 200   0.0000       0.548645        14.9294 
 201   0.0000       0.548801        14.9336 
 202   0.0000       0.563893        15.3443 
 203   0.0000       0.565685        15.3931 
 204   0.0000       0.576117        15.6769 
 205   0.0000       0.585978        15.9453 
 206   0.0000       0.591446        16.0941 
 207   0.0000       0.598141        16.2762 
 208   0.0000       0.601871        16.3777 
 209   0.0000       0.615373        16.7451 
 210   0.0000       0.626524        17.0486 
 211   0.0000       0.639072        17.3900 
 212   0.0000       0.659194        17.9376 
 213   0.0000       0.666258        18.1298 
 214   0.0000       0.682271        18.5655 
 215   0.0000       0.713855        19.4250 
 216   0.0000       0.731328        19.9004 
 217   0.0000       0.743345        20.2275 
 218   0.0000       0.768063        20.9001 
 219   0.0000       0.777822        21.1656 
 220   0.0000       0.796649        21.6779 
 221   0.0000       0.804655        21.8958 
 222   0.0000       0.807879        21.9835 
 223   0.0000       0.846398        23.0317 
 224   0.0000       0.856209        23.2986 
 225   0.0000       0.869805        23.6686 
 226   0.0000       0.885435        24.0939 
 227   0.0000       0.942002        25.6332 
 228   0.0000       0.943965        25.6866 
 229   0.0000       0.954104        25.9625 
 230   0.0000       0.955054        25.9883 
 231   0.0000       0.982495        26.7350 
 232   0.0000       0.994399        27.0590 
 233   0.0000       1.009955        27.4823 
 234   0.0000       1.020155        27.7598 
 235   0.0000       1.032776        28.1033 
 236   0.0000       1.042561        28.3695 
 237   0.0000       1.050766        28.5928 
 238   0.0000       1.073115        29.2010 
 239   0.0000       1.092813        29.7370 
 240   0.0000       1.095116        29.7996 
 241   0.0000       1.106667        30.1139 
 242   0.0000       1.120997        30.5039 
 243   0.0000       1.122155        30.5354 
 244   0.0000       1.142987        31.1023 
 245   0.0000       1.171312        31.8730 
 246   0.0000       1.194840        32.5132 
 247   0.0000       1.234592        33.5950 
 248   0.0000       1.259746        34.2794 
 249   0.0000       1.379725        37.5442 
 250   0.0000       1.404900        38.2293 
 251   0.0000       1.412148        38.4265 
 252   0.0000       1.468648        39.9639 
 253   0.0000       1.470688        40.0195 
 254   0.0000       1.484208        40.3873 
 255   0.0000       1.493986        40.6534 
 256   0.0000       1.497792        40.7570 
 257   0.0000       1.511113        41.1195 
 258   0.0000       1.524219        41.4761 
 259   0.0000       1.530126        41.6368 
 260   0.0000       1.540552        41.9205 
 261   0.0000       1.548035        42.1242 
 262   0.0000       1.563005        42.5315 
 263   0.0000       1.565111        42.5888 
 264   0.0000       1.574357        42.8404 
 265   0.0000       1.579590        42.9828 
 266   0.0000       1.585343        43.1394 
 267   0.0000       1.586310        43.1657 
 268   0.0000       1.594107        43.3778 
 269   0.0000       1.605199        43.6797 
 270   0.0000       1.607086        43.7310 
 271   0.0000       1.609422        43.7946 
 272   0.0000       1.615049        43.9477 
 273   0.0000       1.623846        44.1871 
 274   0.0000       1.626993        44.2727 
 275   0.0000       1.633246        44.4429 
 276   0.0000       1.634826        44.4859 
 277   0.0000       1.636507        44.5316 
 278   0.0000       1.639224        44.6055 
 279   0.0000       1.647810        44.8392 
 280   0.0000       1.654206        45.0132 
 281   0.0000       1.655246        45.0415 
 282   0.0000       1.660868        45.1945 
 283   0.0000       1.661491        45.2115 
 284   0.0000       1.662759        45.2460 
 285   0.0000       1.664358        45.2895 
 286   0.0000       1.669751        45.4362 
 287   0.0000       1.670565        45.4584 
 288   0.0000       1.671571        45.4858 
 289   0.0000       1.674815        45.5740 
 290   0.0000       1.675341        45.5883 
 291   0.0000       1.681499        45.7559 
 292   0.0000       1.683252        45.8036 
 293   0.0000       1.684137        45.8277 
 294   0.0000       1.685554        45.8663 
 295   0.0000       1.690072        45.9892 
 296   0.0000       1.691775        46.0355 
 297   0.0000       1.692003        46.0417 
 298   0.0000       1.694823        46.1185 
 299   0.0000       1.696427        46.1621 
 300   0.0000       1.700124        46.2627 
 301   0.0000       1.704038        46.3692 
 302   0.0000       1.704461        46.3807 
 303   0.0000       1.705275        46.4029 
 304   0.0000       1.706586        46.4386 
 305   0.0000       1.706953        46.4486 
 306   0.0000       1.713064        46.6148 
 307   0.0000       1.713604        46.6295 
 308   0.0000       1.714323        46.6491 
 309   0.0000       1.718417        46.7605 
 310   0.0000       1.719406        46.7874 
 311   0.0000       1.722026        46.8587 
 312   0.0000       1.723554        46.9003 
 313   0.0000       1.726413        46.9781 
 314   0.0000       1.727819        47.0164 
 315   0.0000       1.730593        47.0918 
 316   0.0000       1.731556        47.1180 
 317   0.0000       1.732780        47.1513 
 318   0.0000       1.735933        47.2372 
 319   0.0000       1.736674        47.2573 
 320   0.0000       1.740346        47.3572 
 321   0.0000       1.740672        47.3661 
 322   0.0000       1.743678        47.4479 
 323   0.0000       1.749087        47.5951 
 324   0.0000       1.749344        47.6021 
 325   0.0000       1.754961        47.7549 
 326   0.0000       1.756774        47.8042 
 327   0.0000       1.759317        47.8734 
 328   0.0000       1.759545        47.8797 
 329   0.0000       1.761569        47.9347 
 330   0.0000       1.765538        48.0427 
 331   0.0000       1.768443        48.1218 
 332   0.0000       1.770761        48.1849 
 333   0.0000       1.773056        48.2473 
 334   0.0000       1.774635        48.2903 
 335   0.0000       1.777205        48.3602 
 336   0.0000       1.781561        48.4787 
 337   0.0000       1.782341        48.5000 
 338   0.0000       1.785634        48.5896 
 339   0.0000       1.791438        48.7475 
 340   0.0000       1.796213        48.8774 
 341   0.0000       1.798364        48.9360 
 342   0.0000       1.808663        49.2162 
 343   0.0000       1.812940        49.3326 
 344   0.0000       1.813450        49.3465 
 345   0.0000       1.829134        49.7733 
 346   0.0000       1.831281        49.8317 
 347   0.0000       1.834447        49.9178 
 348   0.0000       1.844406        50.1888 
 349   0.0000       1.847687        50.2781 
 350   0.0000       1.853435        50.4345 
 351   0.0000       1.874418        51.0055 
 352   0.0000       1.881313        51.1931 
 353   0.0000       1.892960        51.5101 
 354   0.0000       1.900897        51.7260 
 355   0.0000       1.923579        52.3433 
 356   0.0000       1.932746        52.5927 
 357   0.0000       1.946884        52.9774 
 358   0.0000       2.004473        54.5445 
 359   0.0000       2.011598        54.7384 
 360   0.0000       2.040285        55.5190 
 361   0.0000       2.059661        56.0462 
 362   0.0000       2.072404        56.3930 
 363   0.0000       2.095779        57.0291 
 364   0.0000       2.114249        57.5316 
 365   0.0000       2.131417        57.9988 
 366   0.0000       2.140312        58.2409 
 367   0.0000       2.176125        59.2154 
 368   0.0000       2.187716        59.5308 
 369   0.0000       2.257477        61.4291 
 370   0.0000       2.337245        63.5997 
 371   0.0000       2.387961        64.9797 
 372   0.0000       2.468543        67.1725 
 373   0.0000       2.472989        67.2935 
 374   0.0000       2.534087        68.9560 
 375   0.0000       2.540792        69.1385 
 376   0.0000       2.585425        70.3530 
 377   0.0000       2.605369        70.8957 
 378   0.0000       2.715099        73.8816 
 379   0.0000       2.716204        73.9117 
 380   0.0000       2.720861        74.0384 
 381   0.0000       2.773497        75.4707 
 382   0.0000       3.360811        91.4523 
 383   0.0000       3.751540       102.0846 
 384   0.0000       3.815815       103.8336 
 385   0.0000       3.841145       104.5229 
 386   0.0000       3.873781       105.4109 
 387   0.0000       3.900360       106.1342 
 388   0.0000       4.107664       111.7752 
 389   0.0000       4.121453       112.1504 
 390   0.0000       4.139233       112.6343 
 391   0.0000       4.144060       112.7656 
 392   0.0000       4.152334       112.9907 
 393   0.0000       4.175032       113.6084 
 394   0.0000       4.182994       113.8250 
 395   0.0000      23.529413       640.2679 
 396   0.0000      23.881517       649.8491 
 397   0.0000      24.029644       653.8799 
 398   0.0000      24.103676       655.8944 
 399   0.0000      24.225967       659.2221 
 400   0.0000      24.485503       666.2844 
 401   0.0000      24.534857       667.6274 
 402   0.0000      24.559405       668.2954 
 403   0.0000      24.726992       672.8557 
 404   0.0000      25.081083       682.4910 
 405   0.0000      25.450907       692.5544 
 406   0.0000      25.547255       695.1761 
 407   0.0000      26.044445       708.7054 
 408   0.0000      26.172435       712.1882 
 409   0.0000      26.258924       714.5416 
 410   0.0000      26.299057       715.6337 
 411   0.0000      26.318180       716.1541 
 412   0.0000      26.365614       717.4448 
 413   0.0000      26.538043       722.1369 
 414   0.0000      26.774953       728.5835 
 415   0.0000      27.056209       736.2369 
 416   0.0000      27.371219       744.8087 
 417   0.0000      27.414020       745.9734 
 418   0.0000      27.558511       749.9052 
 419   0.0000      27.742639       754.9156 
 420   0.0000      27.803863       756.5816 
 421   0.0000      28.183765       766.9192 
 422   0.0000      28.379895       772.2562 
 423   0.0000      28.900779       786.4302 
 424   0.0000      29.384827       799.6018 
 425   0.0000      44.052434      1198.7277 
 426   0.0000      44.143790      1201.2136 
 427   0.0000      44.178068      1202.1464 
 428   0.0000      44.211109      1203.0454 
 429   0.0000      44.237879      1203.7739 
 430   0.0000      44.265906      1204.5365 
 431   0.0000      44.314173      1205.8499 
 432   0.0000      44.362665      1207.1695 
 433   0.0000      44.364880      1207.2298 
 434   0.0000      44.393414      1208.0062 
 435   0.0000     202.651052      5514.4155 
 436   0.0000     202.688571      5515.4364 
 437   0.0000     202.701005      5515.7748 
 438   0.0000     202.717805      5516.2319 
 439   0.0000     202.728004      5516.5095 
 440   0.0000     202.737751      5516.7747 
 441   0.0000     202.751794      5517.1568 
 442   0.0000     202.776910      5517.8402 
 443   0.0000     202.781831      5517.9741 
 444   0.0000     202.785755      5518.0809 

                 SPIN DOWN ORBITALS
  NO   OCC          E(Eh)            E(eV) 
   0   1.0000    -258.322688     -7029.3177 
   1   1.0000     -30.795963      -838.0007 
   2   1.0000     -26.507235      -721.2985 
   3   1.0000     -26.500360      -721.1115 
   4   1.0000     -26.498082      -721.0495 
   5   1.0000      -4.409421      -119.9864 
   6   1.0000      -4.397520      -119.6626 
   7   1.0000      -4.395246      -119.6007 
   8   1.0000      -4.393394      -119.5503 
   9   1.0000      -4.393380      -119.5499 
  10   1.0000      -4.388842      -119.4265 
  11   1.0000      -4.387846      -119.3994 
  12   1.0000      -4.387799      -119.3981 
  13   1.0000      -4.385104      -119.3248 
  14   1.0000      -4.382713      -119.2597 
  15   1.0000      -3.657852       -99.5352 
  16   1.0000      -2.531906       -68.8967 
  17   1.0000      -2.526594       -68.7521 
  18   1.0000      -2.520679       -68.5912 
  19   1.0000      -2.518048       -68.5196 
  20   1.0000      -2.517463       -68.5037 
  21   1.0000      -2.515614       -68.4533 
  22   1.0000      -2.515102       -68.4394 
  23   1.0000      -2.513099       -68.3849 
  24   1.0000      -2.512811       -68.3771 
  25   1.0000      -2.512735       -68.3750 
  26   1.0000      -2.510629       -68.3177 
  27   1.0000      -2.510508       -68.3144 
  28   1.0000      -2.508232       -68.2525 
  29   1.0000      -2.507351       -68.2285 
  30   1.0000      -2.506764       -68.2125 
  31   1.0000      -2.506467       -68.2044 
  32   1.0000      -2.505581       -68.1803 
  33   1.0000      -2.505448       -68.1767 
  34   1.0000      -2.505332       -68.1735 
  35   1.0000      -2.505074       -68.1665 
  36   1.0000      -2.504621       -68.1542 
  37   1.0000      -2.503208       -68.1157 
  38   1.0000      -2.500975       -68.0550 
  39   1.0000      -2.500648       -68.0461 
  40   1.0000      -2.500045       -68.0297 
  41   1.0000      -2.499845       -68.0242 
  42   1.0000      -2.499748       -68.0216 
  43   1.0000      -2.499466       -68.0139 
  44   1.0000      -2.499200       -68.0067 
  45   1.0000      -2.494646       -67.8828 
  46   1.0000      -2.336200       -63.5712 
  47   1.0000      -2.334320       -63.5201 
  48   1.0000      -2.323218       -63.2180 
  49   1.0000      -0.486090       -13.2272 
  50   1.0000      -0.475099       -12.9281 
  51   1.0000      -0.467659       -12.7256 
  52   1.0000      -0.457821       -12.4579 
  53   1.0000      -0.455682       -12.3997 
  54   1.0000      -0.452923       -12.3247 
  55   1.0000      -0.449428       -12.2296 
  56   1.0000      -0.440775       -11.9941 
  57   1.0000      -0.436524       -11.8784 
  58   1.0000      -0.431720       -11.7477 
  59   1.0000      -0.429538       -11.6883 
  60   1.0000      -0.428043       -11.6476 
  61   1.0000      -0.423700       -11.5295 
  62   1.0000      -0.417930       -11.3724 
  63   1.0000      -0.417275       -11.3546 
  64   1.0000      -0.415219       -11.2987 
  65   1.0000      -0.413805       -11.2602 
  66   1.0000      -0.411297       -11.1919 
  67   1.0000      -0.404591       -11.0095 
  68   1.0000      -0.403535       -10.9808 
  69   1.0000      -0.401015       -10.9122 
  70   1.0000      -0.399882       -10.8813 
  71   1.0000      -0.394237       -10.7277 
  72   1.0000      -0.389978       -10.6118 
  73   1.0000      -0.386408       -10.5147 
  74   1.0000      -0.383138       -10.4257 
  75   1.0000      -0.380687       -10.3590 
  76   1.0000      -0.379258       -10.3201 
  77   1.0000      -0.377960       -10.2848 
  78   1.0000      -0.377632       -10.2759 
  79   1.0000      -0.374225       -10.1832 
  80   1.0000      -0.372191       -10.1278 
  81   1.0000      -0.370092       -10.0707 
  82   1.0000      -0.368504       -10.0275 
  83   1.0000      -0.366214        -9.9652 
  84   1.0000      -0.365013        -9.9325 
  85   1.0000      -0.364532        -9.9194 
  86   1.0000      -0.359796        -9.7906 
  87   1.0000      -0.357980        -9.7411 
  88   1.0000      -0.355441        -9.6720 
  89   1.0000      -0.354872        -9.6566 
  90   1.0000      -0.354294        -9.6408 
  91   1.0000      -0.351602        -9.5676 
  92   1.0000      -0.350216        -9.5299 
  93   1.0000      -0.347648        -9.4600 
  94   1.0000      -0.341095        -9.2817 
  95   1.0000      -0.340158        -9.2562 
  96   1.0000      -0.338510        -9.2113 
  97   1.0000      -0.337263        -9.1774 
  98   1.0000      -0.331471        -9.0198 
  99   1.0000      -0.321994        -8.7619 
 100   1.0000      -0.321384        -8.7453 
 101   1.0000      -0.320438        -8.7196 
 102   1.0000      -0.304490        -8.2856 
 103   1.0000      -0.253456        -6.8969 
 104   1.0000      -0.243657        -6.6303 
 105   1.0000      -0.234294        -6.3755 
 106   0.0000      -0.090836        -2.4718 
 107   0.0000      -0.085411        -2.3241 
 108   0.0000      -0.060403        -1.6436 
 109   0.0000      -0.059462        -1.6181 
 110   0.0000      -0.027723        -0.7544 
 111   0.0000      -0.026856        -0.7308 
 112   0.0000      -0.013554        -0.3688 
 113   0.0000      -0.004932        -0.1342 
 114   0.0000      -0.002131        -0.0580 
 115   0.0000       0.003243         0.0882 
 116   0.0000       0.007668         0.2087 
 117   0.0000       0.017757         0.4832 
 118   0.0000       0.032645         0.8883 
 119   0.0000       0.032873         0.8945 
 120   0.0000       0.038938         1.0596 
 121   0.0000       0.044954         1.2233 
 122   0.0000       0.047562         1.2942 
 123   0.0000       0.067268         1.8305 
 124   0.0000       0.068728         1.8702 
 125   0.0000       0.074284         2.0214 
 126   0.0000       0.079921         2.1748 
 127   0.0000       0.087052         2.3688 
 128   0.0000       0.090214         2.4548 
 129   0.0000       0.096931         2.6376 
 130   0.0000       0.107485         2.9248 
 131   0.0000       0.111255         3.0274 
 132   0.0000       0.111888         3.0446 
 133   0.0000       0.113971         3.1013 
 134   0.0000       0.120066         3.2672 
 135   0.0000       0.120584         3.2812 
 136   0.0000       0.123382         3.3574 
 137   0.0000       0.128541         3.4978 
 138   0.0000       0.144658         3.9364 
 139   0.0000       0.148216         4.0332 
 140   0.0000       0.151570         4.1244 
 141   0.0000       0.155766         4.2386 
 142   0.0000       0.168492         4.5849 
 143   0.0000       0.202501         5.5103 
 144   0.0000       0.205861         5.6018 
 145   0.0000       0.212837         5.7916 
 146   0.0000       0.217309         5.9133 
 147   0.0000       0.226320         6.1585 
 148   0.0000       0.242891         6.6094 
 149   0.0000       0.252441         6.8693 
 150   0.0000       0.262088         7.1318 
 151   0.0000       0.269439         7.3318 
 152   0.0000       0.278312         7.5733 
 153   0.0000       0.280308         7.6276 
 154   0.0000       0.289827         7.8866 
 155   0.0000       0.295926         8.0525 
 156   0.0000       0.300223         8.1695 
 157   0.0000       0.306382         8.3371 
 158   0.0000       0.309756         8.4289 
 159   0.0000       0.325071         8.8456 
 160   0.0000       0.328130         8.9289 
 161   0.0000       0.332624         9.0512 
 162   0.0000       0.339518         9.2387 
 163   0.0000       0.344060         9.3623 
 164   0.0000       0.351518         9.5653 
 165   0.0000       0.364174         9.9097 
 166   0.0000       0.365030         9.9330 
 167   0.0000       0.366492         9.9728 
 168   0.0000       0.371033        10.0963 
 169   0.0000       0.376432        10.2432 
 170   0.0000       0.384755        10.4697 
 171   0.0000       0.388543        10.5728 
 172   0.0000       0.393895        10.7184 
 173   0.0000       0.394751        10.7417 
 174   0.0000       0.401948        10.9376 
 175   0.0000       0.403919        10.9912 
 176   0.0000       0.405960        11.0467 
 177   0.0000       0.416084        11.3222 
 178   0.0000       0.426156        11.5963 
 179   0.0000       0.428101        11.6492 
 180   0.0000       0.429103        11.6765 
 181   0.0000       0.439721        11.9654 
 182   0.0000       0.440998        12.0002 
 183   0.0000       0.445197        12.1144 
 184   0.0000       0.457830        12.4582 
 185   0.0000       0.469191        12.7673 
 186   0.0000       0.472113        12.8468 
 187   0.0000       0.475656        12.9432 
 188   0.0000       0.480181        13.0664 
 189   0.0000       0.482376        13.1261 
 190   0.0000       0.488290        13.2871 
 191   0.0000       0.489882        13.3304 
 192   0.0000       0.501118        13.6361 
 193   0.0000       0.510652        13.8955 
 194   0.0000       0.515929        14.0391 
 195   0.0000       0.517029        14.0691 
 196   0.0000       0.524512        14.2727 
 197   0.0000       0.525616        14.3027 
 198   0.0000       0.538969        14.6661 
 199   0.0000       0.544569        14.8185 
 200   0.0000       0.549516        14.9531 
 201   0.0000       0.550650        14.9840 
 202   0.0000       0.566480        15.4147 
 203   0.0000       0.567323        15.4376 
 204   0.0000       0.578580        15.7440 
 205   0.0000       0.586803        15.9677 
 206   0.0000       0.595168        16.1954 
 207   0.0000       0.599212        16.3054 
 208   0.0000       0.602259        16.3883 
 209   0.0000       0.620020        16.8716 
 210   0.0000       0.631142        17.1743 
 211   0.0000       0.639745        17.4083 
 212   0.0000       0.660441        17.9715 
 213   0.0000       0.667676        18.1684 
 214   0.0000       0.683443        18.5974 
 215   0.0000       0.717653        19.5283 
 216   0.0000       0.744922        20.2704 
 217   0.0000       0.757699        20.6180 
 218   0.0000       0.775565        21.1042 
 219   0.0000       0.782228        21.2855 
 220   0.0000       0.805616        21.9219 
 221   0.0000       0.817415        22.2430 
 222   0.0000       0.826658        22.4945 
 223   0.0000       0.853825        23.2338 
 224   0.0000       0.865765        23.5587 
 225   0.0000       0.873167        23.7601 
 226   0.0000       0.897875        24.4324 
 227   0.0000       0.946377        25.7522 
 228   0.0000       0.951276        25.8855 
 229   0.0000       0.960635        26.1402 
 230   0.0000       0.963502        26.2182 
 231   0.0000       0.987362        26.8675 
 232   0.0000       1.000843        27.2343 
 233   0.0000       1.017506        27.6877 
 234   0.0000       1.023375        27.8475 
 235   0.0000       1.034752        28.1570 
 236   0.0000       1.050569        28.5874 
 237   0.0000       1.063561        28.9410 
 238   0.0000       1.085483        29.5375 
 239   0.0000       1.096558        29.8388 
 240   0.0000       1.105887        30.0927 
 241   0.0000       1.125121        30.6161 
 242   0.0000       1.146789        31.2057 
 243   0.0000       1.155185        31.4342 
 244   0.0000       1.156834        31.4791 
 245   0.0000       1.180336        32.1186 
 246   0.0000       1.202969        32.7344 
 247   0.0000       1.246391        33.9160 
 248   0.0000       1.269001        34.5313 
 249   0.0000       1.380381        37.5621 
 250   0.0000       1.405770        38.2529 
 251   0.0000       1.412687        38.4412 
 252   0.0000       1.469308        39.9819 
 253   0.0000       1.471558        40.0431 
 254   0.0000       1.484666        40.3998 
 255   0.0000       1.494217        40.6597 
 256   0.0000       1.499417        40.8012 
 257   0.0000       1.511752        41.1369 
[...]
      f0      :     0.000504  f :     0.004932
      f+1     :     0.000705
      f-1     :     0.000402
      f+2     :     0.000587
      f-2     :     0.000478
      f+3     :     0.001205
      f-3     :     0.001052
  9 Aus       :     2.708923  s :     2.708923
      pz      :     2.055929  p :     6.232508
      px      :     2.094857
      py      :     2.081721
      dz2     :     1.993291  d :     9.938127
      dxz     :     1.992493
      dyz     :     1.975721
      dx2y2   :     1.985341
      dxy     :     1.991280
      f0      :     0.000414  f :     0.003799
      f+1     :     0.000345
      f-1     :     0.000453
      f+2     :     0.000731
      f-2     :     0.000484
      f+3     :     0.000778
      f-3     :     0.000593
 10 Fes       :     6.368671  s :     6.368671
      pz      :     4.203751  p :    12.685636
      px      :     4.228761
      py      :     4.253125
      dz2     :     1.884045  d :     7.072136
      dxz     :     1.342810
      dyz     :     1.172844
      dx2y2   :     1.346837
      dxy     :     1.325600
      f0      :     0.000150  f :     0.000853
      f+1     :     0.000138
      f-1     :     0.000108
      f+2     :     0.000121
      f-2     :     0.000088
      f+3     :     0.000107
      f-3     :     0.000139

SPIN
  0 Aus       :    -0.333333  s :    -0.333333
      pz      :     0.004452  p :    -0.118877
      px      :    -0.043887
      py      :    -0.079442
      dz2     :    -0.005262  d :    -0.028281
      dxz     :     0.001002
      dyz     :     0.000562
      dx2y2   :    -0.006412
      dxy     :    -0.018170
      f0      :     0.000004  f :    -0.000164
      f+1     :    -0.000009
      f-1     :    -0.000039
      f+2     :     0.000010
      f-2     :     0.000010
      f+3     :    -0.000149
      f-3     :     0.000008
  1 Aus       :    -0.078897  s :    -0.078897
      pz      :     0.005519  p :    -0.030777
      px      :     0.003974
      py      :    -0.040270
      dz2     :    -0.001945  d :    -0.018234
      dxz     :     0.008052
      dyz     :     0.002078
      dx2y2   :     0.003019
      dxy     :    -0.029437
      f0      :     0.000006  f :     0.000071
      f+1     :    -0.000003
      f-1     :    -0.000012
      f+2     :    -0.000004
      f-2     :     0.000029
      f+3     :     0.000029
      f-3     :     0.000027
  2 Aus       :    -0.017015  s :    -0.017015
      pz      :     0.002952  p :    -0.133017
      px      :    -0.057261
      py      :    -0.078708
      dz2     :     0.003079  d :    -0.005789
      dxz     :    -0.003927
      dyz     :    -0.006010
      dx2y2   :    -0.005744
      dxy     :     0.006814
      f0      :    -0.000009  f :     0.000018
      f+1     :    -0.000011
      f-1     :     0.000039
      f+2     :    -0.000014
      f-2     :     0.000059
      f+3     :    -0.000050
      f-3     :     0.000004
  3 Aus       :    -0.112778  s :    -0.112778
      pz      :    -0.000865  p :    -0.046351
      px      :    -0.024170
      py      :    -0.021317
      dz2     :    -0.001688  d :    -0.030658
      dxz     :    -0.001381
      dyz     :    -0.000621
      dx2y2   :    -0.008999
      dxy     :    -0.017969
      f0      :    -0.000005  f :    -0.000160
      f+1     :    -0.000012
      f-1     :    -0.000006
      f+2     :    -0.000015
      f-2     :    -0.000013
      f+3     :    -0.000033
      f-3     :    -0.000076
  4 Aus       :    -0.012334  s :    -0.012334
      pz      :    -0.011003  p :    -0.133208
      px      :    -0.049679
      py      :    -0.072526
      dz2     :     0.004783  d :    -0.007175
      dxz     :    -0.011140
      dyz     :    -0.005163
      dx2y2   :    -0.000698
      dxy     :     0.005043
      f0      :    -0.000018  f :     0.000029
      f+1     :    -0.000034
      f-1     :     0.000095
      f+2     :     0.000049
      f-2     :    -0.000016
      f+3     :    -0.000050
      f-3     :     0.000003
  5 Aus       :    -0.028816  s :    -0.028816
      pz      :     0.000919  p :    -0.054750
      px      :    -0.000711
      py      :    -0.054958
      dz2     :     0.001728  d :     0.014219
      dxz     :     0.011122
      dyz     :    -0.005538
      dx2y2   :     0.001671
      dxy     :     0.005235
      f0      :    -0.000086  f :     0.000046
      f+1     :     0.000103
      f-1     :     0.000014
      f+2     :     0.000055
      f-2     :     0.000020
      f+3     :    -0.000039
      f-3     :    -0.000019
  6 Aus       :    -0.056865  s :    -0.056865
      pz      :     0.001700  p :    -0.060961
      px      :    -0.037137
      py      :    -0.025524
      dz2     :     0.000314  d :     0.019981
      dxz     :     0.007793
      dyz     :     0.003293
      dx2y2   :     0.001170
      dxy     :     0.007411
      f0      :     0.000029  f :     0.000252
      f+1     :     0.000020
      f-1     :    -0.000014
      f+2     :     0.000013
      f-2     :     0.000075
      f+3     :     0.000038
      f-3     :     0.000091
  7 Aus       :    -0.022263  s :    -0.022263
      pz      :     0.000435  p :    -0.052614
      px      :     0.001046
      py      :    -0.054095
      dz2     :     0.001985  d :     0.013994
      dxz     :     0.005347
      dyz     :    -0.006769
      dx2y2   :     0.007522
      dxy     :     0.005909
      f0      :    -0.000000  f :     0.000050
      f+1     :    -0.000040
      f-1     :    -0.000007
      f+2     :    -0.000019
      f-2     :     0.000013
      f+3     :     0.000092
      f-3     :     0.000011
  8 Aus       :    -0.068105  s :    -0.068105
      pz      :     0.005416  p :    -0.034037
      px      :    -0.025369
      py      :    -0.014084
      dz2     :     0.001993  d :     0.024083
      dxz     :     0.000306
      dyz     :     0.010188
      dx2y2   :     0.003693
      dxy     :     0.007903
      f0      :     0.000028  f :     0.000338
      f+1     :    -0.000018
      f-1     :     0.000054
      f+2     :     0.000068
      f-2     :    -0.000009
      f+3     :     0.000026
      f-3     :     0.000190
  9 Aus       :    -0.139136  s :    -0.139136
      pz      :     0.007039  p :    -0.007588
      px      :    -0.001442
      py      :    -0.013186
      dz2     :     0.000771  d :    -0.010837
      dxz     :     0.000617
      dyz     :     0.000103
      dx2y2   :    -0.009243
      dxy     :    -0.003085
      f0      :     0.000006  f :     0.000035
      f+1     :    -0.000003
      f-1     :     0.000020
      f+2     :     0.000014
      f-2     :     0.000014
      f+3     :    -0.000012
      f-3     :    -0.000004
 10 Fes       :    -0.006316  s :    -0.006316
      pz      :     0.008490  p :     0.005487
      px      :    -0.009209
      py      :     0.006206
      dz2     :     0.187562  d :     3.570801
      dxz     :     0.783280
      dyz     :     0.932146
      dx2y2   :     0.837558
      dxy     :     0.830255
      f0      :    -0.000010  f :    -0.000067
      f+1     :    -0.000048
      f-1     :    -0.000008
      f+2     :    -0.000007
      f-2     :    -0.000001
      f+3     :     0.000005
      f-3     :     0.000002


                      *****************************
                      * MAYER POPULATION ANALYSIS *
                      *****************************

  NA   - Mulliken gross atomic population
  ZA   - Total nuclear charge
  QA   - Mulliken gross atomic charge
  VA   - Mayer's total valence
  BVA  - Mayer's bonded valence
  FA   - Mayer's free valence

  ATOM       NA         ZA         QA         VA         BVA        FA
  0 Au    18.6800    19.0000     0.3200     1.2303     0.8281     0.4022
  1 Au    19.5064    19.0000    -0.5064     1.9678     1.8590     0.1088
  2 Au    18.8555    19.0000     0.1445     1.5133     1.4987     0.0146
  3 Au    18.7080    19.0000     0.2920     1.2876     1.2232     0.0643
  4 Au    18.8477    19.0000     0.1523     1.5088     1.4939     0.0149
  5 Au    18.9023    19.0000     0.0977     1.5523     1.5301     0.0222
  6 Au    18.9980    19.0000     0.0020     1.7549     1.7346     0.0203
  7 Au    18.8985    19.0000     0.1015     1.5535     1.5342     0.0194
  8 Au    18.8850    19.0000     0.1150     1.5919     1.5706     0.0213
  9 Au    18.7083    19.0000     0.2917     1.2253     1.1570     0.0683
 10 Fe    27.0102    26.0000    -1.0102     7.2644     3.6960     3.5684

  Mayer bond orders larger than 0.100000
B(  0-Au,  1-Au) :   0.1723 B(  0-Au,  2-Au) :   0.2340 B(  0-Au,  4-Au) :   0.2144 
B(  1-Au,  3-Au) :   0.5747 B(  1-Au,  4-Au) :   0.1071 B(  1-Au,  6-Au) :   0.2482 
B(  1-Au, 10-Fe) :   0.5736 B(  2-Au,  7-Au) :   0.4811 B(  2-Au, 10-Fe) :   0.4890 
B(  3-Au,  6-Au) :   0.4259 B(  4-Au,  5-Au) :   0.4800 B(  4-Au, 10-Fe) :   0.4921 
B(  5-Au,  7-Au) :   0.1289 B(  5-Au,  9-Au) :   0.3318 B(  5-Au, 10-Fe) :   0.4131 
B(  6-Au,  8-Au) :   0.4842 B(  6-Au, 10-Fe) :   0.4817 B(  7-Au,  9-Au) :   0.3282 
B(  7-Au, 10-Fe) :   0.4246 B(  8-Au,  9-Au) :   0.2446 B(  8-Au, 10-Fe) :   0.6283 


-------
TIMINGS
-------

Total SCF time: 0 days 0 hours 5 min 1 sec 

Total time                  ....     301.588 sec
Sum of individual times     ....     300.462 sec  ( 99.6%)

Fock matrix formation       ....     292.687 sec  ( 97.0%)
  Split-RI-J                ....      17.245 sec  (  5.9% of F)
  Chain of spheres X        ....     239.489 sec  ( 81.8% of F)
  XC integration            ....      34.947 sec  ( 11.9% of F)
    Basis function eval.    ....       5.691 sec  ( 16.3% of XC)
    Density eval.           ....      15.639 sec  ( 44.7% of XC)
    XC-Functional eval.     ....       1.135 sec  (  3.2% of XC)
    XC-Potential eval.      ....      11.243 sec  ( 32.2% of XC)
Diagonalization             ....       4.075 sec  (  1.4%)
Density matrix formation    ....       0.227 sec  (  0.1%)
Population analysis         ....       0.062 sec  (  0.0%)
Initial guess               ....       0.086 sec  (  0.0%)
Orbital Transformation      ....       0.000 sec  (  0.0%)
Orbital Orthonormalization  ....       0.070 sec  (  0.0%)
DIIS solution               ....       1.741 sec  (  0.6%)
Grid generation             ....       1.585 sec  (  0.5%)

Maximum memory used throughout the entire SCF-calculation: 109.2 MB


           ************************************************************
           *        Program running with 6 parallel MPI-processes     *
           *              working on a common directory               *
           ************************************************************

------------------------------------------------------------------------------
                                ORCA  MP2 
------------------------------------------------------------------------------

Freezing NCore=10 chemical core electrons

   <<< Use J-auxbasis for calculation of Separable RI-J derivative contributions (Dim=979) >>> 


-------------
RI-MP2 ENERGY
-------------
Dimension of the basis                    ...  445
Memory devoted to MP2                     ...  256 MB   
Data format for buffers                   ... DOUBLE
Compression type for matrix containers    ... UNCOMPRESSED
Overall scaling of the MP2 energy         ...   2.700e-01
Calculating two index integrals           ... done (    0.022 sec)
Cholesky decomposition of V**-1           ... done (    0.175 sec)

-----------------
RI-TRANSFORMATION (AUX index driven)
-----------------

Dimension of the orbital-basis         ... 445
Dimension of the aux-basis             ... 1692
Transformation of internal/external MOs...    5- 108 to  109- 444
Number Format for Storage              ... Double (8 Byte)
Integral mode                          ... Direct

First Phase: integral generation and transformation of MO indices
  Aux angular momentum 0               ... done (    0.062 sec)
  Aux angular momentum 1               ... done (    0.158 sec)
  Aux angular momentum 2               ... done (    0.235 sec)
  Aux angular momentum 3               ... done (    0.256 sec)
  Aux angular momentum 4               ... done (    0.203 sec)
  Aux angular momentum 5               ... done (    0.179 sec)
Closing buffer VIA ( 0.44 GB; CompressionRatio= 1.00)
  Phase 1 completed in     1.169 sec
Second Phase: sorting and transformation of aux index

IA-Transformation
Memory available                       ... 187 MB 
Max. # MO pairs treated in a batch     ... 18    
# of internal orbitals                 ... 104
# batches for internal orbitals        ... 1
Closing buffer IAV ( 0.44 GB; CompressionRatio= 1.00)
(ia|v) transformation done in     0.911 sec

  Phase 2 completed in     0.954 sec
RI-Integral transformation completed in     2.123 sec

-----------------
RI-TRANSFORMATION (AUX index driven)
-----------------

Dimension of the orbital-basis         ... 445
Dimension of the aux-basis             ... 1692
Transformation of internal/external MOs...    5- 106 to  107- 444
Number Format for Storage              ... Double (8 Byte)
Integral mode                          ... Direct

First Phase: integral generation and transformation of MO indices
  Aux angular momentum 0               ... done (    0.067 sec)
  Aux angular momentum 1               ... done (    0.163 sec)
  Aux angular momentum 2               ... done (    0.239 sec)
  Aux angular momentum 3               ... done (    0.258 sec)
  Aux angular momentum 4               ... done (    0.205 sec)
  Aux angular momentum 5               ... done (    0.179 sec)
Closing buffer VIA ( 0.43 GB; CompressionRatio= 1.00)
  Phase 1 completed in     1.188 sec
Second Phase: sorting and transformation of aux index

IA-Transformation
Memory available                       ... 187 MB 
Max. # MO pairs treated in a batch     ... 17    
# of internal orbitals                 ... 102
# batches for internal orbitals        ... 1
Closing buffer IAV ( 0.43 GB; CompressionRatio= 1.00)
(ia|v) transformation done in     0.879 sec

  Phase 2 completed in     0.922 sec
RI-Integral transformation completed in     2.110 sec
Opening buffers                              ... done

Starting loop over batches of integrals:

Operator 0  - window                       ... (  5-108)x(109-444)
Operator 0  - Memory available             ...   256 MB
Operator 0  - Memory needed per MO         ...   4.3 MB
Operator 0  - Number of orbitals per batch ... 18
Operator 0  - Number of batches            ... 1

OPERATOR  0   PASS   0:  MOs     5 ...   22 +   23 ...   40 +   41 ...   58 +   59 ...   76
                            +   77 ...   94 +   95 ...  108
  Reading integrals       ... ok
  Internal MO   7
  Internal MO  10
  Internal MO  13
  Internal MO  16
  Internal MO  19
  Internal MO  22

Operator 1  - window                       ... (  5-106)x(107-444)
Operator 1  - Memory available             ...   256 MB
Operator 1  - Memory needed per MO         ...   4.4 MB
Operator 1  - Number of orbitals per batch ... 17
Operator 1  - Number of batches            ... 1

OPERATOR  1   PASS   0:  MOs     5 ...   21 +   22 ...   38 +   39 ...   55 +   56 ...   72
                            +   73 ...   89 +   90 ...  106
  Reading integrals       ... ok
  Internal MO   7
  Internal MO  10
  Internal MO  13
  Internal MO  16
  Internal MO  19
Time spent in pair loops =    52.902 sec
Deleting buffer (Ka|jb)[aa] ...done
Deleting buffer (Ka|jb)[ba] ...done
Deleting buffer (Ka|jb)[ab] ...done
Deleting buffer (Ka|jb)[bb] ...done

Correlation energy components}
 E2 and T2 for alpha/alpha pairs :     -0.301481044 Eh      0.000000000
 E2 and T2 for beta/beta   pairs :     -0.296433431 Eh      0.000000000
 E2 and T2 for alpha/beta  pairs :     -1.036107578 Eh      0.000000000


-----------------------------------------------
 RI-MP2 CORRELATION ENERGY:     -1.634022053 Eh
-----------------------------------------------


-------
TIMINGS
-------

Total time                :   70.257 sec
Integral trafo            :    4.248 sec (  6.0%)
I/O of integrals          :    0.098 sec (  0.1%)
K(i,j) Operators          :   35.328 sec ( 50.3%)
T(i,j) pair energies      :    1.311 sec (  1.9%)
V-calculation             :    0.022 sec (  0.0%)
V**(-1/2)                 :    0.175 sec (  0.2%)
Gamma(ia|P)               :    0.000 sec (  0.0%)
Gamma-Trafo               :    0.000 sec (  0.0%)
D(virtual)                :    0.000 sec (  0.0%)
D(internal)               :    0.000 sec (  0.0%)
W(virtual)                :    0.000 sec (  0.0%)
W(internal)               :    0.000 sec (  0.0%)
L(virtual)                :    0.000 sec (  0.0%)
L(internal)               :    0.000 sec (  0.0%)
G(D)                      :    0.000 sec (  0.0%)
G(Z)                      :    0.000 sec (  0.0%)
Z-Vector Solution         :    0.000 sec (  0.0%)
3-Index Derivative        :    0.000 sec (  0.0%)
2-Index Derivative        :    0.000 sec (  0.0%)
Separable Gradient (RIJ)  :    0.000 sec (  0.0%)
Separable Gradient (COSX) :    0.000 sec (  0.0%)


---------------------------------------
MP2 TOTAL ENERGY:    -2619.295912600 Eh
---------------------------------------

Maximum memory used throughout the entire MP2-calculation: 194.3 MB

-------------------------   --------------------
FINAL SINGLE POINT ENERGY     -2619.295912599757
-------------------------   --------------------


                            ***************************************
                            *     ORCA property calculations      *
                            ***************************************


  WARNING: The energy has been calculated at the MP2 level but the densities
           used in the property calculations are still SCF densities
           MP2 response densities have not been calculated 
           use %mp2 Density relaxed end
           or  %mp2 Density unrelaxed end

                                    ---------------------
                                    Active property flags
                                    ---------------------
   (+) Dipole Moment


------------------------------------------------------------------------------
                       ORCA ELECTRIC PROPERTIES CALCULATION
------------------------------------------------------------------------------

Dipole Moment Calculation                       ... on
Quadrupole Moment Calculation                   ... off
Polarizability Calculation                      ... off
GBWName                                         ... b2plyp_job2.gbw
Electron density                                ... b2plyp_job2.scfp
The origin for moment calculation is the CENTER OF MASS  = (18.312985, 12.200587 13.470303)

-------------
DIPOLE MOMENT
-------------
                                X             Y             Z
Electronic contribution:      1.39853      -8.89778       0.31068
Nuclear contribution   :     -2.25609       9.23632      -0.52970
                        -----------------------------------------
Total Dipole Moment    :     -0.85756       0.33855      -0.21902
                        -----------------------------------------
Magnitude (a.u.)       :      0.94763
Magnitude (Debye)      :      2.40868



--------------------
Rotational spectrum 
--------------------
 
Rotational constants in cm-1:     0.002095     0.001358     0.001016 
Rotational constants in MHz :    62.807837    40.705007    30.469913 

 Dipole components along the rotational axes: 
x,y,z [a.u.] :     0.905914    -0.277168    -0.022275 
x,y,z [Debye]:     2.302651    -0.704504    -0.056619 

 

Timings for individual modules:

Sum of individual times         ...      376.204 sec (=   6.270 min)
GTO integral calculation        ...        3.959 sec (=   0.066 min)   1.1 %
SCF iterations                  ...      301.715 sec (=   5.029 min)  80.2 %
MP2 module                      ...       70.530 sec (=   1.175 min)  18.7 %



                             ****ORCA TERMINATED NORMALLY****
TOTAL RUN TIME: 0 days 0 hours 15 minutes 19 seconds 50 msec
