
                                 *****************
                                 * O   R   C   A *
                                 *****************

                                            #,                                       
                                            ###                                      
                                            ####                                     
                                            #####                                    
                                            ######                                   
                                           ########,                                 
                                     ,,################,,,,,                         
                               ,,#################################,,                 
                          ,,##########################################,,             
                       ,#########################################, ''#####,          
                    ,#############################################,,   '####,        
                  ,##################################################,,,,####,       
                ,###########''''           ''''###############################       
              ,#####''   ,,,,##########,,,,          '''####'''          '####       
            ,##' ,,,,###########################,,,                        '##       
           ' ,,###''''                  '''############,,,                           
         ,,##''                                '''############,,,,        ,,,,,,###''
      ,#''                                            '''#######################'''  
     '                                                          ''''####''''         
             ,#######,   #######,   ,#######,      ##                                
            ,#'     '#,  ##    ##  ,#'     '#,    #''#        ######   ,####,        
            ##       ##  ##   ,#'  ##            #'  '#       #        #'  '#        
            ##       ##  #######   ##           ,######,      #####,   #    #        
            '#,     ,#'  ##    ##  '#,     ,#' ,#      #,         ##   #,  ,#        
             '#######'   ##     ##  '#######'  #'      '#     #####' # '####'        



                  #######################################################
                  #                        -***-                        #
                  #          Department of theory and spectroscopy      #
                  #    Directorship and core code : Frank Neese         #
                  #        Max Planck Institute fuer Kohlenforschung    #
                  #                Kaiser Wilhelm Platz 1               #
                  #                 D-45470 Muelheim/Ruhr               #
                  #                      Germany                        #
                  #                                                     #
                  #                  All rights reserved                #
                  #                        -***-                        #
                  #######################################################


                         Program Version 5.0.3 -  RELEASE  -


 With contributions from (in alphabetic order):
   Daniel Aravena         : Magnetic Suceptibility
   Michael Atanasov       : Ab Initio Ligand Field Theory (pilot matlab implementation)
   Alexander A. Auer      : GIAO ZORA, VPT2 properties, NMR spectrum
   Ute Becker             : Parallelization
   Giovanni Bistoni       : ED, misc. LED, open-shell LED, HFLD
   Martin Brehm           : Molecular dynamics
   Dmytro Bykov           : SCF Hessian
   Vijay G. Chilkuri      : MRCI spin determinant printing, contributions to CSF-ICE
   Dipayan Datta          : RHF DLPNO-CCSD density
   Achintya Kumar Dutta   : EOM-CC, STEOM-CC
   Dmitry Ganyushin       : Spin-Orbit,Spin-Spin,Magnetic field MRCI
   Miquel Garcia          : C-PCM and meta-GGA Hessian, CC/C-PCM, Gaussian charge scheme
   Yang Guo               : DLPNO-NEVPT2, F12-NEVPT2, CIM, IAO-localization
   Andreas Hansen         : Spin unrestricted coupled pair/coupled cluster methods
   Benjamin Helmich-Paris : MC-RPA, TRAH-SCF, COSX integrals
   Lee Huntington         : MR-EOM, pCC
   Robert Izsak           : Overlap fitted RIJCOSX, COSX-SCS-MP3, EOM
   Marcus Kettner         : VPT2
   Christian Kollmar      : KDIIS, OOCD, Brueckner-CCSD(T), CCSD density, CASPT2, CASPT2-K
   Simone Kossmann        : Meta GGA functionals, TD-DFT gradient, OOMP2, MP2 Hessian
   Martin Krupicka        : Initial AUTO-CI
   Lucas Lang             : DCDCAS
   Marvin Lechner         : AUTO-CI (C++ implementation), FIC-MRCC
   Dagmar Lenk            : GEPOL surface, SMD
   Dimitrios Liakos       : Extrapolation schemes; Compound Job, initial MDCI parallelization
   Dimitrios Manganas     : Further ROCIS development; embedding schemes
   Dimitrios Pantazis     : SARC Basis sets
   Anastasios Papadopoulos: AUTO-CI, single reference methods and gradients
   Taras Petrenko         : DFT Hessian,TD-DFT gradient, ASA, ECA, R-Raman, ABS, FL, XAS/XES, NRVS
   Peter Pinski           : DLPNO-MP2, DLPNO-MP2 Gradient
   Christoph Reimann      : Effective Core Potentials
   Marius Retegan         : Local ZFS, SOC
   Christoph Riplinger    : Optimizer, TS searches, QM/MM, DLPNO-CCSD(T), (RO)-DLPNO pert. Triples
   Tobias Risthaus        : Range-separated hybrids, TD-DFT gradient, RPA, STAB
   Michael Roemelt        : Original ROCIS implementation
   Masaaki Saitow         : Open-shell DLPNO-CCSD energy and density
   Barbara Sandhoefer     : DKH picture change effects
   Avijit Sen             : IP-ROCIS
   Kantharuban Sivalingam : CASSCF convergence, NEVPT2, FIC-MRCI
   Bernardo de Souza      : ESD, SOC TD-DFT
   Georgi Stoychev        : AutoAux, RI-MP2 NMR, DLPNO-MP2 response
   Willem Van den Heuvel  : Paramagnetic NMR
   Boris Wezisla          : Elementary symmetry handling
   Frank Wennmohs         : Technical directorship


 We gratefully acknowledge several colleagues who have allowed us to
 interface, adapt or use parts of their codes:
   Stefan Grimme, W. Hujo, H. Kruse, P. Pracht,  : VdW corrections, initial TS optimization,
                  C. Bannwarth, S. Ehlert          DFT functionals, gCP, sTDA/sTD-DF
   Ed Valeev, F. Pavosevic, A. Kumar             : LibInt (2-el integral package), F12 methods
   Garnet Chan, S. Sharma, J. Yang, R. Olivares  : DMRG
   Ulf Ekstrom                                   : XCFun DFT Library
   Mihaly Kallay                                 : mrcc  (arbitrary order and MRCC methods)
   Jiri Pittner, Ondrej Demel                    : Mk-CCSD
   Frank Weinhold                                : gennbo (NPA and NBO analysis)
   Christopher J. Cramer and Donald G. Truhlar   : smd solvation model
   Lars Goerigk                                  : TD-DFT with DH, B97 family of functionals
   V. Asgeirsson, H. Jonsson                     : NEB implementation
   FAccTs GmbH                                   : IRC, NEB, NEB-TS, DLPNO-Multilevel, CI-OPT
                                                   MM, QMMM, 2- and 3-layer-ONIOM, Crystal-QMMM,
                                                   LR-CPCM, SF, NACMEs, symmetry and pop. for TD-DFT,
                                                   nearIR, NL-DFT gradient (VV10), updates on ESD,
                                                   ML-optimized integration grids
   S Lehtola, MJT Oliveira, MAL Marques          : LibXC Library
   Liviu Ungur et al                             : ANISO software


 Your calculation uses the libint2 library for the computation of 2-el integrals
 For citations please refer to: http://libint.valeyev.net

 Your ORCA version has been built with support for libXC version: 5.1.0
 For citations please refer to: https://tddft.org/programs/libxc/

 This ORCA versions uses:
   CBLAS   interface :  Fast vector & matrix operations
   LAPACKE interface :  Fast linear algebra routines
   SCALAPACK package :  Parallel linear algebra routines
   Shared memory     :  Shared parallel matrices
   BLAS/LAPACK       :  OpenBLAS 0.3.15  USE64BITINT DYNAMIC_ARCH NO_AFFINITY Sandybridge SINGLE_THREADED
        Core in use  :  Sandybridge
   Copyright (c) 2011-2014, The OpenBLAS Project




***************************************
The coordinates will be read from file: pbe.xyz
***************************************


================================================================================

cite the ECPs for Au [Def2-ECP] as follows:
Ce-Yb(ecp-28): M. Dolg, H. Stoll, H.Preuss, J. Chem. Phys., 1989, 90, 1730-1734.
Y-Cd(ecp-28), Hf-Hg(ecp-46): D. Andrae,U. Haeussermann, M. Dolg, H. Stoll, H. Preuss, Theor. Chim. Acta, 1990, 77, 123-141.
In-Sb(ecp-28), Tl-Bi(ecp-46): B. Metz, H. Stoll, M. Dolg, J. Chem. Phys., 2000, 113, 2563-2569.
Te-Xe(ecp-28), Po-Rn(ecp-46): K. A. Peterson, D. Figgen, E. Goll, H. Stoll, M. Dolg, J. Chem. Phys., 2003, 119, 11113-11123.
Rb(ecp-28), Cs(ecp-46): T. Leininger, A. Nicklass, W. Kuechle, H. Stoll, M. Dolg, A. Bergner, Chem. Phys. Lett., 1996, 255, 274-280.
Sr(ecp-28), Ba(ecp-46): M. Kaupp, P. V. Schleyer, H. Stoll and H. Preuss, J. Chem. Phys., 1991, 94, 1360-1366.
La(ecp-46): M. Dolg, H. Stoll, A. Savin, H. Preuss, Theor. Chim. Acta, 1989, 75, 173-194.
Lu(ecp-28): X. Cao, M. Dolg, J. Chem. Phys., 2001, 115, 7348-7355.

ECP parameters for Au [Def2-ECP] have been obtained from:
TURBOMOLE (7.0.2)

----- Orbital basis set information -----
Your calculation utilizes the basis: def2-TZVP
   F. Weigend and R. Ahlrichs, Phys. Chem. Chem. Phys. 7, 3297 (2005).

----- AuxJ basis set information -----
Your calculation utilizes the auxiliary basis: def2/J
   F. Weigend, Phys. Chem. Chem. Phys. 8, 1057 (2006).

================================================================================
                                        WARNINGS
                       Please study these warnings very carefully!
================================================================================

Using LibXC functional ID 497 : Re-regularized SCAN exchange by Furness et al
[ 1]  J. W. Furness, A. D. Kaplan, J. Ning, J. P. Perdew, and J. Sun, J. Phys. Chem. Lett. 11, 8208 (2020)
[ 2]  J. W. Furness, A. D. Kaplan, J. Ning, J. P. Perdew, and J. Sun, J. Phys. Chem. Lett. 11, 9248 (2020)
Using LibXC functional ID 498 : Re-regularized SCAN correlation by Furness et al
[ 1]  J. W. Furness, A. D. Kaplan, J. Ning, J. P. Perdew, and J. Sun, J. Phys. Chem. Lett. 11, 8208 (2020)
[ 2]  J. W. Furness, A. D. Kaplan, J. Ning, J. P. Perdew, and J. Sun, J. Phys. Chem. Lett. 11, 9248 (2020)
Using LibXC functional ID 497 : Re-regularized SCAN exchange by Furness et al
[ 1]  J. W. Furness, A. D. Kaplan, J. Ning, J. P. Perdew, and J. Sun, J. Phys. Chem. Lett. 11, 8208 (2020)
[ 2]  J. W. Furness, A. D. Kaplan, J. Ning, J. P. Perdew, and J. Sun, J. Phys. Chem. Lett. 11, 9248 (2020)
Using LibXC functional ID 498 : Re-regularized SCAN correlation by Furness et al
[ 1]  J. W. Furness, A. D. Kaplan, J. Ning, J. P. Perdew, and J. Sun, J. Phys. Chem. Lett. 11, 8208 (2020)
[ 2]  J. W. Furness, A. D. Kaplan, J. Ning, J. P. Perdew, and J. Sun, J. Phys. Chem. Lett. 11, 9248 (2020)

WARNING: your system is open-shell and RHF/RKS was chosen
  ===> : WILL SWITCH to UHF/UKS


INFO   : the flag for use of the SHARK integral package has been found!



***************************************
The coordinates will be read from file: pbe.xyz
***************************************


================================================================================

cite the ECPs for Au [Def2-ECP] as follows:
Ce-Yb(ecp-28): M. Dolg, H. Stoll, H.Preuss, J. Chem. Phys., 1989, 90, 1730-1734.
Y-Cd(ecp-28), Hf-Hg(ecp-46): D. Andrae,U. Haeussermann, M. Dolg, H. Stoll, H. Preuss, Theor. Chim. Acta, 1990, 77, 123-141.
In-Sb(ecp-28), Tl-Bi(ecp-46): B. Metz, H. Stoll, M. Dolg, J. Chem. Phys., 2000, 113, 2563-2569.
Te-Xe(ecp-28), Po-Rn(ecp-46): K. A. Peterson, D. Figgen, E. Goll, H. Stoll, M. Dolg, J. Chem. Phys., 2003, 119, 11113-11123.
Rb(ecp-28), Cs(ecp-46): T. Leininger, A. Nicklass, W. Kuechle, H. Stoll, M. Dolg, A. Bergner, Chem. Phys. Lett., 1996, 255, 274-280.
Sr(ecp-28), Ba(ecp-46): M. Kaupp, P. V. Schleyer, H. Stoll and H. Preuss, J. Chem. Phys., 1991, 94, 1360-1366.
La(ecp-46): M. Dolg, H. Stoll, A. Savin, H. Preuss, Theor. Chim. Acta, 1989, 75, 173-194.
Lu(ecp-28): X. Cao, M. Dolg, J. Chem. Phys., 2001, 115, 7348-7355.

ECP parameters for Au [Def2-ECP] have been obtained from:
TURBOMOLE (7.0.2)

----- Orbital basis set information -----
Your calculation utilizes the basis: def2-TZVP
   F. Weigend and R. Ahlrichs, Phys. Chem. Chem. Phys. 7, 3297 (2005).

----- AuxJ basis set information -----
Your calculation utilizes the auxiliary basis: def2/J
   F. Weigend, Phys. Chem. Chem. Phys. 8, 1057 (2006).

================================================================================
                                        WARNINGS
                       Please study these warnings very carefully!
================================================================================

Using LibXC functional ID 497 : Re-regularized SCAN exchange by Furness et al
[ 1]  J. W. Furness, A. D. Kaplan, J. Ning, J. P. Perdew, and J. Sun, J. Phys. Chem. Lett. 11, 8208 (2020)
[ 2]  J. W. Furness, A. D. Kaplan, J. Ning, J. P. Perdew, and J. Sun, J. Phys. Chem. Lett. 11, 9248 (2020)
Using LibXC functional ID 498 : Re-regularized SCAN correlation by Furness et al
[ 1]  J. W. Furness, A. D. Kaplan, J. Ning, J. P. Perdew, and J. Sun, J. Phys. Chem. Lett. 11, 8208 (2020)
[ 2]  J. W. Furness, A. D. Kaplan, J. Ning, J. P. Perdew, and J. Sun, J. Phys. Chem. Lett. 11, 9248 (2020)
Using LibXC functional ID 497 : Re-regularized SCAN exchange by Furness et al
[ 1]  J. W. Furness, A. D. Kaplan, J. Ning, J. P. Perdew, and J. Sun, J. Phys. Chem. Lett. 11, 8208 (2020)
[ 2]  J. W. Furness, A. D. Kaplan, J. Ning, J. P. Perdew, and J. Sun, J. Phys. Chem. Lett. 11, 9248 (2020)
Using LibXC functional ID 498 : Re-regularized SCAN correlation by Furness et al
[ 1]  J. W. Furness, A. D. Kaplan, J. Ning, J. P. Perdew, and J. Sun, J. Phys. Chem. Lett. 11, 8208 (2020)
[ 2]  J. W. Furness, A. D. Kaplan, J. Ning, J. P. Perdew, and J. Sun, J. Phys. Chem. Lett. 11, 9248 (2020)

INFO   : the flag for use of the SHARK integral package has been found!

================================================================================
                                       INPUT FILE
================================================================================
NAME = scan.inp
|  1> !R2SCAN def2-TZVP VERYSLOWCONV
|  2> !KDIIS
|  3> %scf
|  4>   AutoTRAHIter 200
|  5>   maxiter 400
|  6> end
|  7> 
|  8> %pal nprocs 6 end 
|  9> 
| 10> *xyzfile 0 6 pbe.xyz
| 11> 
| 12> $new_job
| 13> 
| 14> !R2SCAN def2-TZVP VERYSLOWCONV
| 15> !KDIIS
| 16> %scf
| 17>   AutoTRAHIter 200
| 18>   maxiter 400
| 19> end
| 20> 
| 21> 
| 22> %pal nprocs 6 end 
| 23> 
| 24> *xyzfile 0 4 pbe.xyz
| 25> 
| 26> 
| 27> 
| 28> 
| 29> 
| 30>                          ****END OF INPUT****
================================================================================


                 $$$$$$$$$$$$$$$$$$$$$$$$$$$$$$$$$$$$$$$$$$$$$$ 
                 $ THERE ARE  2 JOBS TO BE PROCESSED THIS RUN $
                 $$$$$$$$$$$$$$$$$$$$$$$$$$$$$$$$$$$$$$$$$$$$$$ 




                 $$$$$$$$$$$$$$$$  JOB NUMBER  1 $$$$$$$$$$$$$$


                       ****************************
                       * Single Point Calculation *
                       ****************************

---------------------------------
CARTESIAN COORDINATES (ANGSTROEM)
---------------------------------
  Au     7.468505    9.296277   10.076400
  Au     7.620721    6.978265    8.735777
  Au     6.145466    6.781759    6.289352
  Au     8.483860    5.140120    6.899290
  Au    10.470292    6.751522    7.861800
  Au     8.644905    7.741929    5.713037
  Au    11.670758    8.946321    8.946395
  Au    10.706081   11.358872    7.592238
  Au     9.846552   10.701513   10.164251
  Au     7.946455   11.512041    8.083233
  Au    10.938384    9.097795    6.021921
  Au     6.586264    9.322529    7.194101
  Mn     9.165883    9.127597    8.021660

----------------------------
CARTESIAN COORDINATES (A.U.)
----------------------------
  NO LB      ZA    FRAG     MASS         X           Y           Z
   0 Au   19.0000*   0   196.966   14.113428   17.567418   19.041637
   1 Au   19.0000*   0   196.966   14.401076   13.187009   16.508226
   2 Au   19.0000*   0   196.966   11.613247   12.815668   11.885152
   3 Au   19.0000*   0   196.966   16.032172    9.713419   13.037768
   4 Au   19.0000*   0   196.966   19.785985   12.758527   14.856649
   5 Au   19.0000*   0   196.966   16.336503   14.630126   10.796076
   6 Au   19.0000*   0   196.966   22.054537   16.906097   16.906237
   7 Au   19.0000*   0   196.966   20.231561   21.465158   14.347251
   8 Au   19.0000*   0   196.966   18.607286   20.222928   19.207650
   9 Au   19.0000*   0   196.966   15.016623   21.754604   15.275097
  10 Au   19.0000*   0   196.966   20.670551   17.192342   11.379781
  11 Au   19.0000*   0   196.966   12.446234   17.617027   13.594882
  12 Mn   25.0000    0    54.940   17.321010   17.248658   15.158741
* core charge reduced due to ECP

--------------------------------
INTERNAL COORDINATES (ANGSTROEM)
--------------------------------
 Au     0   0   0     0.000000000000     0.00000000     0.00000000
 Au     1   0   0     2.682092775454     0.00000000     0.00000000
 Au     2   1   0     2.863562296371   117.20009529     0.00000000
 Au     2   1   3     2.737968505559   158.96802153    84.59767285
 Au     4   2   1     2.732939400307    66.23804454    35.23792283
 Au     3   2   1     2.738843116780    71.67318251    89.84478710
 Au     5   4   2     2.726648149303   159.18232282   333.77352129
 Au     7   5   4     2.929973823406   109.51145131   313.07403626
 Au     1   2   3     2.763605125921   113.98576753   246.84437152
 Au     8   7   5     2.807146630531   106.72392797    62.59937213
 Au     6   3   2     2.682131488876   158.96166600   325.28739418
 Au    10   8   7     2.726652901823   112.92679407   301.30764614
 Mn     1   2   3     2.670487480283    61.62411263   278.59752663

---------------------------
INTERNAL COORDINATES (A.U.)
---------------------------
 Au     0   0   0     0.000000000000     0.00000000     0.00000000
 Au     1   0   0     5.068420811376     0.00000000     0.00000000
 Au     2   1   0     5.411348507564   117.20009529     0.00000000
 Au     2   1   3     5.174010638808   158.96802153    84.59767285
 Au     4   2   1     5.164507007182    66.23804454    35.23792283
 Au     3   2   1     5.175663414489    71.67318251    89.84478710
 Au     5   4   2     5.152618265746   159.18232282   333.77352129
 Au     7   5   4     5.536848105795   109.51145131   313.07403626
 Au     1   2   3     5.222456830293   113.98576753   246.84437152
 Au     8   7   5     5.304738349463   106.72392797    62.59937213
 Au     6   3   2     5.068493969143   158.96166600   325.28739418
 Au    10   8   7     5.152627246707   112.92679407   301.30764614
 Mn     1   2   3     5.046489981800    61.62411263   278.59752663

---------------------
BASIS SET INFORMATION
---------------------
There are 2 groups of distinct atoms

 Group   1 Type Au  : 8s7p6d1f contracted to 6s4p3d1f pattern {311111/4111/411/1}
 Group   2 Type Mn  : 17s11p7d1f contracted to 6s4p4d1f pattern {842111/6311/4111/1}

Atom   0Au   basis set group =>   1
Atom   1Au   basis set group =>   1
Atom   2Au   basis set group =>   1
Atom   3Au   basis set group =>   1
Atom   4Au   basis set group =>   1
Atom   5Au   basis set group =>   1
Atom   6Au   basis set group =>   1
Atom   7Au   basis set group =>   1
Atom   8Au   basis set group =>   1
Atom   9Au   basis set group =>   1
Atom  10Au   basis set group =>   1
Atom  11Au   basis set group =>   1
Atom  12Mn   basis set group =>   2
---------------------------------
AUXILIARY/J BASIS SET INFORMATION
---------------------------------
There are 2 groups of distinct atoms

 Group   1 Type Au  : 11s5p5d3f3g contracted to 8s5p5d2f3g pattern {41111111/11111/11111/21/111}
 Group   2 Type Mn  : 19s5p5d3f3g contracted to 8s5p5d2f3g pattern {121111111/11111/11111/21/111}

Atom   0Au   basis set group =>   1
Atom   1Au   basis set group =>   1
Atom   2Au   basis set group =>   1
Atom   3Au   basis set group =>   1
Atom   4Au   basis set group =>   1
Atom   5Au   basis set group =>   1
Atom   6Au   basis set group =>   1
Atom   7Au   basis set group =>   1
Atom   8Au   basis set group =>   1
Atom   9Au   basis set group =>   1
Atom  10Au   basis set group =>   1
Atom  11Au   basis set group =>   1
Atom  12Mn   basis set group =>   2
-------------------------
ECP PARAMETER INFORMATION
-------------------------

 Group 1, Type Au ECP Def2-ECP (replacing 60 core electrons, lmax=3)

Atom   0Au   ECP group =>   1
Atom   1Au   ECP group =>   1
Atom   2Au   ECP group =>   1
Atom   3Au   ECP group =>   1
Atom   4Au   ECP group =>   1
Atom   5Au   ECP group =>   1
Atom   6Au   ECP group =>   1
Atom   7Au   ECP group =>   1
Atom   8Au   ECP group =>   1
Atom   9Au   ECP group =>   1
Atom  10Au   ECP group =>   1
Atom  11Au   ECP group =>   1



           ************************************************************
           *        Program running with 6 parallel MPI-processes     *
           *              working on a common directory               *
           ************************************************************
------------------------------------------------------------------------------
                           ORCA GTO INTEGRAL CALCULATION
                           -- RI-GTO INTEGRALS CHOSEN --
------------------------------------------------------------------------------
------------------------------------------------------------------------------
                   ___                                                        
                  /   \      - P O W E R E D   B Y -                         
                 /     \                                                     
                 |  |  |   _    _      __       _____    __    __             
                 |  |  |  | |  | |    /  \     |  _  \  |  |  /  |          
                  \  \/   | |  | |   /    \    | | | |  |  | /  /          
                 / \  \   | |__| |  /  /\  \   | |_| |  |  |/  /          
                |  |  |   |  __  | /  /__\  \  |    /   |      \           
                |  |  |   | |  | | |   __   |  |    \   |  |\   \          
                \     /   | |  | | |  |  |  |  | |\  \  |  | \   \       
                 \___/    |_|  |_| |__|  |__|  |_| \__\ |__|  \__/        
                                                                              
                      - O R C A' S   B I G   F R I E N D -                    
                                      &                                       
                       - I N T E G R A L  F E E D E R -                       
                                                                              
 v1 FN, 2020, v2 2021                                                         
------------------------------------------------------------------------------


Reading SHARK input file scan.SHARKINP.tmp ... ok
----------------------
SHARK INTEGRAL PACKAGE
----------------------

Number of atoms                             ...     13
Number of basis functions                   ...    525
Number of shells                            ...    183
Maximum angular momentum                    ...      3
Integral batch strategy                     ... SHARK/LIBINT Hybrid
RI-J (if used) integral strategy            ... SPLIT-RIJ (Revised 2003 algorithm where possible)
Printlevel                                  ...      1
Contraction scheme used                     ... SEGMENTED contraction
Coulomb Range Separation                    ... NOT USED
Exchange Range Separation                   ... NOT USED
Finite Nucleus Model                        ... NOT USED
Auxiliary Coulomb fitting basis             ... AVAILABLE
   # of basis functions in Aux-J            ...   1157
   # of shells in Aux-J                     ...    299
   Maximum angular momentum in Aux-J        ...      4
Auxiliary J/K fitting basis                 ... NOT available
Auxiliary Correlation fitting basis         ... NOT available
Auxiliary 'external' fitting basis          ... NOT available
Integral threshold                          ...     1.000000e-10
Primitive cut-off                           ...     1.000000e-11
Primitive pair pre-selection threshold      ...     1.000000e-11

Calculating pre-screening integrals         ... done (  0.2 sec) Dimension = 183
Organizing shell pair data                  ... done (  0.4 sec)
Shell pair information
Total number of shell pairs                 ...     16836
Shell pairs after pre-screening             ...     13691
Total number of primitive shell pairs       ...     45389
Primitive shell pairs kept                  ...     27034
          la=0 lb=0:   2152 shell pairs
          la=1 lb=0:   3138 shell pairs
          la=1 lb=1:   1166 shell pairs
          la=2 lb=0:   2718 shell pairs
          la=2 lb=1:   1900 shell pairs
          la=2 lb=2:    786 shell pairs
          la=3 lb=0:    728 shell pairs
          la=3 lb=1:    551 shell pairs
          la=3 lb=2:    476 shell pairs
          la=3 lb=3:     76 shell pairs

Calculating one electron integrals          ... done (  0.1 sec)
Calculating ECP integrals                   ... done ( 14.1 sec)
Calculating RI/J V-Matrix + Cholesky decomp.... done (  0.1 sec)
Calculating Nuclear repulsion               ... done (  0.0 sec) ENN=   4340.249326859382 Eh

SHARK setup successfully completed in  15.3 seconds

Maximum memory used throughout the entire GTOINT-calculation: 30.7 MB


           ************************************************************
           *        Program running with 6 parallel MPI-processes     *
           *              working on a common directory               *
           ************************************************************
-------------------------------------------------------------------------------
                                 ORCA SCF
-------------------------------------------------------------------------------

------------
SCF SETTINGS
------------
Hamiltonian:
 Density Functional     Method          .... DFT(GTOs)
  Functional kind                       .... Exchange
  Functional name                       .... Re-regularized SCAN exchange by Furness et al
  Functional family                     .... MGGA
  Functional refs                              
    [ 0] J. W. Furness, A. D. Kaplan, J. Ning, J. P. Perdew, and J. Sun, J. Phys. Chem. Lett. 11, 8208 (2020)
    [ 1] J. W. Furness, A. D. Kaplan, J. Ning, J. P. Perdew, and J. Sun, J. Phys. Chem. Lett. 11, 9248 (2020)
  Functional external parameters         .... 8
 Parameter  0 :         c1 parameter
 Parameter  1 :         c2 parameter
 Parameter  2 :          d parameter
 Parameter  3 :         k1 parameter
 Parameter  4 :       taur parameter
 Parameter  5 :     alphar parameter
 Parameter  6 :        eta parameter
 Parameter  7 :        dp2 parameter
  Functional kind                       .... Correlation
  Functional name                       .... Re-regularized SCAN correlation by Furness et al
  Functional family                     .... MGGA
  Functional refs                              
    [ 0] J. W. Furness, A. D. Kaplan, J. Ning, J. P. Perdew, and J. Sun, J. Phys. Chem. Lett. 11, 8208 (2020)
    [ 1] J. W. Furness, A. D. Kaplan, J. Ning, J. P. Perdew, and J. Sun, J. Phys. Chem. Lett. 11, 9248 (2020)
  Functional external parameters         .... 0
 Gradients option       PostSCFGGA      .... off
   Density functional embedding theory  .... OFF
   NL short-range parameter             .... 12.300000
 RI-approximation to the Coulomb term is turned on
   Number of AuxJ basis functions       .... 1157


General Settings:
 Integral files         IntName         .... scan
 Hartree-Fock type      HFTyp           .... UHF
 Total Charge           Charge          ....    0
 Multiplicity           Mult            ....    6
 Number of Electrons    NEL             ....  253
 Basis Dimension        Dim             ....  525
 Nuclear Repulsion      ENuc            ....   4340.2493268594 Eh

Convergence Acceleration:
 DIIS                   CNVDIIS         .... off
 Trust-Rad. Augm. Hess. CNVTRAH         .... auto
   Auto Start mean grad. ratio tolernc. ....  1.125000
   Auto Start start iteration           ....   200
   Auto Start num. interpolation iter.  ....    10
   Max. Number of Micro iterations      ....    16
   Max. Number of Macro iterations      .... Maxiter - #DIIS iter
   Number of Davidson start vectors     ....     2
   Converg. threshold I  (grad. norm)   ....   5.000e-05
   Converg. threshold II (energy diff.) ....   1.000e-06
   Grad. Scal. Fac. for Micro threshold ....   0.100
   Minimum threshold for Micro iter.    ....   0.010
   NR start threshold (gradient norm)   ....   0.001
   Initial trust radius                 ....   0.400
   Minimum AH scaling param. (alpha)    ....   1.000
   Maximum AH scaling param. (alpha)    .... 1000.000
   Orbital update algorithm             .... Taylor
   White noise on init. David. guess    .... on
   Maximum white noise                  ....   0.010
   Quad. conv. algorithm                .... NR
 SOSCF                  CNVSOSCF        .... off
 Level Shifting         CNVShift        .... off
 Zerner damping         CNVZerner       .... off
 Static damping         CNVDamp         .... off
 Fernandez-Rico         CNVRico         .... off

SCF Procedure:
 Maximum # iterations   MaxIter         ....   400
 SCF integral mode      SCFMode         .... Direct
   Integral package                     .... SHARK and LIBINT hybrid scheme
 Reset frequency        DirectResetFreq ....    20
 Integral Threshold     Thresh          ....  1.000e-10 Eh
 Primitive CutOff       TCut            ....  1.000e-11 Eh

Convergence Tolerance:
 Convergence Check Mode ConvCheckMode   .... All-Criteria
 Convergence forced     ConvForced      .... 0
 Energy Change          TolE            ....  1.000e-06 Eh
 Max Density Change     TolMaxP         ....  1.000e-05
 RMS Density Change     TolRMSP         ....  1.000e-06


Diagonalization of the overlap matrix:
Smallest eigenvalue                        ... 3.248e-04
Time for diagonalization                   ...    0.076 sec
Threshold for overlap eigenvalues          ... 1.000e-08
Number of eigenvalues below threshold      ... 0
Time for construction of square roots      ...    0.063 sec
Total time needed                          ...    0.141 sec

Time for model grid setup =    0.567 sec

------------------------------
INITIAL GUESS: MODEL POTENTIAL
------------------------------
Loading Hartree-Fock densities                     ... done
  calling /home/ehlert/src/miniconda3/envs/orca500/Programs/ORCA501/orca scan_atom79.inp > scan_atom79.out in order to generate an atomic fitting density for atom 0 (Au with ECP) on-the-fly... 
    atom 0 (Au), assumed electronic state with S=2: 1s2 2s2 2p6 3s2 3p6 4s2 3d10 4p6 5s2 4d10 5p6 6s1 4f14 5d10           ... done
Calculating cut-offs                               ... done
Initializing the effective Hamiltonian             ... done
Setting up the integral package (SHARK)            ... done
Starting the Coulomb interaction                   ... done (   0.7 sec)
Reading the grid                                   ... done
Mapping shells                                     ... done
Starting the XC term evaluation                    ... done (   0.5 sec)
  promolecular density results
     # of electrons  =    973.013075352
     EX              =  -4440.477103131
     EC              =    -59.207384351
     EX+EC           =  -4499.684487482
Transforming the Hamiltonian                       ... done (   0.0 sec)
Diagonalizing the Hamiltonian                      ... done (   0.1 sec)
Back transforming the eigenvectors                 ... done (   0.0 sec)
Now organizing SCF variables                       ... done
                      ------------------
                      INITIAL GUESS DONE (   2.7 sec)
                      ------------------
-------------------
DFT GRID GENERATION
-------------------

General Integration Accuracy     IntAcc      ... 4.388
Radial Grid Type                 RadialGrid  ... OptM3 with GC (2021)
Angular Grid (max. ang.)         AngularGrid ... 4 (Lebedev-302)
Angular grid pruning method      GridPruning ... 4 (adaptive)
Weight generation scheme         WeightScheme... Becke
Basis function cutoff            BFCut       ... 1.0000e-10
Integration weight cutoff        WCut        ... 1.0000e-14
Angular grids for H and He will be reduced by one unit
Partially contracted basis set               ... off
Rotationally invariant grid construction     ... off

Total number of grid points                  ...   144751
Total number of batches                      ...     2268
Average number of points per batch           ...       63
Average number of grid points per atom       ...    11135
Time for grid setup =    1.627 sec

--------------
SCF ITERATIONS
--------------
ITER       Energy         Delta-E        Max-DP      RMS-DP      [F,P]   Gradient Norm
               ***  Starting incremental Fock matrix formation  ***
                             ****Resetting KDIIS****
                             ****Turning on KDIIS(Cayley)****
  0  -2779.0371792592   0.000000000000 0.15763987  0.00125167  0.4003763   0.224516643
  1  -2780.1501204070  -1.112941147895 0.43435786  0.00162630  0.3585059   0.170678699
  2  -2780.6416969633  -0.491576556290 0.10558538  0.00135141  0.2836898   0.128213354
  3  -2780.8933030449  -0.251606081594 0.15799392  0.00150224  0.1659312   0.074406173
  4  -2780.9781629285  -0.084859883527 0.10450601  0.00046787  0.0432974   0.020607659
  5  -2781.0128396614  -0.034676732917 0.15300125  0.00049886  0.0204835   0.006949727
  6  -2781.0283745353  -0.015534873930 0.04463566  0.00049976  0.0232836   0.005817362
  7  -2781.0400287958  -0.011654260494 0.03810531  0.00024377  0.0123830   0.005133688
  8  -2781.0415066751  -0.001477879268 0.03425250  0.00016785  0.0148056   0.007494671
  9  -2781.0471376169  -0.005630941844 0.01087054  0.00015331  0.0091892   0.002004416
 10  -2781.0497744308  -0.002636813936 0.02451907  0.00012965  0.0073529   0.002094556
 11  -2781.0520206429  -0.002246212048 0.01825660  0.00012327  0.0063680   0.001290442
 12  -2781.0540099155  -0.001989272628 0.00962542  0.00006908  0.0069167   0.001276871
 13  -2781.0551094417  -0.001099526157 0.00601003  0.00002699  0.0068543   0.001155203
 14  -2781.0553174755  -0.000208033817 0.00379113  0.00003315  0.0078923   0.001159015
 15  -2781.0558820123  -0.000564536816 0.00592469  0.00003269  0.0073244   0.001035709
 16  -2781.0553674026   0.000514609680 0.00699447  0.00005755  0.0068380   0.001069223
 17  -2781.0545078589   0.000859543773 0.00315111  0.00003548  0.0072698   0.001163486
 18  -2781.0548161613  -0.000308302456 0.00574219  0.00003456  0.0077362   0.001295840
 19  -2781.0548356880  -0.000019526725 0.00368258  0.00004917  0.0070974   0.001307192
               *** Restarting incremental Fock matrix formation ***
                             ****Resetting KDIIS****
 20  -2781.0544845552   0.000351132810 0.00110646  0.00001204  0.0081436   0.001192541
 21  -2781.0546846148  -0.000200059612 0.00367013  0.00002377  0.0075847   0.001027404
 22  -2781.0550361623  -0.000351547424 0.00795830  0.00004748  0.0077351   0.000992629
 23  -2781.0557321488  -0.000695986582 0.00483734  0.00003597  0.0076933   0.000965259
 24  -2781.0552497082   0.000482440628 0.02330225  0.00013804  0.0072161   0.000981440
 25  -2781.0533037779   0.001945930317 0.01748058  0.00014730  0.0069768   0.000953024
 26  -2781.0512903569   0.002013421017 0.01397311  0.00009868  0.0063513   0.000975226
 27  -2781.0526570978  -0.001366740905 0.01723883  0.00016263  0.0081384   0.001129242
 28  -2781.0506151390   0.002041958839 0.00191720  0.00001942  0.0061617   0.001095523
 29  -2781.0507237449  -0.000108605965 0.01334071  0.00012325  0.0061979   0.001010372
 30  -2781.0524243734  -0.001700628462 0.00678050  0.00004201  0.0075400   0.000983093
 31  -2781.0529758376  -0.000551464233 0.00380263  0.00002440  0.0075756   0.000937613
 32  -2781.0527139290   0.000261908583 0.00622335  0.00003346  0.0074980   0.001006132
 33  -2781.0532112012  -0.000497272211 0.00535610  0.00003717  0.0077812   0.000974759
 34  -2781.0534656803  -0.000254479092 0.00975764  0.00006403  0.0078497   0.001001272
 35  -2781.0542407358  -0.000775055441 0.00197253  0.00002382  0.0062913   0.001163029
 36  -2781.0545731881  -0.000332452348 0.00259302  0.00003363  0.0075795   0.000937407
 37  -2781.0550214431  -0.000448254993 0.00203985  0.00002342  0.0077538   0.001021285
 38  -2781.0553205649  -0.000299121746 0.00305905  0.00001431  0.0076175   0.001047872
 39  -2781.0555023241  -0.000181759197 0.00672357  0.00004278  0.0077228   0.001000304
               *** Restarting incremental Fock matrix formation ***
                             ****Resetting KDIIS****
 40  -2781.0559558284  -0.000453504385 0.00280324  0.00001176  0.0076993   0.000981404
 41  -2781.0561183474  -0.000162518913 0.00510125  0.00002578  0.0076278   0.000954061
 42  -2781.0564736794  -0.000355332087 0.00602754  0.00002484  0.0077072   0.000945228
 43  -2781.0567968363  -0.000323156804 0.05660142  0.00045030  0.0080903   0.000959747
 44  -2781.0504635518   0.006333284417 0.00966275  0.00008115  0.0062012   0.001395332
 45  -2781.0493694435   0.001094108356 0.02119517  0.00017983  0.0067142   0.001414954
 46  -2781.0519178920  -0.002548448552 0.01094300  0.00009768  0.0073668   0.000948819
 47  -2781.0507467373   0.001171154752 0.00813542  0.00005759  0.0068311   0.001770477
 48  -2781.0514267266  -0.000679989289 0.02757160  0.00016954  0.0064903   0.001415624
 49  -2781.0537443501  -0.002317623530 0.02252772  0.00021484  0.0071906   0.000912479
 50  -2781.0506827179   0.003061632196 0.02733538  0.00021504  0.0068134   0.001208181
 51  -2781.0476823145   0.003000403437 0.05252073  0.00045518  0.0076335   0.001856979
 52  -2781.0542135089  -0.006531194474 0.01236702  0.00009535  0.0077523   0.000993557
 53  -2781.0530165782   0.001196930745 0.00284678  0.00002982  0.0077058   0.000968132
 54  -2781.0534117629  -0.000395184736 0.00277998  0.00002177  0.0076932   0.000997764
 55  -2781.0531383616   0.000273401323 0.00766853  0.00003682  0.0076549   0.000997187
 56  -2781.0533905411  -0.000252179518 0.01264802  0.00010750  0.0075705   0.001127541
 57  -2781.0548065527  -0.001416011612 0.00137012  0.00001335  0.0060668   0.001267972
 58  -2781.0549346176  -0.000128064909 0.09468171  0.00073316  0.0075875   0.000958988
 59  -2781.0435608378   0.011373779858 0.06596849  0.00047335  0.0118534   0.003444309
               *** Restarting incremental Fock matrix formation ***
                             ****Resetting KDIIS****
 60  -2781.0506853356  -0.007124497764 0.00267605  0.00002009  0.0065277   0.002034781
 61  -2781.0510329203  -0.000347584706 0.00246497  0.00002420  0.0059094   0.001353981
 62  -2781.0513943791  -0.000361458891 0.00505504  0.00004466  0.0059042   0.001154544
 63  -2781.0520565223  -0.000662143177 0.00501089  0.00004587  0.0064338   0.001011954
 64  -2781.0526640432  -0.000607520918 0.01740579  0.00016367  0.0071802   0.000993391
 65  -2781.0502706798   0.002393363438 0.01091829  0.00005756  0.0065419   0.000979647
 66  -2781.0508295806  -0.000558900826 0.02087672  0.00017396  0.0079536   0.001377385
 67  -2781.0487006133   0.002128967281 0.00522372  0.00004332  0.0060278   0.000976697
 68  -2781.0493088870  -0.000608273609 0.00160451  0.00001019  0.0067146   0.000901195
 69  -2781.0494122165  -0.000103329521 0.01506555  0.00012732  0.0065991   0.000879625
 70  -2781.0511371684  -0.001724951882 0.00362188  0.00003487  0.0074866   0.000907052
 71  -2781.0508232942   0.000313874124 0.00091863  0.00000665  0.0073552   0.000954133
 72  -2781.0508991647  -0.000075870425 0.00146864  0.00001632  0.0074330   0.000942819
 73  -2781.0509852160  -0.000086051364 0.00927742  0.00007903  0.0076867   0.000966136
 74  -2781.0498610577   0.001124158315 0.01452826  0.00012955  0.0071196   0.001034170
 75  -2781.0515937475  -0.001732689740 0.00550375  0.00005638  0.0064687   0.001337050
 76  -2781.0509381106   0.000655636851 0.00113544  0.00001667  0.0075841   0.000986259
 77  -2781.0508559473   0.000082163334 0.00235806  0.00002517  0.0076955   0.000992888
 78  -2781.0506583643   0.000197583016 0.00710093  0.00007099  0.0073587   0.000921675
 79  -2781.0515048662  -0.000846501976 0.00544493  0.00004894  0.0072120   0.001043443
               *** Restarting incremental Fock matrix formation ***
                             ****Resetting KDIIS****
 80  -2781.0518949074  -0.000390041177 0.00101781  0.00000983  0.0078040   0.000982769
 81  -2781.0520412379  -0.000146330488 0.00227084  0.00002099  0.0075951   0.000912670
 82  -2781.0523336135  -0.000292375607 0.00381213  0.00003287  0.0076954   0.000887391
 83  -2781.0527838596  -0.000450246093 0.03770251  0.00031304  0.0078529   0.000887989
 84  -2781.0483592305   0.004424629108 0.09803626  0.00067752  0.0077675   0.001487943
Warning: badly conditioned DIIS matrix, 1 vectors out of 5 destroyed
 85  -2781.0391393759   0.009219854565 0.13033176  0.00089975  0.0171338   0.005495658
 86  -2781.0521254501  -0.012986074229 0.04509960  0.00034624  0.0063085   0.001285700
 87  -2781.0470544071   0.005071043004 0.05518519  0.00045465  0.0090336   0.003043535
 88  -2781.0523884866  -0.005334079405 0.09726177  0.00051125  0.0120256   0.004537654
 89  -2781.0564004001  -0.004011913577 0.02631001  0.00011756  0.0178866   0.007114682
 90  -2781.0568858306  -0.000485430423 0.12133536  0.00056087  0.0194939   0.007867240
 91  -2781.0548513877   0.002034442807 0.18682920  0.00086717  0.0101175   0.001604132
 92  -2781.0658547289  -0.011003341173 0.07778129  0.00030798  0.0072053   0.002781683
 93  -2781.0626988976   0.003155831335 0.04061195  0.00021104  0.0082593   0.001632949
 94  -2781.0598814949   0.002817402690 0.01412171  0.00007813  0.0094985   0.001497716
 95  -2781.0588711531   0.001010341764 0.00994160  0.00005763  0.0093677   0.001287579
 96  -2781.0596192190  -0.000748065891 0.01044984  0.00006196  0.0083614   0.001306617
 97  -2781.0600460402  -0.000426821147 0.00457338  0.00005804  0.0093594   0.001773893
 98  -2781.0601316874  -0.000085647215 0.01366631  0.00007120  0.0056813   0.002170974
 99  -2781.0611697380  -0.001038050620 0.00754647  0.00003992  0.0087518   0.001150624
               *** Restarting incremental Fock matrix formation ***
                             ****Resetting KDIIS****
100  -2781.0616994984  -0.000529760429 0.00232769  0.00001381  0.0081266   0.001106305
101  -2781.0618890303  -0.000189531842 0.00593769  0.00003040  0.0080493   0.001045515
102  -2781.0622974685  -0.000408438275 0.01451774  0.00006808  0.0079966   0.001028367
103  -2781.0613811468   0.000916321698 0.03193460  0.00019277  0.0078877   0.001034806
104  -2781.0588964916   0.002484655279 0.01845491  0.00011307  0.0082797   0.000960011
105  -2781.0602484271  -0.001351935566 0.00463992  0.00003105  0.0065804   0.001250913
106  -2781.0599598273   0.000288599846 0.01021562  0.00004618  0.0084697   0.000962159
107  -2781.0605122469  -0.000552419567 0.01683832  0.00008308  0.0083268   0.000944941
108  -2781.0615050996  -0.000992852707 0.02656812  0.00011633  0.0083385   0.000945179
109  -2781.0628608446  -0.001355745003 0.16898376  0.00070084  0.0082272   0.000938851
110  -2781.0701620591  -0.007301214510 0.21141345  0.00076786  0.0049478   0.001315437
111  -2781.0757798806  -0.005617821492 0.27913928  0.00117425  0.0061025   0.001773158
112  -2781.0676230090   0.008156871562 0.23632028  0.00108319  0.0134782   0.007899029
113  -2781.0762425277  -0.008619518717 0.05215991  0.00018851  0.0032209   0.001883924
114  -2781.0751912915   0.001051236173 0.04016723  0.00016765  0.0030979   0.001725543
115  -2781.0762336788  -0.001042387262 0.05320391  0.00018353  0.0027107   0.001157377
116  -2781.0771482457  -0.000914566921 0.00245396  0.00002039  0.0021774   0.000754851
117  -2781.0772613934  -0.000113147649 0.04884797  0.00023318  0.0021748   0.000774297
118  -2781.0780876819  -0.000826288512 0.01268120  0.00005417  0.0024341   0.000673862
119  -2781.0780733984   0.000014283460 0.00245547  0.00001017  0.0026454   0.000424598
               *** Restarting incremental Fock matrix formation ***
                             ****Resetting KDIIS****
120  -2781.0781036900  -0.000030291603 0.00053198  0.00000492  0.0026164   0.000399215
121  -2781.0781269586  -0.000023268551 0.00111018  0.00001013  0.0026862   0.000365220
122  -2781.0781722621  -0.000045303496 0.00263438  0.00002717  0.0028210   0.000352273
123  -2781.0780540802   0.000118181840 0.01160183  0.00011386  0.0024757   0.000430347
124  -2781.0777574011   0.000296679143 0.00244253  0.00002303  0.0014410   0.000377743
125  -2781.0777308228   0.000026578251 0.00386632  0.00003025  0.0014238   0.000330859
126  -2781.0777593547  -0.000028531852 0.00495171  0.00002718  0.0011672   0.000210243
127  -2781.0777983176  -0.000038962849 0.00419592  0.00003841  0.0011080   0.000365064
128  -2781.0778414688  -0.000043151279 0.00360809  0.00002608  0.0009555   0.000302957
129  -2781.0778696850  -0.000028216145 0.00197154  0.00001514  0.0008348   0.000162288
130  -2781.0778975111  -0.000027826159 0.00119905  0.00000785  0.0006856   0.000144862
131  -2781.0779076970  -0.000010185852 0.00204361  0.00001677  0.0006565   0.000132197
132  -2781.0779300388  -0.000022341817 0.00228509  0.00001346  0.0006510   0.000155233
133  -2781.0779545906  -0.000024551840 0.00012383  0.00000109  0.0007642   0.000138399
134  -2781.0779556767  -0.000001086056 0.00337667  0.00002235  0.0007677   0.000141966
135  -2781.0779252956   0.000030381101 0.00180265  0.00001453  0.0006505   0.000132882
136  -2781.0779471369  -0.000021841284 0.00108584  0.00000615  0.0007587   0.000133279
137  -2781.0779556782  -0.000008541295 0.00036768  0.00000327  0.0008086   0.000146503
138  -2781.0779583258  -0.000002647637 0.00017759  0.00000192  0.0008175   0.000152904
139  -2781.0779596025  -0.000001276733 0.00046257  0.00000456  0.0008374   0.000155229
               *** Restarting incremental Fock matrix formation ***
                             ****Resetting KDIIS****
140  -2781.0779572457   0.000002356864 0.00023451  0.00000210  0.0008509   0.000175613
141  -2781.0779637089  -0.000006463169 0.00046519  0.00000393  0.0008766   0.000140952
142  -2781.0779711531  -0.000007444274 0.00034279  0.00000332  0.0009243   0.000136056
143  -2781.0779665911   0.000004562053 0.00598167  0.00005293  0.0009135   0.000154909
144  -2781.0779046333   0.000061957810 0.00130203  0.00000898  0.0005807   0.000117644
145  -2781.0779092401  -0.000004606827 0.00178925  0.00000925  0.0005479   0.000120695
146  -2781.0779135345  -0.000004294423 0.00140943  0.00001194  0.0005150   0.000090694
147  -2781.0779288476  -0.000015313072 0.00374253  0.00003611  0.0005443   0.000157263
148  -2781.0779554094  -0.000026561835 0.00145133  0.00001360  0.0002459   0.000142783
149  -2781.0779540629   0.000001346508 0.00117927  0.00000886  0.0002967   0.000088313
150  -2781.0779633541  -0.000009291231 0.00058942  0.00000476  0.0003179   0.000082878
151  -2781.0779667270  -0.000003372907 0.00025945  0.00000188  0.0003257   0.000058094
152  -2781.0779681848  -0.000001457780 0.00018289  0.00000174  0.0003309   0.000055800
153  -2781.0779699203  -0.000001735481 0.00083099  0.00000701  0.0003364   0.000056603
154  -2781.0779771434  -0.000007223076 0.00078980  0.00000993  0.0003603   0.000065886
155  -2781.0779692502   0.000007893167 0.00031053  0.00000246  0.0003563   0.000061350
156  -2781.0779716861  -0.000002435857 0.00034409  0.00000376  0.0003663   0.000068781
                          ***Energy convergence achieved***
157  -2781.0779723303  -0.000000644194 0.00037486  0.00000186  0.0003934   0.000070980
158  -2781.0779740348  -0.000001704550 0.00054469  0.00000499  0.0003885   0.000065081
                          ***Energy convergence achieved***
159  -2781.0779740807  -0.000000045928 0.00047834  0.00000430  0.0004111   0.000103004
               *** Restarting incremental Fock matrix formation ***
                             ****Resetting KDIIS****
                           ***RMSP convergence achieved***
160  -2781.0779751614  -0.000001080687 0.00012407  0.00000088  0.0004376   0.000074544
                          ***Energy convergence achieved***
161  -2781.0779760480  -0.000000886535 0.00020694  0.00000180  0.0004460   0.000067241
162  -2781.0779776583  -0.000001610319 0.00097773  0.00000432  0.0004663   0.000063488
163  -2781.0779720033   0.000005654988 0.00406467  0.00002694  0.0004233   0.000080467
164  -2781.0779599236   0.000012079684 0.00126106  0.00000423  0.0002267   0.000074609
                          ***Energy convergence achieved***
165  -2781.0779594950   0.000000428665 0.00338594  0.00000742  0.0001944   0.000040428
166  -2781.0779627469  -0.000003251996 0.00041785  0.00000318  0.0001808   0.000041514
167  -2781.0779647193  -0.000001972372 0.00120602  0.00001158  0.0001856   0.000041812
168  -2781.0779742641  -0.000009544826 0.00026588  0.00000218  0.0002127   0.000047471
                          ***Energy convergence achieved***
169  -2781.0779741242   0.000000139909 0.00033571  0.00000153  0.0002283   0.000035875
170  -2781.0779738507   0.000000273489 0.00012640  0.00000111  0.0002196   0.000036967
171  -2781.0779734118   0.000000438938 0.00026744  0.00000257  0.0002164   0.000036403
172  -2781.0779750775  -0.000001665673 0.00011557  0.00000101  0.0002288   0.000037213
                          ***Energy convergence achieved***
173  -2781.0779756089  -0.000000531446 0.00045965  0.00000207  0.0002340   0.000038572
174  -2781.0779756060   0.000000002973 0.00329546  0.00001314  0.0002346   0.000044714
175  -2781.0779719474   0.000003658517 0.00235328  0.00000584  0.0002521   0.000063906
176  -2781.0779741516  -0.000002204144 0.00138963  0.00000659  0.0002308   0.000061998
177  -2781.0779778834  -0.000003731780 0.00099308  0.00000951  0.0002497   0.000066145
178  -2781.0779766393   0.000001244100 0.00045869  0.00000406  0.0002687   0.000043397
                           ***RMSP convergence achieved***
179  -2781.0779782835  -0.000001644231 0.00005754  0.00000052  0.0002714   0.000039627
               *** Restarting incremental Fock matrix formation ***
                             ****Resetting KDIIS****
                          ***Energy convergence achieved***
180  -2781.0779780029   0.000000280634 0.00005847  0.00000047  0.0002698   0.000039112
181  -2781.0779777969   0.000000205993 0.00019347  0.00000101  0.0002727   0.000035558
182  -2781.0779781270  -0.000000330122 0.00039414  0.00000110  0.0002785   0.000034968
183  -2781.0779782626  -0.000000135598 0.00216121  0.00001809  0.0002767   0.000039375
184  -2781.0779694968   0.000008765827 0.00031901  0.00000179  0.0001711   0.000031763
                          ***Energy convergence achieved***
185  -2781.0779704909  -0.000000994150 0.00042784  0.00000318  0.0001764   0.000027068
                           ***RMSP convergence achieved***
186  -2781.0779720610  -0.000001570077 0.00006533  0.00000083  0.0001862   0.000026777
                          ***Energy convergence achieved***
187  -2781.0779725431  -0.000000482114 0.00009088  0.00000089  0.0001892   0.000026477
188  -2781.0779720587   0.000000484375 0.00014080  0.00000051  0.0001839   0.000026838
189  -2781.0779716466   0.000000412120 0.00031920  0.00000130  0.0001823   0.000027082
                           ***RMSP convergence achieved***

            ***Energy convergence in two consecutive cycles with***
                    ***'reasonable' density convergence***
                       *** signaling convergence ***

                    *** KDIIS BlockDiag ( 0.177 sec) ***

               *****************************************************
               *                     SUCCESS                       *
               *           SCF CONVERGED AFTER 190 CYCLES          *
               *****************************************************


----------------
TOTAL SCF ENERGY
----------------

Total Energy       :        -2781.07797197 Eh          -75676.97896 eV

Components:
Nuclear Repulsion  :         4340.24932686 Eh          118104.18848 eV
Electronic Energy  :        -7121.32729883 Eh         -193781.16745 eV
One Electron Energy:       -13123.13606169 Eh         -357098.68679 eV
Two Electron Energy:         6001.80876286 Eh          163317.51934 eV

Virial components:
Potential Energy   :        -4480.85881662 Eh         -121930.36722 eV
Kinetic Energy     :         1699.78084465 Eh           46253.38826 eV
Virial Ratio       :            2.63613914


DFT components:
N(Alpha)           :      128.999971974747 electrons
N(Beta)            :      123.999974509279 electrons
N(Total)           :      252.999946484026 electrons
E(X)               :     -196.741451773870 Eh       
E(C)               :      -10.481933060469 Eh       
E(XC)              :     -207.223384834340 Eh       
DFET-embed. en.    :        0.000000000000 Eh       

---------------
SCF CONVERGENCE
---------------

  Last Energy change         ...   -3.2463e-07  Tolerance :   1.0000e-06
  Last MAX-Density change    ...    9.0203e-05  Tolerance :   1.0000e-05
  Last RMS-Density change    ...    8.3606e-07  Tolerance :   1.0000e-06

             **** THE GBW FILE WAS UPDATED (scan.gbw) ****
             **** DENSITY scan.scfp WAS UPDATED ****
             **** ENERGY FILE WAS UPDATED (scan.en.tmp) ****
----------------------
UHF SPIN CONTAMINATION
----------------------

Warning: in a DFT calculation there is little theoretical justification to 
         calculate <S**2> as in Hartree-Fock theory. We will do it anyways
         but you should keep in mind that the values have only limited relevance

Expectation value of <S**2>     :    10.218064
Ideal value S*(S+1) for S=2.5   :     8.750000
Deviation                       :     1.468064

             **** THE GBW FILE WAS UPDATED (scan.gbw) ****
             **** DENSITY scan.scfp WAS UPDATED ****
----------------
ORBITAL ENERGIES
----------------
                 SPIN UP ORBITALS
  NO   OCC          E(Eh)            E(eV) 
   0   1.0000    -235.037376     -6395.6922 
   1   1.0000     -27.216249      -740.5918 
   2   1.0000     -23.265313      -633.0814 
   3   1.0000     -23.263571      -633.0339 
   4   1.0000     -23.260803      -632.9586 
   5   1.0000      -4.124250      -112.2266 
   6   1.0000      -4.124175      -112.2245 
   7   1.0000      -4.122313      -112.1738 
   8   1.0000      -4.122179      -112.1702 
   9   1.0000      -4.122066      -112.1671 
  10   1.0000      -4.121634      -112.1554 
  11   1.0000      -4.120856      -112.1342 
  12   1.0000      -4.120712      -112.1303 
  13   1.0000      -4.119539      -112.0984 
  14   1.0000      -4.119353      -112.0933 
  15   1.0000      -4.117482      -112.0424 
  16   1.0000      -4.117372      -112.0394 
  17   1.0000      -3.236676       -88.0744 
  18   1.0000      -2.314711       -62.9865 
  19   1.0000      -2.314426       -62.9787 
  20   1.0000      -2.313609       -62.9565 
  21   1.0000      -2.313396       -62.9507 
  22   1.0000      -2.311533       -62.9000 
  23   1.0000      -2.310439       -62.8702 
  24   1.0000      -2.309626       -62.8481 
  25   1.0000      -2.309410       -62.8422 
  26   1.0000      -2.309226       -62.8372 
  27   1.0000      -2.308759       -62.8245 
  28   1.0000      -2.308500       -62.8175 
  29   1.0000      -2.308455       -62.8162 
  30   1.0000      -2.308149       -62.8079 
  31   1.0000      -2.307856       -62.8000 
  32   1.0000      -2.307731       -62.7966 
  33   1.0000      -2.307511       -62.7906 
  34   1.0000      -2.307479       -62.7897 
  35   1.0000      -2.307234       -62.7830 
  36   1.0000      -2.307039       -62.7777 
  37   1.0000      -2.306785       -62.7708 
  38   1.0000      -2.305385       -62.7327 
  39   1.0000      -2.305200       -62.7277 
  40   1.0000      -2.304563       -62.7103 
  41   1.0000      -2.304380       -62.7054 
  42   1.0000      -2.304029       -62.6958 
  43   1.0000      -2.303888       -62.6920 
  44   1.0000      -2.303644       -62.6853 
  45   1.0000      -2.303486       -62.6810 
  46   1.0000      -2.303440       -62.6798 
  47   1.0000      -2.303160       -62.6722 
  48   1.0000      -2.303078       -62.6699 
  49   1.0000      -2.302706       -62.6598 
  50   1.0000      -2.300547       -62.6011 
  51   1.0000      -2.300334       -62.5953 
  52   1.0000      -2.299774       -62.5800 
  53   1.0000      -2.299692       -62.5778 
  54   1.0000      -2.096536       -57.0497 
  55   1.0000      -2.094796       -57.0023 
  56   1.0000      -2.088782       -56.8387 
  57   1.0000      -0.435972       -11.8634 
  58   1.0000      -0.402495       -10.9525 
  59   1.0000      -0.389858       -10.6086 
  60   1.0000      -0.389142       -10.5891 
  61   1.0000      -0.387692       -10.5496 
  62   1.0000      -0.383486       -10.4352 
  63   1.0000      -0.379578       -10.3288 
  64   1.0000      -0.370570       -10.0837 
  65   1.0000      -0.368881       -10.0378 
  66   1.0000      -0.366337        -9.9685 
  67   1.0000      -0.361896        -9.8477 
  68   1.0000      -0.361392        -9.8340 
  69   1.0000      -0.358336        -9.7508 
  70   1.0000      -0.357931        -9.7398 
  71   1.0000      -0.350190        -9.5292 
  72   1.0000      -0.350144        -9.5279 
  73   1.0000      -0.345926        -9.4131 
  74   1.0000      -0.344874        -9.3845 
  75   1.0000      -0.342760        -9.3270 
  76   1.0000      -0.338851        -9.2206 
  77   1.0000      -0.338695        -9.2164 
  78   1.0000      -0.337152        -9.1744 
  79   1.0000      -0.335591        -9.1319 
  80   1.0000      -0.334495        -9.1021 
  81   1.0000      -0.329267        -8.9598 
  82   1.0000      -0.327985        -8.9249 
  83   1.0000      -0.326720        -8.8905 
  84   1.0000      -0.319367        -8.6904 
  85   1.0000      -0.317573        -8.6416 
  86   1.0000      -0.314267        -8.5516 
  87   1.0000      -0.309231        -8.4146 
  88   1.0000      -0.306906        -8.3513 
  89   1.0000      -0.305774        -8.3205 
  90   1.0000      -0.302660        -8.2358 
  91   1.0000      -0.298594        -8.1252 
  92   1.0000      -0.298132        -8.1126 
  93   1.0000      -0.297908        -8.1065 
  94   1.0000      -0.297738        -8.1018 
  95   1.0000      -0.291002        -7.9186 
  96   1.0000      -0.290813        -7.9134 
  97   1.0000      -0.288506        -7.8506 
  98   1.0000      -0.286565        -7.7978 
  99   1.0000      -0.284668        -7.7462 
 100   1.0000      -0.283655        -7.7186 
 101   1.0000      -0.282426        -7.6852 
 102   1.0000      -0.281632        -7.6636 
 103   1.0000      -0.280206        -7.6248 
 104   1.0000      -0.279019        -7.5925 
 105   1.0000      -0.276413        -7.5216 
 106   1.0000      -0.275816        -7.5053 
 107   1.0000      -0.275153        -7.4873 
 108   1.0000      -0.273533        -7.4432 
 109   1.0000      -0.271000        -7.3743 
 110   1.0000      -0.270835        -7.3698 
 111   1.0000      -0.270239        -7.3536 
 112   1.0000      -0.267750        -7.2858 
 113   1.0000      -0.267128        -7.2689 
 114   1.0000      -0.265028        -7.2118 
 115   1.0000      -0.262457        -7.1418 
 116   1.0000      -0.260313        -7.0835 
 117   1.0000      -0.258000        -7.0205 
 118   1.0000      -0.257176        -6.9981 
 119   1.0000      -0.256509        -6.9800 
 120   1.0000      -0.254436        -6.9236 
 121   1.0000      -0.251812        -6.8522 
 122   1.0000      -0.250585        -6.8188 
 123   1.0000      -0.245918        -6.6918 
 124   1.0000      -0.245685        -6.6854 
 125   1.0000      -0.234568        -6.3829 
 126   1.0000      -0.215066        -5.8522 
 127   1.0000      -0.210007        -5.7146 
 128   1.0000      -0.186347        -5.0708 
 129   0.0000      -0.179098        -4.8735 
 130   0.0000      -0.144593        -3.9346 
 131   0.0000      -0.130007        -3.5377 
 132   0.0000      -0.122571        -3.3353 
 133   0.0000      -0.114909        -3.1268 
 134   0.0000      -0.107848        -2.9347 
 135   0.0000      -0.082848        -2.2544 
 136   0.0000      -0.059995        -1.6325 
 137   0.0000      -0.053774        -1.4633 
 138   0.0000      -0.050668        -1.3787 
 139   0.0000      -0.038052        -1.0355 
 140   0.0000      -0.027010        -0.7350 
 141   0.0000      -0.022460        -0.6112 
 142   0.0000      -0.022276        -0.6062 
 143   0.0000      -0.019663        -0.5351 
 144   0.0000      -0.002190        -0.0596 
 145   0.0000       0.009122         0.2482 
 146   0.0000       0.011222         0.3054 
 147   0.0000       0.035819         0.9747 
 148   0.0000       0.047737         1.2990 
 149   0.0000       0.050025         1.3613 
 150   0.0000       0.053935         1.4676 
 151   0.0000       0.056973         1.5503 
 152   0.0000       0.057337         1.5602 
 153   0.0000       0.067544         1.8380 
 154   0.0000       0.067594         1.8393 
 155   0.0000       0.075156         2.0451 
 156   0.0000       0.075582         2.0567 
 157   0.0000       0.081903         2.2287 
 158   0.0000       0.084185         2.2908 
 159   0.0000       0.089081         2.4240 
 160   0.0000       0.099088         2.6963 
 161   0.0000       0.102247         2.7823 
 162   0.0000       0.107312         2.9201 
 163   0.0000       0.112588         3.0637 
 164   0.0000       0.115001         3.1293 
 165   0.0000       0.122178         3.3246 
 166   0.0000       0.130390         3.5481 
 167   0.0000       0.132951         3.6178 
 168   0.0000       0.139516         3.7964 
 169   0.0000       0.154848         4.2136 
 170   0.0000       0.161156         4.3853 
 171   0.0000       0.162707         4.4275 
 172   0.0000       0.168799         4.5932 
 173   0.0000       0.170840         4.6488 
 174   0.0000       0.184544         5.0217 
 175   0.0000       0.187311         5.0970 
 176   0.0000       0.189644         5.1605 
 177   0.0000       0.196657         5.3513 
 178   0.0000       0.199776         5.4362 
 179   0.0000       0.212639         5.7862 
 180   0.0000       0.217730         5.9247 
 181   0.0000       0.219673         5.9776 
 182   0.0000       0.224757         6.1159 
 183   0.0000       0.225972         6.1490 
 184   0.0000       0.230627         6.2757 
 185   0.0000       0.244207         6.6452 
 186   0.0000       0.246414         6.7053 
 187   0.0000       0.249318         6.7843 
 188   0.0000       0.254254         6.9186 
 189   0.0000       0.263830         7.1792 
 190   0.0000       0.267736         7.2855 
 191   0.0000       0.268116         7.2958 
 192   0.0000       0.272048         7.4028 
 193   0.0000       0.277634         7.5548 
 194   0.0000       0.280302         7.6274 
 195   0.0000       0.280405         7.6302 
 196   0.0000       0.282655         7.6914 
 197   0.0000       0.290498         7.9048 
 198   0.0000       0.293756         7.9935 
 199   0.0000       0.306342         8.3360 
 200   0.0000       0.310415         8.4468 
 201   0.0000       0.316137         8.6025 
 202   0.0000       0.320924         8.7328 
 203   0.0000       0.322219         8.7680 
 204   0.0000       0.333638         9.0787 
 205   0.0000       0.347971         9.4688 
 206   0.0000       0.349526         9.5111 
 207   0.0000       0.350329         9.5329 
 208   0.0000       0.355950         9.6859 
 209   0.0000       0.356177         9.6921 
 210   0.0000       0.363136         9.8814 
 211   0.0000       0.363438         9.8897 
 212   0.0000       0.367294         9.9946 
 213   0.0000       0.373087        10.1522 
 214   0.0000       0.380769        10.3613 
 215   0.0000       0.388163        10.5624 
 216   0.0000       0.396485        10.7889 
 217   0.0000       0.412597        11.2273 
 218   0.0000       0.413378        11.2486 
 219   0.0000       0.414864        11.2890 
 220   0.0000       0.429320        11.6824 
 221   0.0000       0.430904        11.7255 
 222   0.0000       0.433984        11.8093 
 223   0.0000       0.436332        11.8732 
 224   0.0000       0.438751        11.9390 
 225   0.0000       0.452733        12.3195 
 226   0.0000       0.462575        12.5873 
 227   0.0000       0.465453        12.6656 
 228   0.0000       0.470674        12.8077 
 229   0.0000       0.473524        12.8852 
 230   0.0000       0.479892        13.0585 
 231   0.0000       0.485070        13.1994 
 232   0.0000       0.492699        13.4070 
 233   0.0000       0.496747        13.5172 
 234   0.0000       0.498711        13.5706 
 235   0.0000       0.507882        13.8202 
 236   0.0000       0.514085        13.9890 
 237   0.0000       0.514299        13.9948 
 238   0.0000       0.518595        14.1117 
 239   0.0000       0.520936        14.1754 
 240   0.0000       0.523240        14.2381 
 241   0.0000       0.526296        14.3212 
 242   0.0000       0.527924        14.3655 
 243   0.0000       0.532486        14.4897 
 244   0.0000       0.545977        14.8568 
 245   0.0000       0.546583        14.8733 
 246   0.0000       0.549289        14.9469 
 247   0.0000       0.557427        15.1684 
 248   0.0000       0.572459        15.5774 
 249   0.0000       0.584595        15.9076 
 250   0.0000       0.584977        15.9180 
 251   0.0000       0.597275        16.2527 
 252   0.0000       0.650736        17.7074 
 253   0.0000       0.660886        17.9836 
 254   0.0000       0.669753        18.2249 
 255   0.0000       0.679153        18.4807 
 256   0.0000       0.685311        18.6482 
 257   0.0000       0.688534        18.7360 
 258   0.0000       0.701386        19.0857 
 259   0.0000       0.705803        19.2059 
 260   0.0000       0.721391        19.6300 
 261   0.0000       0.726571        19.7710 
 262   0.0000       0.727742        19.8029 
 263   0.0000       0.732105        19.9216 
 264   0.0000       0.769526        20.9399 
 265   0.0000       0.773743        21.0546 
 266   0.0000       0.789351        21.4793 
 267   0.0000       0.796439        21.6722 
 268   0.0000       0.803527        21.8651 
 269   0.0000       0.812377        22.1059 
 270   0.0000       0.815873        22.2010 
 271   0.0000       0.816526        22.2188 
 272   0.0000       0.838512        22.8171 
 273   0.0000       0.839949        22.8562 
 274   0.0000       0.852832        23.2067 
 275   0.0000       0.871812        23.7232 
 276   0.0000       0.884986        24.0817 
 277   0.0000       0.912998        24.8439 
 278   0.0000       0.946082        25.7442 
 279   0.0000       0.951208        25.8837 
 280   0.0000       0.960432        26.1347 
 281   0.0000       0.962169        26.1820 
 282   0.0000       0.963731        26.2244 
 283   0.0000       0.977400        26.5964 
 284   0.0000       0.994141        27.0520 
 285   0.0000       1.003216        27.2989 
 286   0.0000       1.038625        28.2624 
 287   0.0000       1.106938        30.1213 
 288   0.0000       1.138178        30.9714 
 289   0.0000       1.140706        31.0402 
 290   0.0000       1.203121        32.7386 
 291   0.0000       1.226478        33.3742 
 292   0.0000       1.227488        33.4017 
 293   0.0000       1.253160        34.1002 
 294   0.0000       1.276116        34.7249 
 295   0.0000       1.276354        34.7314 
 296   0.0000       1.291111        35.1329 
 297   0.0000       1.317151        35.8415 
 298   0.0000       1.320826        35.9415 
 299   0.0000       1.333798        36.2945 
 300   0.0000       1.342361        36.5275 
 301   0.0000       1.354066        36.8460 
 302   0.0000       1.357926        36.9510 
 303   0.0000       1.373122        37.3646 
 304   0.0000       1.377594        37.4862 
 305   0.0000       1.385867        37.7114 
 306   0.0000       1.390245        37.8305 
 307   0.0000       1.405049        38.2333 
 308   0.0000       1.412899        38.4469 
 309   0.0000       1.425945        38.8019 
 310   0.0000       1.434967        39.0474 
 311   0.0000       1.439658        39.1751 
 312   0.0000       1.453393        39.5488 
 313   0.0000       1.457174        39.6517 
 314   0.0000       1.460562        39.7439 
 315   0.0000       1.468905        39.9709 
 316   0.0000       1.473257        40.0894 
 317   0.0000       1.473954        40.1083 
 318   0.0000       1.475453        40.1491 
 319   0.0000       1.480582        40.2887 
 320   0.0000       1.481885        40.3241 
 321   0.0000       1.485148        40.4129 
 322   0.0000       1.491261        40.5793 
 323   0.0000       1.497835        40.7582 
 324   0.0000       1.498555        40.7778 
 325   0.0000       1.503135        40.9024 
 326   0.0000       1.505743        40.9734 
 327   0.0000       1.506088        40.9827 
 328   0.0000       1.513729        41.1906 
 329   0.0000       1.518367        41.3169 
 330   0.0000       1.521010        41.3888 
 331   0.0000       1.522359        41.4255 
 332   0.0000       1.526380        41.5349 
 333   0.0000       1.527576        41.5674 
 334   0.0000       1.533396        41.7258 
 335   0.0000       1.534286        41.7501 
 336   0.0000       1.534867        41.7658 
 337   0.0000       1.538088        41.8535 
 338   0.0000       1.539354        41.8879 
 339   0.0000       1.542813        41.9821 
 340   0.0000       1.542981        41.9867 
 341   0.0000       1.546879        42.0927 
 342   0.0000       1.548241        42.1298 
 343   0.0000       1.550757        42.1982 
 344   0.0000       1.551917        42.2298 
 345   0.0000       1.552300        42.2402 
 346   0.0000       1.556225        42.3470 
 347   0.0000       1.557564        42.3835 
 348   0.0000       1.559072        42.4245 
 349   0.0000       1.559099        42.4253 
 350   0.0000       1.561447        42.4891 
 351   0.0000       1.563975        42.5579 
 352   0.0000       1.564674        42.5769 
 353   0.0000       1.566135        42.6167 
 354   0.0000       1.567489        42.6535 
 355   0.0000       1.573013        42.8039 
 356   0.0000       1.574294        42.8387 
 357   0.0000       1.575330        42.8669 
 358   0.0000       1.575880        42.8819 
 359   0.0000       1.577464        42.9250 
 360   0.0000       1.579738        42.9869 
 361   0.0000       1.582309        43.0568 
 362   0.0000       1.582844        43.0714 
 363   0.0000       1.585489        43.1433 
 364   0.0000       1.585581        43.1458 
 365   0.0000       1.587324        43.1933 
 366   0.0000       1.587537        43.1991 
 367   0.0000       1.591145        43.2972 
 368   0.0000       1.591626        43.3103 
 369   0.0000       1.593897        43.3721 
 370   0.0000       1.595895        43.4265 
 371   0.0000       1.596570        43.4449 
 372   0.0000       1.600458        43.5507 
 373   0.0000       1.601641        43.5829 
 374   0.0000       1.604366        43.6570 
 375   0.0000       1.605171        43.6789 
 376   0.0000       1.611320        43.8462 
 377   0.0000       1.611485        43.8507 
 378   0.0000       1.613374        43.9021 
 379   0.0000       1.613564        43.9073 
 380   0.0000       1.621599        44.1260 
 381   0.0000       1.623639        44.1815 
 382   0.0000       1.623966        44.1904 
 383   0.0000       1.627423        44.2844 
 384   0.0000       1.630795        44.3762 
 385   0.0000       1.634265        44.4706 
 386   0.0000       1.635965        44.5169 
 387   0.0000       1.637343        44.5544 
 388   0.0000       1.640151        44.6308 
 389   0.0000       1.642169        44.6857 
 390   0.0000       1.646727        44.8097 
 391   0.0000       1.650613        44.9155 
 392   0.0000       1.654849        45.0307 
 393   0.0000       1.658946        45.1422 
 394   0.0000       1.662654        45.2431 
 395   0.0000       1.664878        45.3036 
 396   0.0000       1.665706        45.3262 
 397   0.0000       1.668184        45.3936 
 398   0.0000       1.673092        45.5272 
 399   0.0000       1.675322        45.5878 
 400   0.0000       1.683028        45.7975 
 401   0.0000       1.691364        46.0243 
 402   0.0000       1.693401        46.0798 
 403   0.0000       1.695078        46.1254 
 404   0.0000       1.702682        46.3323 
 405   0.0000       1.703031        46.3418 
 406   0.0000       1.710182        46.5364 
 407   0.0000       1.716411        46.7059 
 408   0.0000       1.722317        46.8666 
 409   0.0000       1.733131        47.1609 
 410   0.0000       1.740035        47.3488 
 411   0.0000       1.746126        47.5145 
 412   0.0000       1.759477        47.8778 
 413   0.0000       1.772477        48.2315 
 414   0.0000       1.778672        48.4001 
 415   0.0000       1.779543        48.4238 
 416   0.0000       1.796732        48.8916 
 417   0.0000       1.801485        49.0209 
 418   0.0000       1.811233        49.2862 
 419   0.0000       1.821186        49.5570 
 420   0.0000       1.837686        50.0060 
 421   0.0000       1.845599        50.2213 
 422   0.0000       1.852600        50.4118 
 423   0.0000       1.859850        50.6091 
 424   0.0000       1.871241        50.9191 
 425   0.0000       1.882186        51.2169 
 426   0.0000       1.884462        51.2788 
 427   0.0000       1.894110        51.5414 
 428   0.0000       1.915975        52.1363 
 429   0.0000       1.927284        52.4441 
 430   0.0000       1.938634        52.7529 
 431   0.0000       1.972689        53.6796 
 432   0.0000       1.983534        53.9747 
 433   0.0000       1.992568        54.2205 
 434   0.0000       2.002984        54.5040 
 435   0.0000       2.067504        56.2596 
 436   0.0000       2.164427        58.8970 
 437   0.0000       2.190854        59.6162 
 438   0.0000       2.242625        61.0249 
 439   0.0000       2.325510        63.2803 
 440   0.0000       2.342089        63.7315 
 441   0.0000       2.402766        65.3826 
 442   0.0000       2.473966        67.3200 
 443   0.0000       2.485852        67.6435 
 444   0.0000       2.507279        68.2265 
 445   0.0000       2.529483        68.8307 
 446   0.0000       2.551622        69.4332 
 447   0.0000       2.564856        69.7933 
 448   0.0000       2.575343        70.0787 
 449   0.0000       2.583334        70.2961 
 450   0.0000       2.625491        71.4433 
 451   0.0000       2.661243        72.4161 
 452   0.0000       3.043086        82.8066 
 453   0.0000       3.320115        90.3449 
 454   0.0000       3.327985        90.5591 
 455   0.0000       3.331447        90.6533 
 456   0.0000       3.338495        90.8451 
 457   0.0000       3.342916        90.9654 
 458   0.0000       3.357770        91.3696 
 459   0.0000       3.362188        91.4898 
 460   0.0000       3.385505        92.1243 
 461   0.0000       3.532845        96.1336 
 462   0.0000       3.542812        96.4048 
 463   0.0000       3.556216        96.7695 
 464   0.0000       3.605633        98.1143 
 465   0.0000      24.142123       656.9406 
 466   0.0000      24.159182       657.4048 
 467   0.0000      24.448549       665.2789 
 468   0.0000      24.628488       670.1752 
 469   0.0000      24.713265       672.4821 
 470   0.0000      24.735189       673.0787 
 471   0.0000      24.930956       678.4058 
 472   0.0000      25.079720       682.4539 
 473   0.0000      25.269262       687.6116 
 474   0.0000      25.484253       693.4618 
 475   0.0000      25.536110       694.8729 
 476   0.0000      25.625250       697.2985 
 477   0.0000      25.778940       701.4806 
 478   0.0000      25.804962       702.1887 
 479   0.0000      26.134338       711.1515 
 480   0.0000      26.157196       711.7735 
 481   0.0000      26.314796       716.0620 
 482   0.0000      26.373908       717.6705 
 483   0.0000      26.507500       721.3057 
 484   0.0000      26.651938       725.2361 
 485   0.0000      26.656151       725.3507 
 486   0.0000      26.974039       734.0009 
 487   0.0000      27.078576       736.8455 
 488   0.0000      27.125765       738.1296 
 489   0.0000      27.315326       743.2878 
 490   0.0000      27.359242       744.4828 
 491   0.0000      27.519396       748.8408 
 492   0.0000      28.034767       762.8648 
 493   0.0000      28.226791       768.0900 
 494   0.0000      28.514006       775.9055 
 495   0.0000      28.627989       779.0072 
 496   0.0000      28.695931       780.8560 
 497   0.0000      28.865885       785.4807 
 498   0.0000      30.424129       827.8826 
 499   0.0000      30.770393       837.3050 
 500   0.0000      30.860215       839.7491 
 501   0.0000      44.345094      1206.6914 
 502   0.0000      44.462089      1209.8749 
 503   0.0000      44.492387      1210.6994 
 504   0.0000      44.502009      1210.9612 
 505   0.0000      44.564881      1212.6721 
 506   0.0000      44.602063      1213.6838 
 507   0.0000      44.603255      1213.7163 
 508   0.0000      44.622032      1214.2272 
 509   0.0000      44.625031      1214.3088 
 510   0.0000      44.629778      1214.4380 
 511   0.0000      44.672429      1215.5986 
 512   0.0000      44.758036      1217.9281 
 513   0.0000     205.233209      5584.6795 
 514   0.0000     205.280365      5585.9627 
 515   0.0000     205.292906      5586.3040 
 516   0.0000     205.296097      5586.3908 
 517   0.0000     205.325151      5587.1814 
 518   0.0000     205.340044      5587.5867 
 519   0.0000     205.342619      5587.6567 
 520   0.0000     205.344843      5587.7173 
 521   0.0000     205.348228      5587.8094 
 522   0.0000     205.349701      5587.8494 
 523   0.0000     205.367773      5588.3412 
 524   0.0000     205.396266      5589.1165 

                 SPIN DOWN ORBITALS
  NO   OCC          E(Eh)            E(eV) 
   0   1.0000    -235.036425     -6395.6663 
   1   1.0000     -27.130557      -738.2600 
   2   1.0000     -23.199172      -631.2816 
   3   1.0000     -23.196994      -631.2223 
   4   1.0000     -23.196351      -631.2048 
   5   1.0000      -4.122390      -112.1759 
   6   1.0000      -4.122359      -112.1751 
   7   1.0000      -4.121498      -112.1517 
   8   1.0000      -4.121419      -112.1495 
   9   1.0000      -4.120541      -112.1256 
  10   1.0000      -4.120120      -112.1142 
  11   1.0000      -4.118892      -112.0807 
  12   1.0000      -4.118767      -112.0773 
  13   1.0000      -4.118564      -112.0718 
  14   1.0000      -4.118438      -112.0684 
  15   1.0000      -4.115309      -111.9833 
  16   1.0000      -4.115207      -111.9805 
  17   1.0000      -3.032326       -82.5138 
  18   1.0000      -2.313079       -62.9421 
  19   1.0000      -2.312840       -62.9356 
  20   1.0000      -2.312518       -62.9268 
  21   1.0000      -2.312369       -62.9228 
  22   1.0000      -2.308854       -62.8271 
  23   1.0000      -2.308324       -62.8127 
  24   1.0000      -2.307970       -62.8031 
  25   1.0000      -2.307704       -62.7958 
  26   1.0000      -2.307630       -62.7938 
  27   1.0000      -2.307236       -62.7831 
  28   1.0000      -2.306553       -62.7645 
  29   1.0000      -2.306433       -62.7612 
[...]
----------------------------------------------------
CHARGE
  0 Aus       :     2.648223  s :     2.648223
      pz      :     2.120700  p :     6.404179
      px      :     2.112318
      py      :     2.171162
      dz2     :     1.979818  d :     9.846925
      dxz     :     1.953609
      dyz     :     1.989692
      dx2y2   :     1.947082
      dxy     :     1.976724
      f0      :     0.000711  f :     0.005154
      f+1     :     0.000721
      f-1     :     0.000729
      f+2     :     0.000908
      f-2     :     0.000604
      f+3     :     0.000626
      f-3     :     0.000855
  1 Aus       :     2.486055  s :     2.486055
      pz      :     2.200384  p :     6.598027
      px      :     2.176250
      py      :     2.221393
      dz2     :     1.986896  d :     9.926433
      dxz     :     2.005613
      dyz     :     1.991790
      dx2y2   :     1.983100
      dxy     :     1.959033
      f0      :     0.000826  f :     0.006481
      f+1     :     0.000754
      f-1     :     0.001014
      f+2     :     0.001330
      f-2     :     0.000956
      f+3     :     0.000868
      f-3     :     0.000733
  2 Aus       :     2.732791  s :     2.732791
      pz      :     2.064582  p :     6.359299
      px      :     2.127803
      py      :     2.166914
      dz2     :     1.969642  d :     9.875371
      dxz     :     1.961300
      dyz     :     1.985793
      dx2y2   :     1.973243
      dxy     :     1.985394
      f0      :     0.000506  f :     0.004382
      f+1     :     0.000720
      f-1     :     0.000445
      f+2     :     0.000633
      f-2     :     0.000478
      f+3     :     0.000679
      f-3     :     0.000920
  3 Aus       :     2.732960  s :     2.732960
      pz      :     2.081500  p :     6.359357
      px      :     2.155149
      py      :     2.122709
      dz2     :     1.981035  d :     9.875245
      dxz     :     1.967881
      dyz     :     1.945995
      dx2y2   :     1.981010
      dxy     :     1.999323
      f0      :     0.000511  f :     0.004384
      f+1     :     0.000360
      f-1     :     0.000628
      f+2     :     0.000659
      f-2     :     0.000784
      f+3     :     0.000624
      f-3     :     0.000818
  4 Aus       :     2.568634  s :     2.568634
      pz      :     2.140070  p :     6.530831
      px      :     2.187467
      py      :     2.203294
      dz2     :     1.971545  d :     9.872648
      dxz     :     1.975662
      dyz     :     1.985931
      dx2y2   :     1.985540
      dxy     :     1.953969
      f0      :     0.000682  f :     0.005713
      f+1     :     0.000508
      f-1     :     0.000581
      f+2     :     0.000781
      f-2     :     0.001020
      f+3     :     0.001098
      f-3     :     0.001044
  5 Aus       :     2.486146  s :     2.486146
      pz      :     2.099237  p :     6.598154
      px      :     2.283117
      py      :     2.215800
      dz2     :     1.984207  d :     9.926456
      dxz     :     1.995168
      dyz     :     1.979982
      dx2y2   :     1.986086
      dxy     :     1.981013
      f0      :     0.000750  f :     0.006477
      f+1     :     0.000942
      f-1     :     0.000621
      f+2     :     0.000816
      f-2     :     0.000916
      f+3     :     0.000905
      f-3     :     0.001528
  6 Aus       :     2.656248  s :     2.656248
      pz      :     2.139573  p :     6.429344
      px      :     2.088801
      py      :     2.200970
      dz2     :     1.986678  d :     9.841947
      dxz     :     1.972065
      dyz     :     1.954918
      dx2y2   :     1.943284
      dxy     :     1.985001
      f0      :     0.000743  f :     0.004580
      f+1     :     0.000491
      f-1     :     0.000432
      f+2     :     0.000607
      f-2     :     0.000843
      f+3     :     0.000769
      f-3     :     0.000694
  7 Aus       :     2.560968  s :     2.560968
      pz      :     2.167731  p :     6.467082
      px      :     2.160272
      py      :     2.139079
      dz2     :     1.966948  d :     9.905228
      dxz     :     1.985759
      dyz     :     1.989203
      dx2y2   :     1.998396
      dxy     :     1.964923
      f0      :     0.000728  f :     0.005097
      f+1     :     0.000709
      f-1     :     0.000697
      f+2     :     0.000919
      f-2     :     0.000533
      f+3     :     0.000870
      f-3     :     0.000641
  8 Aus       :     2.561100  s :     2.561100
      pz      :     2.115618  p :     6.466265
      px      :     2.218840
      py      :     2.131806
      dz2     :     1.983555  d :     9.905299
      dxz     :     1.990731
      dyz     :     1.965811
      dx2y2   :     1.983601
      dxy     :     1.981600
      f0      :     0.000828  f :     0.005079
      f+1     :     0.000912
      f-1     :     0.000625
      f+2     :     0.000520
      f-2     :     0.000834
      f+3     :     0.000570
      f-3     :     0.000789
  9 Aus       :     2.656414  s :     2.656414
      pz      :     2.120605  p :     6.428902
      px      :     2.195374
      py      :     2.112923
      dz2     :     1.962959  d :     9.842277
      dxz     :     1.965130
      dyz     :     1.983399
      dx2y2   :     1.981303
      dxy     :     1.949486
      f0      :     0.000480  f :     0.004575
      f+1     :     0.000570
      f-1     :     0.000532
      f+2     :     0.000675
      f-2     :     0.000573
      f+3     :     0.000980
      f-3     :     0.000765
 10 Aus       :     2.648333  s :     2.648333
      pz      :     2.135584  p :     6.403711
      px      :     2.123586
      py      :     2.144541
      dz2     :     1.986912  d :     9.847284
      dxz     :     1.950385
      dyz     :     1.987390
      dx2y2   :     1.953888
      dxy     :     1.968709
      f0      :     0.000709  f :     0.005145
      f+1     :     0.000768
      f-1     :     0.000652
      f+2     :     0.000846
      f-2     :     0.000627
      f+3     :     0.000674
      f-3     :     0.000869
 11 Aus       :     2.568466  s :     2.568466
      pz      :     2.153485  p :     6.531158
      px      :     2.119421
      py      :     2.258252
      dz2     :     1.987474  d :     9.872775
      dxz     :     1.980495
      dyz     :     1.967990
      dx2y2   :     1.955311
      dxy     :     1.981506
      f0      :     0.000819  f :     0.005716
      f+1     :     0.000503
      f-1     :     0.000601
      f+2     :     0.000865
      f-2     :     0.000870
      f+3     :     0.001030
      f-3     :     0.001029
 12 Mns       :     6.288411  s :     6.288411
      pz      :     4.207332  p :    12.646000
      px      :     4.226168
      py      :     4.212500
      dz2     :     1.241065  d :     6.581134
      dxz     :     1.381323
      dyz     :     1.175591
      dx2y2   :     1.401151
      dxy     :     1.382004
      f0      :     0.000117  f :     0.001132
      f+1     :     0.000191
      f-1     :     0.000163
      f+2     :     0.000179
      f-2     :     0.000121
      f+3     :     0.000246
      f-3     :     0.000115

SPIN
  0 Aus       :    -0.106130  s :    -0.106130
      pz      :    -0.023522  p :    -0.062738
      px      :    -0.008654
      py      :    -0.030563
      dz2     :     0.001503  d :     0.018681
      dxz     :     0.009981
      dyz     :    -0.010373
      dx2y2   :     0.012363
      dxy     :     0.005206
      f0      :     0.000012  f :     0.000227
      f+1     :     0.000136
      f-1     :    -0.000013
      f+2     :     0.000069
      f-2     :     0.000028
      f+3     :     0.000005
      f-3     :    -0.000010
  1 Aus       :    -0.039879  s :    -0.039879
      pz      :    -0.011558  p :    -0.024134
      px      :    -0.016757
      py      :     0.004181
      dz2     :     0.004902  d :    -0.000422
      dxz     :     0.004427
      dyz     :    -0.017228
      dx2y2   :     0.001841
      dxy     :     0.005636
      f0      :     0.000024  f :     0.000246
      f+1     :     0.000020
      f-1     :     0.000013
      f+2     :     0.000008
      f-2     :     0.000079
      f+3     :     0.000066
      f-3     :     0.000036
  2 Aus       :    -0.053475  s :    -0.053475
      pz      :    -0.001184  p :    -0.044041
      px      :    -0.012972
      py      :    -0.029885
      dz2     :    -0.001581  d :    -0.012877
      dxz     :     0.001920
      dyz     :     0.000755
      dx2y2   :    -0.003034
      dxy     :    -0.010938
      f0      :    -0.000006  f :    -0.000027
      f+1     :     0.000010
      f-1     :    -0.000023
      f+2     :     0.000008
      f-2     :    -0.000004
      f+3     :    -0.000004
      f-3     :    -0.000008
  3 Aus       :    -0.053938  s :    -0.053938
      pz      :    -0.014890  p :    -0.044049
      px      :    -0.005118
      py      :    -0.024041
      dz2     :    -0.000000  d :    -0.012813
      dxz     :    -0.002074
      dyz     :    -0.001159
      dx2y2   :    -0.009120
      dxy     :    -0.000459
      f0      :    -0.000003  f :    -0.000027
      f+1     :    -0.000006
      f-1     :    -0.000016
      f+2     :     0.000008
      f-2     :    -0.000002
      f+3     :    -0.000010
      f-3     :    -0.000000
  4 Aus       :    -0.059260  s :    -0.059260
      pz      :    -0.016733  p :    -0.041320
      px      :    -0.033705
      py      :     0.009118
      dz2     :     0.003568  d :     0.008402
      dxz     :     0.003722
      dyz     :    -0.001438
      dx2y2   :     0.004032
      dxy     :    -0.001482
      f0      :     0.000015  f :     0.000261
      f+1     :     0.000019
      f-1     :     0.000059
      f+2     :    -0.000014
      f-2     :     0.000035
      f+3     :     0.000118
      f-3     :     0.000029
  5 Aus       :    -0.040068  s :    -0.040068
      pz      :    -0.006953  p :    -0.024148
      px      :    -0.003318
      py      :    -0.013877
      dz2     :    -0.004963  d :    -0.000576
      dxz     :     0.003004
      dyz     :     0.015277
      dx2y2   :     0.004409
      dxy     :    -0.018304
      f0      :     0.000015  f :     0.000245
      f+1     :     0.000018
      f-1     :     0.000132
      f+2     :     0.000061
      f-2     :     0.000017
      f+3     :    -0.000008
      f-3     :     0.000009
  6 Aus       :    -0.051095  s :    -0.051095
      pz      :    -0.011760  p :    -0.044654
      px      :    -0.008353
      py      :    -0.024540
      dz2     :    -0.008170  d :     0.024548
      dxz     :     0.010817
      dyz     :     0.003189
      dx2y2   :     0.015195
      dxy     :     0.003516
      f0      :     0.000008  f :     0.000319
      f+1     :     0.000035
      f-1     :    -0.000003
      f+2     :     0.000105
      f-2     :     0.000012
      f+3     :     0.000120
      f-3     :     0.000042
  7 Aus       :    -0.006459  s :    -0.006459
      pz      :    -0.011191  p :    -0.019477
      px      :    -0.009105
      py      :     0.000819
      dz2     :     0.006321  d :     0.005055
      dxz     :    -0.000606
      dyz     :    -0.004910
      dx2y2   :     0.001284
      dxy     :     0.002965
      f0      :     0.000025  f :     0.000196
      f+1     :     0.000019
      f-1     :     0.000047
      f+2     :    -0.000040
      f-2     :     0.000034
      f+3     :     0.000082
      f-3     :     0.000027
  8 Aus       :    -0.006689  s :    -0.006689
      pz      :    -0.005545  p :    -0.019389
      px      :    -0.018047
      py      :     0.004202
      dz2     :     0.003117  d :     0.005233
      dxz     :     0.002317
      dyz     :     0.016176
      dx2y2   :    -0.005303
      dxy     :    -0.011073
      f0      :     0.000002  f :     0.000197
      f+1     :     0.000006
      f-1     :     0.000148
      f+2     :     0.000046
      f-2     :     0.000032
      f+3     :    -0.000026
      f-3     :    -0.000012
  9 Aus       :    -0.050985  s :    -0.050985
      pz      :    -0.018623  p :    -0.044432
      px      :    -0.030365
      py      :     0.004555
      dz2     :     0.002952  d :     0.024270
      dxz     :     0.004791
      dyz     :    -0.001825
      dx2y2   :     0.007361
      dxy     :     0.010990
      f0      :     0.000026  f :     0.000315
      f+1     :     0.000022
      f-1     :     0.000050
      f+2     :    -0.000015
      f-2     :     0.000029
      f+3     :     0.000163
      f-3     :     0.000039
 10 Aus       :    -0.106312  s :    -0.106312
      pz      :    -0.019066  p :    -0.062722
      px      :    -0.037497
      py      :    -0.006160
      dz2     :    -0.000083  d :     0.018421
      dxz     :     0.013271
      dyz     :    -0.003641
      dx2y2   :     0.007123
      dxy     :     0.001751
      f0      :     0.000027  f :     0.000224
      f+1     :     0.000110
      f-1     :    -0.000019
      f+2     :     0.000092
      f-2     :     0.000034
      f+3     :     0.000009
      f-3     :    -0.000030
 11 Aus       :    -0.059226  s :    -0.059226
      pz      :    -0.005830  p :    -0.041396
      px      :    -0.014380
      py      :    -0.021186
      dz2     :    -0.004335  d :     0.008301
      dxz     :     0.007598
      dyz     :    -0.000740
      dx2y2   :     0.008068
      dxy     :    -0.002291
      f0      :     0.000028  f :     0.000260
      f+1     :     0.000032
      f-1     :    -0.000000
      f+2     :     0.000065
      f-2     :    -0.000002
      f+3     :     0.000097
      f-3     :     0.000040
 12 Mns       :     0.012720  s :     0.012720
      pz      :     0.012320  p :     0.028284
      px      :     0.009714
      py      :     0.006249
      dz2     :     0.805945  d :     3.976297
      dxz     :     0.722321
      dyz     :     0.892219
      dx2y2   :     0.806941
      dxy     :     0.748871
      f0      :     0.000006  f :     0.000058
      f+1     :     0.000009
      f-1     :     0.000006
      f+2     :     0.000009
      f-2     :     0.000007
      f+3     :     0.000013
      f-3     :     0.000009


                      *****************************
                      * MAYER POPULATION ANALYSIS *
                      *****************************

  NA   - Mulliken gross atomic population
  ZA   - Total nuclear charge
  QA   - Mulliken gross atomic charge
  VA   - Mayer's total valence
  BVA  - Mayer's bonded valence
  FA   - Mayer's free valence

  ATOM       NA         ZA         QA         VA         BVA        FA
  0 Au    18.7560    19.0000     0.2440     1.5038     1.4564     0.0474
  1 Au    18.9203    19.0000     0.0797     1.8992     1.8910     0.0082
  2 Au    18.7528    19.0000     0.2472     1.5369     1.5142     0.0227
  3 Au    18.7531    19.0000     0.2469     1.5376     1.5146     0.0229
  4 Au    18.9588    19.0000     0.0412     1.8393     1.8185     0.0208
  5 Au    18.9210    19.0000     0.0790     1.8995     1.8912     0.0083
  6 Au    18.7521    19.0000     0.2479     1.5070     1.4970     0.0100
  7 Au    18.6859    19.0000     0.3141     1.4995     1.4970     0.0025
  8 Au    18.6859    19.0000     0.3141     1.4983     1.4958     0.0025
  9 Au    18.7525    19.0000     0.2475     1.5064     1.4964     0.0100
 10 Au    18.7565    19.0000     0.2435     1.5037     1.4561     0.0476
 11 Au    18.9593    19.0000     0.0407     1.8395     1.8188     0.0208
 12 Mn    27.3459    25.0000    -2.3459     8.6644     5.0296     3.6348

  Mayer bond orders larger than 0.100000
B(  0-Au,  1-Au) :   0.3055 B(  0-Au,  8-Au) :   0.1731 B(  0-Au, 12-Mn) :   0.5314 
B(  1-Au,  2-Au) :   0.2227 B(  1-Au,  3-Au) :   0.3150 B(  1-Au,  4-Au) :   0.1458 
B(  1-Au,  5-Au) :   0.1106 B(  1-Au, 11-Au) :   0.1230 B(  1-Au, 12-Mn) :   0.4548 
B(  2-Au,  3-Au) :   0.2434 B(  2-Au,  5-Au) :   0.3146 B(  2-Au, 11-Au) :   0.3967 
B(  3-Au,  4-Au) :   0.3968 B(  3-Au,  5-Au) :   0.2228 B(  4-Au,  5-Au) :   0.1233 
B(  4-Au,  6-Au) :   0.2832 B(  4-Au, 12-Mn) :   0.5440 B(  5-Au, 10-Au) :   0.3056 
B(  5-Au, 11-Au) :   0.1460 B(  5-Au, 12-Mn) :   0.4551 B(  6-Au,  7-Au) :   0.1240 
B(  6-Au,  8-Au) :   0.1974 B(  6-Au,  9-Au) :   0.1223 B(  6-Au, 12-Mn) :   0.4970 
B(  7-Au,  8-Au) :   0.2965 B(  7-Au,  9-Au) :   0.1986 B(  7-Au, 10-Au) :   0.1738 
B(  7-Au, 12-Mn) :   0.4032 B(  8-Au,  9-Au) :   0.1232 B(  8-Au, 12-Mn) :   0.4046 
B(  9-Au, 11-Au) :   0.2833 B(  9-Au, 12-Mn) :   0.4955 B( 10-Au, 12-Mn) :   0.5309 
B( 11-Au, 12-Mn) :   0.5436 

-------
TIMINGS
-------

Total SCF time: 0 days 0 hours 3 min 44 sec 

Total time                  ....     224.740 sec
Sum of individual times     ....     221.776 sec  ( 98.7%)

Fock matrix formation       ....     208.792 sec  ( 92.9%)
  Split-RI-J                ....      38.342 sec  ( 18.4% of F)
  XC integration            ....     169.503 sec  ( 81.2% of F)
    Basis function eval.    ....       9.875 sec  (  5.8% of XC)
    Density eval.           ....      89.823 sec  ( 53.0% of XC)
    XC-Functional eval.     ....       6.393 sec  (  3.8% of XC)
    XC-Potential eval.      ....      60.911 sec  ( 35.9% of XC)
Diagonalization             ....       9.193 sec  (  4.1%)
Density matrix formation    ....       0.320 sec  (  0.1%)
Population analysis         ....       0.357 sec  (  0.2%)
Initial guess               ....       0.489 sec  (  0.2%)
Orbital Transformation      ....       0.000 sec  (  0.0%)
Orbital Orthonormalization  ....       0.437 sec  (  0.2%)
DIIS solution               ....       0.000 sec  (  0.0%)
Grid generation             ....       2.626 sec  (  1.2%)

Maximum memory used throughout the entire SCF-calculation: 82.1 MB

-------------------------   --------------------
FINAL SINGLE POINT ENERGY     -2781.103745667640
-------------------------   --------------------


                            ***************************************
                            *     ORCA property calculations      *
                            ***************************************

                                    ---------------------
                                    Active property flags
                                    ---------------------
   (+) Dipole Moment


------------------------------------------------------------------------------
                       ORCA ELECTRIC PROPERTIES CALCULATION
------------------------------------------------------------------------------

Dipole Moment Calculation                       ... on
Quadrupole Moment Calculation                   ... off
Polarizability Calculation                      ... off
GBWName                                         ... scan_job2.gbw
Electron density                                ... scan_job2.scfp
The origin for moment calculation is the CENTER OF MASS  = (16.788153, 16.340307 14.745962)

-------------
DIPOLE MOMENT
-------------
                                X             Y             Z
Electronic contribution:    -10.18077     -17.35156      -7.88637
Nuclear contribution   :     10.49745      17.89479       8.13189
                        -----------------------------------------
Total Dipole Moment    :      0.31667       0.54323       0.24552
                        -----------------------------------------
Magnitude (a.u.)       :      0.67503
Magnitude (Debye)      :      1.71578



--------------------
Rotational spectrum 
--------------------
 
Rotational constants in cm-1:     0.001730     0.001168     0.000996 
Rotational constants in MHz :    51.861552    35.018381    29.872095 

 Dipole components along the rotational axes: 
x,y,z [a.u.] :     0.675026    -0.000784     0.000923 
x,y,z [Debye]:     1.715780    -0.001992     0.002345 

 

Timings for individual modules:

Sum of individual times         ...      241.053 sec (=   4.018 min)
GTO integral calculation        ...       16.059 sec (=   0.268 min)   6.7 %
SCF iterations                  ...      224.994 sec (=   3.750 min)  93.3 %



                             ****ORCA TERMINATED NORMALLY****
TOTAL RUN TIME: 0 days 0 hours 24 minutes 7 seconds 799 msec
