
                                 *****************
                                 * O   R   C   A *
                                 *****************

                                            #,                                       
                                            ###                                      
                                            ####                                     
                                            #####                                    
                                            ######                                   
                                           ########,                                 
                                     ,,################,,,,,                         
                               ,,#################################,,                 
                          ,,##########################################,,             
                       ,#########################################, ''#####,          
                    ,#############################################,,   '####,        
                  ,##################################################,,,,####,       
                ,###########''''           ''''###############################       
              ,#####''   ,,,,##########,,,,          '''####'''          '####       
            ,##' ,,,,###########################,,,                        '##       
           ' ,,###''''                  '''############,,,                           
         ,,##''                                '''############,,,,        ,,,,,,###''
      ,#''                                            '''#######################'''  
     '                                                          ''''####''''         
             ,#######,   #######,   ,#######,      ##                                
            ,#'     '#,  ##    ##  ,#'     '#,    #''#        ######   ,####,        
            ##       ##  ##   ,#'  ##            #'  '#       #        #'  '#        
            ##       ##  #######   ##           ,######,      #####,   #    #        
            '#,     ,#'  ##    ##  '#,     ,#' ,#      #,         ##   #,  ,#        
             '#######'   ##     ##  '#######'  #'      '#     #####' # '####'        



                  #######################################################
                  #                        -***-                        #
                  #          Department of theory and spectroscopy      #
                  #    Directorship and core code : Frank Neese         #
                  #        Max Planck Institute fuer Kohlenforschung    #
                  #                Kaiser Wilhelm Platz 1               #
                  #                 D-45470 Muelheim/Ruhr               #
                  #                      Germany                        #
                  #                                                     #
                  #                  All rights reserved                #
                  #                        -***-                        #
                  #######################################################


                         Program Version 5.0.3 -  RELEASE  -


 With contributions from (in alphabetic order):
   Daniel Aravena         : Magnetic Suceptibility
   Michael Atanasov       : Ab Initio Ligand Field Theory (pilot matlab implementation)
   Alexander A. Auer      : GIAO ZORA, VPT2 properties, NMR spectrum
   Ute Becker             : Parallelization
   Giovanni Bistoni       : ED, misc. LED, open-shell LED, HFLD
   Martin Brehm           : Molecular dynamics
   Dmytro Bykov           : SCF Hessian
   Vijay G. Chilkuri      : MRCI spin determinant printing, contributions to CSF-ICE
   Dipayan Datta          : RHF DLPNO-CCSD density
   Achintya Kumar Dutta   : EOM-CC, STEOM-CC
   Dmitry Ganyushin       : Spin-Orbit,Spin-Spin,Magnetic field MRCI
   Miquel Garcia          : C-PCM and meta-GGA Hessian, CC/C-PCM, Gaussian charge scheme
   Yang Guo               : DLPNO-NEVPT2, F12-NEVPT2, CIM, IAO-localization
   Andreas Hansen         : Spin unrestricted coupled pair/coupled cluster methods
   Benjamin Helmich-Paris : MC-RPA, TRAH-SCF, COSX integrals
   Lee Huntington         : MR-EOM, pCC
   Robert Izsak           : Overlap fitted RIJCOSX, COSX-SCS-MP3, EOM
   Marcus Kettner         : VPT2
   Christian Kollmar      : KDIIS, OOCD, Brueckner-CCSD(T), CCSD density, CASPT2, CASPT2-K
   Simone Kossmann        : Meta GGA functionals, TD-DFT gradient, OOMP2, MP2 Hessian
   Martin Krupicka        : Initial AUTO-CI
   Lucas Lang             : DCDCAS
   Marvin Lechner         : AUTO-CI (C++ implementation), FIC-MRCC
   Dagmar Lenk            : GEPOL surface, SMD
   Dimitrios Liakos       : Extrapolation schemes; Compound Job, initial MDCI parallelization
   Dimitrios Manganas     : Further ROCIS development; embedding schemes
   Dimitrios Pantazis     : SARC Basis sets
   Anastasios Papadopoulos: AUTO-CI, single reference methods and gradients
   Taras Petrenko         : DFT Hessian,TD-DFT gradient, ASA, ECA, R-Raman, ABS, FL, XAS/XES, NRVS
   Peter Pinski           : DLPNO-MP2, DLPNO-MP2 Gradient
   Christoph Reimann      : Effective Core Potentials
   Marius Retegan         : Local ZFS, SOC
   Christoph Riplinger    : Optimizer, TS searches, QM/MM, DLPNO-CCSD(T), (RO)-DLPNO pert. Triples
   Tobias Risthaus        : Range-separated hybrids, TD-DFT gradient, RPA, STAB
   Michael Roemelt        : Original ROCIS implementation
   Masaaki Saitow         : Open-shell DLPNO-CCSD energy and density
   Barbara Sandhoefer     : DKH picture change effects
   Avijit Sen             : IP-ROCIS
   Kantharuban Sivalingam : CASSCF convergence, NEVPT2, FIC-MRCI
   Bernardo de Souza      : ESD, SOC TD-DFT
   Georgi Stoychev        : AutoAux, RI-MP2 NMR, DLPNO-MP2 response
   Willem Van den Heuvel  : Paramagnetic NMR
   Boris Wezisla          : Elementary symmetry handling
   Frank Wennmohs         : Technical directorship


 We gratefully acknowledge several colleagues who have allowed us to
 interface, adapt or use parts of their codes:
   Stefan Grimme, W. Hujo, H. Kruse, P. Pracht,  : VdW corrections, initial TS optimization,
                  C. Bannwarth, S. Ehlert          DFT functionals, gCP, sTDA/sTD-DF
   Ed Valeev, F. Pavosevic, A. Kumar             : LibInt (2-el integral package), F12 methods
   Garnet Chan, S. Sharma, J. Yang, R. Olivares  : DMRG
   Ulf Ekstrom                                   : XCFun DFT Library
   Mihaly Kallay                                 : mrcc  (arbitrary order and MRCC methods)
   Jiri Pittner, Ondrej Demel                    : Mk-CCSD
   Frank Weinhold                                : gennbo (NPA and NBO analysis)
   Christopher J. Cramer and Donald G. Truhlar   : smd solvation model
   Lars Goerigk                                  : TD-DFT with DH, B97 family of functionals
   V. Asgeirsson, H. Jonsson                     : NEB implementation
   FAccTs GmbH                                   : IRC, NEB, NEB-TS, DLPNO-Multilevel, CI-OPT
                                                   MM, QMMM, 2- and 3-layer-ONIOM, Crystal-QMMM,
                                                   LR-CPCM, SF, NACMEs, symmetry and pop. for TD-DFT,
                                                   nearIR, NL-DFT gradient (VV10), updates on ESD,
                                                   ML-optimized integration grids
   S Lehtola, MJT Oliveira, MAL Marques          : LibXC Library
   Liviu Ungur et al                             : ANISO software


 Your calculation uses the libint2 library for the computation of 2-el integrals
 For citations please refer to: http://libint.valeyev.net

 Your ORCA version has been built with support for libXC version: 5.1.0
 For citations please refer to: https://tddft.org/programs/libxc/

 This ORCA versions uses:
   CBLAS   interface :  Fast vector & matrix operations
   LAPACKE interface :  Fast linear algebra routines
   SCALAPACK package :  Parallel linear algebra routines
   Shared memory     :  Shared parallel matrices
   BLAS/LAPACK       :  OpenBLAS 0.3.15  USE64BITINT DYNAMIC_ARCH NO_AFFINITY Haswell SINGLE_THREADED
        Core in use  :  Haswell
   Copyright (c) 2011-2014, The OpenBLAS Project




***************************************
The coordinates will be read from file: pbe.xyz
***************************************


================================================================================

cite the ECPs for Au [Def2-ECP] as follows:
Ce-Yb(ecp-28): M. Dolg, H. Stoll, H.Preuss, J. Chem. Phys., 1989, 90, 1730-1734.
Y-Cd(ecp-28), Hf-Hg(ecp-46): D. Andrae,U. Haeussermann, M. Dolg, H. Stoll, H. Preuss, Theor. Chim. Acta, 1990, 77, 123-141.
In-Sb(ecp-28), Tl-Bi(ecp-46): B. Metz, H. Stoll, M. Dolg, J. Chem. Phys., 2000, 113, 2563-2569.
Te-Xe(ecp-28), Po-Rn(ecp-46): K. A. Peterson, D. Figgen, E. Goll, H. Stoll, M. Dolg, J. Chem. Phys., 2003, 119, 11113-11123.
Rb(ecp-28), Cs(ecp-46): T. Leininger, A. Nicklass, W. Kuechle, H. Stoll, M. Dolg, A. Bergner, Chem. Phys. Lett., 1996, 255, 274-280.
Sr(ecp-28), Ba(ecp-46): M. Kaupp, P. V. Schleyer, H. Stoll and H. Preuss, J. Chem. Phys., 1991, 94, 1360-1366.
La(ecp-46): M. Dolg, H. Stoll, A. Savin, H. Preuss, Theor. Chim. Acta, 1989, 75, 173-194.
Lu(ecp-28): X. Cao, M. Dolg, J. Chem. Phys., 2001, 115, 7348-7355.

ECP parameters for Au [Def2-ECP] have been obtained from:
TURBOMOLE (7.0.2)

----- Orbital basis set information -----
Your calculation utilizes the basis: def2-TZVP
   F. Weigend and R. Ahlrichs, Phys. Chem. Chem. Phys. 7, 3297 (2005).

----- AuxJ basis set information -----
Your calculation utilizes the auxiliary basis: def2/J
   F. Weigend, Phys. Chem. Chem. Phys. 8, 1057 (2006).

----- AuxC basis set information -----
Your calculation utilizes the auxiliary basis: def2-TZVP/C
  H-La, Hf-Rn : A. Hellweg, C. Hattig, S. Hofener and W. Klopper, Theor. Chem. Acc. 117, 587 (2007).
        Ce-Lu : J. Chmela and M. E. Harding, Mol. Phys. (2018).

================================================================================
                                        WARNINGS
                       Please study these warnings very carefully!
================================================================================


WARNING: your system is open-shell and RHF/RKS was chosen
  ===> : WILL SWITCH to UHF/UKS


WARNING: No MP2 level density has been requested!
         To caclulate MP2 level properties use
         %mp2 Density relaxed end
         or
         %mp2 Density unrelaxed end
         Otherwise for double-hybrid DFT only the energy is correct!

WARNING: The frozen-core approximation is turned on by default for 
         the MP2 part of double-hybrid DFT.

INFO   : the flag for use of the SHARK integral package has been found!



***************************************
The coordinates will be read from file: pbe.xyz
***************************************


================================================================================

cite the ECPs for Au [Def2-ECP] as follows:
Ce-Yb(ecp-28): M. Dolg, H. Stoll, H.Preuss, J. Chem. Phys., 1989, 90, 1730-1734.
Y-Cd(ecp-28), Hf-Hg(ecp-46): D. Andrae,U. Haeussermann, M. Dolg, H. Stoll, H. Preuss, Theor. Chim. Acta, 1990, 77, 123-141.
In-Sb(ecp-28), Tl-Bi(ecp-46): B. Metz, H. Stoll, M. Dolg, J. Chem. Phys., 2000, 113, 2563-2569.
Te-Xe(ecp-28), Po-Rn(ecp-46): K. A. Peterson, D. Figgen, E. Goll, H. Stoll, M. Dolg, J. Chem. Phys., 2003, 119, 11113-11123.
Rb(ecp-28), Cs(ecp-46): T. Leininger, A. Nicklass, W. Kuechle, H. Stoll, M. Dolg, A. Bergner, Chem. Phys. Lett., 1996, 255, 274-280.
Sr(ecp-28), Ba(ecp-46): M. Kaupp, P. V. Schleyer, H. Stoll and H. Preuss, J. Chem. Phys., 1991, 94, 1360-1366.
La(ecp-46): M. Dolg, H. Stoll, A. Savin, H. Preuss, Theor. Chim. Acta, 1989, 75, 173-194.
Lu(ecp-28): X. Cao, M. Dolg, J. Chem. Phys., 2001, 115, 7348-7355.

ECP parameters for Au [Def2-ECP] have been obtained from:
TURBOMOLE (7.0.2)

----- Orbital basis set information -----
Your calculation utilizes the basis: def2-TZVP
   F. Weigend and R. Ahlrichs, Phys. Chem. Chem. Phys. 7, 3297 (2005).

----- AuxJ basis set information -----
Your calculation utilizes the auxiliary basis: def2/J
   F. Weigend, Phys. Chem. Chem. Phys. 8, 1057 (2006).

----- AuxC basis set information -----
Your calculation utilizes the auxiliary basis: def2-TZVP/C
  H-La, Hf-Rn : A. Hellweg, C. Hattig, S. Hofener and W. Klopper, Theor. Chem. Acc. 117, 587 (2007).
        Ce-Lu : J. Chmela and M. E. Harding, Mol. Phys. (2018).

================================================================================
                                        WARNINGS
                       Please study these warnings very carefully!
================================================================================


WARNING: No MP2 level density has been requested!
         To caclulate MP2 level properties use
         %mp2 Density relaxed end
         or
         %mp2 Density unrelaxed end
         Otherwise for double-hybrid DFT only the energy is correct!

WARNING: The frozen-core approximation is turned on by default for 
         the MP2 part of double-hybrid DFT.

INFO   : the flag for use of the SHARK integral package has been found!

================================================================================
                                       INPUT FILE
================================================================================
NAME = b2plyp.inp
|  1> !RI-B2PLYP def2-TZVP def2-TZVP/C
|  2> !RIJCOSX VERYSLOWCONV
|  3> 
|  4> %scf
|  5>   AutoTRAHIter 200
|  6>   maxiter 400
|  7> end
|  8> 
|  9> 
| 10> %pal nprocs 6 end 
| 11> 
| 12> *xyzfile 0 5 pbe.xyz
| 13> 
| 14> $new_job
| 15> 
| 16> !RI-B2PLYP def2-TZVP def2-TZVP/C
| 17> !RIJCOSX VERYSLOWCONV
| 18> 
| 19> %scf
| 20>   AutoTRAHIter 200
| 21>   maxiter 400
| 22> end
| 23> 
| 24> 
| 25> %pal nprocs 6 end 
| 26> 
| 27> *xyzfile 0 3 pbe.xyz
| 28> 
| 29> 
| 30> 
| 31> 
| 32> 
| 33>                          ****END OF INPUT****
================================================================================


                 $$$$$$$$$$$$$$$$$$$$$$$$$$$$$$$$$$$$$$$$$$$$$$ 
                 $ THERE ARE  2 JOBS TO BE PROCESSED THIS RUN $
                 $$$$$$$$$$$$$$$$$$$$$$$$$$$$$$$$$$$$$$$$$$$$$$ 




                 $$$$$$$$$$$$$$$$  JOB NUMBER  1 $$$$$$$$$$$$$$


                       ****************************
                       * Single Point Calculation *
                       ****************************

---------------------------------
CARTESIAN COORDINATES (ANGSTROEM)
---------------------------------
  Au     9.726124    4.312543    9.480403
  Au    11.272329    5.304325    7.392775
  Au     9.166651    4.418535    5.806529
  Au    10.013793    7.180614    5.770168
  Au     6.639687    5.188048    6.226295
  Au     7.483424    7.948933    6.168043
  Au     7.194215    5.078541    9.875694
  Au     5.935117    6.956714    8.255258
  Au     8.042168    7.836723    9.842813
  Au    10.571299    7.075065    9.419943
  Cr     8.605302    6.129876    7.823281

----------------------------
CARTESIAN COORDINATES (A.U.)
----------------------------
  NO LB      ZA    FRAG     MASS         X           Y           Z
   0 Au   19.0000*   0   196.966   18.379710    8.149526   17.915365
   1 Au   19.0000*   0   196.966   21.301615   10.023722   13.970319
   2 Au   19.0000*   0   196.966   17.322461    8.349820   10.972749
   3 Au   19.0000*   0   196.966   18.923326   13.569393   10.904037
   4 Au   19.0000*   0   196.966   12.547190    9.803989   11.765993
   5 Au   19.0000*   0   196.966   14.141622   15.021306   11.655912
   6 Au   19.0000*   0   196.966   13.595096    9.597052   18.662357
   7 Au   19.0000*   0   196.966   11.215746   13.146285   15.600177
   8 Au   19.0000*   0   196.966   15.197495   14.809260   18.600221
   9 Au   19.0000*   0   196.966   19.976860   13.369935   17.801112
  10 Cr   24.0000    0    52.000   16.261663   11.583787   14.783859
* core charge reduced due to ECP

--------------------------------
INTERNAL COORDINATES (ANGSTROEM)
--------------------------------
 Au     0   0   0     0.000000000000     0.00000000     0.00000000
 Au     1   0   0     2.780750794767     0.00000000     0.00000000
 Au     2   1   0     2.781129272769    83.89237179     0.00000000
 Au     2   1   3     2.781586761941   115.27330521    55.76408177
 Au     3   2   1     2.674678192497   122.28765536    54.86916641
 Au     4   2   1     2.674207399680   122.35246199   359.12173977
 Au     1   2   3     2.674615598881   122.35611853   305.20907916
 Au     6   4   2     2.781765650626   122.39882873     0.91014334
 Au     8   6   4     2.781080705248    83.90103288    54.78610436
 Au     9   8   6     2.674966434978   122.41129276   305.40654590
 Cr     5   3   2     2.702044594927    60.38030231     0.44150872

---------------------------
INTERNAL COORDINATES (A.U.)
---------------------------
 Au     0   0   0     0.000000000000     0.00000000     0.00000000
 Au     1   0   0     5.254857448794     0.00000000     0.00000000
 Au     2   1   0     5.255572668565    83.89237179     0.00000000
 Au     2   1   3     5.256437197809   115.27330521    55.76408177
 Au     3   2   1     5.054409280191   122.28765536    54.86916641
 Au     4   2   1     5.053519610700   122.35246199   359.12173977
 Au     1   2   3     5.054290995398   122.35611853   305.20907916
 Au     6   4   2     5.256775248432   122.39882873     0.91014334
 Au     8   6   4     5.255480889251    83.90103288    54.78610436
 Au     9   8   6     5.054953979540   122.41129276   305.40654590
 Cr     5   3   2     5.106124286054    60.38030231     0.44150872

---------------------
BASIS SET INFORMATION
---------------------
There are 2 groups of distinct atoms

 Group   1 Type Au  : 8s7p6d1f contracted to 6s4p3d1f pattern {311111/4111/411/1}
 Group   2 Type Cr  : 17s11p7d1f contracted to 6s4p4d1f pattern {842111/6311/4111/1}

Atom   0Au   basis set group =>   1
Atom   1Au   basis set group =>   1
Atom   2Au   basis set group =>   1
Atom   3Au   basis set group =>   1
Atom   4Au   basis set group =>   1
Atom   5Au   basis set group =>   1
Atom   6Au   basis set group =>   1
Atom   7Au   basis set group =>   1
Atom   8Au   basis set group =>   1
Atom   9Au   basis set group =>   1
Atom  10Cr   basis set group =>   2
---------------------------------
AUXILIARY/J BASIS SET INFORMATION
---------------------------------
There are 2 groups of distinct atoms

 Group   1 Type Au  : 11s5p5d3f3g contracted to 8s5p5d2f3g pattern {41111111/11111/11111/21/111}
 Group   2 Type Cr  : 19s5p5d3f3g contracted to 8s5p5d2f3g pattern {121111111/11111/11111/21/111}

Atom   0Au   basis set group =>   1
Atom   1Au   basis set group =>   1
Atom   2Au   basis set group =>   1
Atom   3Au   basis set group =>   1
Atom   4Au   basis set group =>   1
Atom   5Au   basis set group =>   1
Atom   6Au   basis set group =>   1
Atom   7Au   basis set group =>   1
Atom   8Au   basis set group =>   1
Atom   9Au   basis set group =>   1
Atom  10Cr   basis set group =>   2
---------------------------------
AUXILIARY/C BASIS SET INFORMATION
---------------------------------
There are 2 groups of distinct atoms

 Group   1 Type Au  : 8s8p7d5f3g2h contracted to 8s8p7d5f3g2h pattern {11111111/11111111/1111111/11111/111/11}
 Group   2 Type Cr  : 11s9p8d6f5g2h contracted to 9s8p8d6f5g2h pattern {311111111/21111111/11111111/111111/11111/11}

Atom   0Au   basis set group =>   1
Atom   1Au   basis set group =>   1
Atom   2Au   basis set group =>   1
Atom   3Au   basis set group =>   1
Atom   4Au   basis set group =>   1
Atom   5Au   basis set group =>   1
Atom   6Au   basis set group =>   1
Atom   7Au   basis set group =>   1
Atom   8Au   basis set group =>   1
Atom   9Au   basis set group =>   1
Atom  10Cr   basis set group =>   2
-------------------------
ECP PARAMETER INFORMATION
-------------------------

 Group 1, Type Au ECP Def2-ECP (replacing 60 core electrons, lmax=3)

Atom   0Au   ECP group =>   1
Atom   1Au   ECP group =>   1
Atom   2Au   ECP group =>   1
Atom   3Au   ECP group =>   1
Atom   4Au   ECP group =>   1
Atom   5Au   ECP group =>   1
Atom   6Au   ECP group =>   1
Atom   7Au   ECP group =>   1
Atom   8Au   ECP group =>   1
Atom   9Au   ECP group =>   1



           ************************************************************
           *        Program running with 6 parallel MPI-processes     *
           *              working on a common directory               *
           ************************************************************
------------------------------------------------------------------------------
                           ORCA GTO INTEGRAL CALCULATION
                           -- RI-GTO INTEGRALS CHOSEN --
------------------------------------------------------------------------------
------------------------------------------------------------------------------
                   ___                                                        
                  /   \      - P O W E R E D   B Y -                         
                 /     \                                                     
                 |  |  |   _    _      __       _____    __    __             
                 |  |  |  | |  | |    /  \     |  _  \  |  |  /  |          
                  \  \/   | |  | |   /    \    | | | |  |  | /  /          
                 / \  \   | |__| |  /  /\  \   | |_| |  |  |/  /          
                |  |  |   |  __  | /  /__\  \  |    /   |      \           
                |  |  |   | |  | | |   __   |  |    \   |  |\   \          
                \     /   | |  | | |  |  |  |  | |\  \  |  | \   \       
                 \___/    |_|  |_| |__|  |__|  |_| \__\ |__|  \__/        
                                                                              
                      - O R C A' S   B I G   F R I E N D -                    
                                      &                                       
                       - I N T E G R A L  F E E D E R -                       
                                                                              
 v1 FN, 2020, v2 2021                                                         
------------------------------------------------------------------------------


Reading SHARK input file b2plyp.SHARKINP.tmp ... ok
----------------------
SHARK INTEGRAL PACKAGE
----------------------

Number of atoms                             ...     11
Number of basis functions                   ...    445
Number of shells                            ...    155
Maximum angular momentum                    ...      3
Integral batch strategy                     ... SHARK/LIBINT Hybrid
RI-J (if used) integral strategy            ... SPLIT-RIJ (Revised 2003 algorithm where possible)
Printlevel                                  ...      1
Contraction scheme used                     ... SEGMENTED contraction
Coulomb Range Separation                    ... NOT USED
Exchange Range Separation                   ... NOT USED
Finite Nucleus Model                        ... NOT USED
Auxiliary Coulomb fitting basis             ... AVAILABLE
   # of basis functions in Aux-J            ...    979
   # of shells in Aux-J                     ...    253
   Maximum angular momentum in Aux-J        ...      4
Auxiliary J/K fitting basis                 ... NOT available
Auxiliary Correlation fitting basis         ... AVAILABLE
   # of basis functions in Aux-C            ...   1692
   # of shells in Aux-C                     ...    368
   Maximum angular momentum in Aux-C        ...      5
Auxiliary 'external' fitting basis          ... NOT available
Integral threshold                          ...     1.000000e-10
Primitive cut-off                           ...     1.000000e-11
Primitive pair pre-selection threshold      ...     1.000000e-11

Calculating pre-screening integrals         ... done (  0.1 sec) Dimension = 155
Organizing shell pair data                  ... done (  0.2 sec)
Shell pair information
Total number of shell pairs                 ...     12090
Shell pairs after pre-screening             ...     10161
Total number of primitive shell pairs       ...     33105
Primitive shell pairs kept                  ...     20554
          la=0 lb=0:   1571 shell pairs
          la=1 lb=0:   2292 shell pairs
          la=1 lb=1:    870 shell pairs
          la=2 lb=0:   2018 shell pairs
          la=2 lb=1:   1418 shell pairs
          la=2 lb=2:    578 shell pairs
          la=3 lb=0:    557 shell pairs
          la=3 lb=1:    432 shell pairs
          la=3 lb=2:    364 shell pairs
          la=3 lb=3:     61 shell pairs

Calculating one electron integrals          ... done (  0.0 sec)
Calculating ECP integrals                   ... done (  6.2 sec)
Calculating RI/J V-Matrix + Cholesky decomp.... done (  0.7 sec)
Calculating RI/C V-Matrix + Cholesky decomp.... done (  0.4 sec)
Calculating Nuclear repulsion               ... done (  0.0 sec) ENN=   3209.597508038305 Eh

SHARK setup successfully completed in   8.1 seconds

Maximum memory used throughout the entire GTOINT-calculation: 30.3 MB


           ************************************************************
           *        Program running with 6 parallel MPI-processes     *
           *              working on a common directory               *
           ************************************************************
-------------------------------------------------------------------------------
                                 ORCA SCF
-------------------------------------------------------------------------------

------------
SCF SETTINGS
------------
Hamiltonian:
 Density Functional     Method          .... DFT(GTOs)
 Exchange Functional    Exchange        .... B88
   X-Alpha parameter    XAlpha          ....  0.666667
   Becke's b parameter  XBeta           ....  0.004200
 Correlation Functional Correlation     .... LYP
 LDA part of GGA corr.  LDAOpt          .... VWN-3
 Gradients option       PostSCFGGA      .... off
 Hybrid DFT is turned on
   Fraction HF Exchange ScalHFX         ....  0.530000
   Scaling of DF-GGA-X  ScalDFX         ....  0.470000
   Scaling of DF-GGA-C  ScalDFC         ....  0.730000
   Scaling of DF-LDA-C  ScalLDAC        ....  0.730000
   Perturbative correction              ....  0.270000
   Density functional embedding theory  .... OFF
   NL short-range parameter             ....  7.800000
 RI-approximation to the Coulomb term is turned on
   Number of AuxJ basis functions       .... 979
   RIJ-COSX (HFX calculated with COS-X)).... on


General Settings:
 Integral files         IntName         .... b2plyp
 Hartree-Fock type      HFTyp           .... UHF
 Total Charge           Charge          ....    0
 Multiplicity           Mult            ....    5
 Number of Electrons    NEL             ....  214
 Basis Dimension        Dim             ....  445
 Nuclear Repulsion      ENuc            ....   3209.5975080383 Eh

Convergence Acceleration:
 DIIS                   CNVDIIS         .... on
   Start iteration      DIISMaxIt       ....     0
   Startup error        DIISStart       ....  0.200000
   # of expansion vecs  DIISMaxEq       ....     5
   Bias factor          DIISBfac        ....   1.050
   Max. coefficient     DIISMaxC        ....  10.000
 Trust-Rad. Augm. Hess. CNVTRAH         .... auto
   Auto Start mean grad. ratio tolernc. ....  1.125000
   Auto Start start iteration           ....   200
   Auto Start num. interpolation iter.  ....    10
   Max. Number of Micro iterations      ....    16
   Max. Number of Macro iterations      .... Maxiter - #DIIS iter
   Number of Davidson start vectors     ....     2
   Converg. threshold I  (grad. norm)   ....   5.000e-05
   Converg. threshold II (energy diff.) ....   1.000e-06
   Grad. Scal. Fac. for Micro threshold ....   0.100
   Minimum threshold for Micro iter.    ....   0.010
   NR start threshold (gradient norm)   ....   0.001
   Initial trust radius                 ....   0.400
   Minimum AH scaling param. (alpha)    ....   1.000
   Maximum AH scaling param. (alpha)    .... 1000.000
   Orbital update algorithm             .... Taylor
   White noise on init. David. guess    .... on
   Maximum white noise                  ....   0.010
   Quad. conv. algorithm                .... NR
 SOSCF                  CNVSOSCF        .... off
 Level Shifting         CNVShift        .... on
   Level shift para.    LevelShift      ....    0.2500
   Turn off err/grad.   ShiftErr        ....    0.0000
 Zerner damping         CNVZerner       .... off
 Static damping         CNVDamp         .... on
   Fraction old density DampFac         ....    0.9200
   Max. Damping (<1)    DampMax         ....    0.9800
   Min. Damping (>=0)   DampMin         ....    0.0000
   Turn off err/grad.   DampErr         ....    0.0030
 Fernandez-Rico         CNVRico         .... off

SCF Procedure:
 Maximum # iterations   MaxIter         ....   400
 SCF integral mode      SCFMode         .... Direct
   Integral package                     .... SHARK and LIBINT hybrid scheme
 Reset frequency        DirectResetFreq ....    20
 Integral Threshold     Thresh          ....  1.000e-10 Eh
 Primitive CutOff       TCut            ....  1.000e-11 Eh

Convergence Tolerance:
 Convergence Check Mode ConvCheckMode   .... Total+1el-Energy
 Convergence forced     ConvForced      .... 0
 Energy Change          TolE            ....  1.000e-06 Eh
 1-El. energy change                    ....  1.000e-03 Eh
 DIIS Error             TolErr          ....  1.000e-06


Diagonalization of the overlap matrix:
Smallest eigenvalue                        ... 1.700e-04
Time for diagonalization                   ...    0.047 sec
Threshold for overlap eigenvalues          ... 1.000e-08
Number of eigenvalues below threshold      ... 0
Time for construction of square roots      ...    0.040 sec
Total time needed                          ...    0.187 sec

Time for model grid setup =    0.603 sec

------------------------------
INITIAL GUESS: MODEL POTENTIAL
------------------------------
Loading Hartree-Fock densities                     ... done
  calling /media/Programs/ORCA501/orca b2plyp_atom79.inp > b2plyp_atom79.out in order to generate an atomic fitting density for atom 0 (Au with ECP) on-the-fly... 
    atom 0 (Au), assumed electronic state with S=2: 1s2 2s2 2p6 3s2 3p6 4s2 3d10 4p6 5s2 4d10 5p6 6s1 4f14 5d10           ... done
Calculating cut-offs                               ... done
Initializing the effective Hamiltonian             ... done
Setting up the integral package (SHARK)            ... done
Starting the Coulomb interaction                   ... done (   0.3 sec)
Reading the grid                                   ... done
Mapping shells                                     ... done
Starting the XC term evaluation                    ... done (   0.4 sec)
  promolecular density results
     # of electrons  =    814.011418397
     EX              =  -3721.206314203
     EC              =    -16.499482863
     EX+EC           =  -3737.705797065
Transforming the Hamiltonian                       ... done (   0.1 sec)
Diagonalizing the Hamiltonian                      ... done (   0.0 sec)
Back transforming the eigenvectors                 ... done (   0.0 sec)
Now organizing SCF variables                       ... done
                      ------------------
                      INITIAL GUESS DONE (   2.2 sec)
                      ------------------
-------------------
DFT GRID GENERATION
-------------------

General Integration Accuracy     IntAcc      ... 4.388
Radial Grid Type                 RadialGrid  ... OptM3 with GC (2021)
Angular Grid (max. ang.)         AngularGrid ... 4 (Lebedev-302)
Angular grid pruning method      GridPruning ... 4 (adaptive)
Weight generation scheme         WeightScheme... Becke
Basis function cutoff            BFCut       ... 1.0000e-10
Integration weight cutoff        WCut        ... 1.0000e-14
Angular grids for H and He will be reduced by one unit
Partially contracted basis set               ... off
Rotationally invariant grid construction     ... off

Total number of grid points                  ...   123136
Total number of batches                      ...     1928
Average number of points per batch           ...       63
Average number of grid points per atom       ...    11194
Time for grid setup =    1.729 sec

--------------------
COSX GRID GENERATION
--------------------

GRIDX 1
-------
General Integration Accuracy     IntAcc      ... 3.816
Radial Grid Type                 RadialGrid  ... OptM3 with GC (2021)
Angular Grid (max. ang.)         AngularGrid ... 1 (Lebedev-50)
Angular grid pruning method      GridPruning ... 4 (adaptive)
Weight generation scheme         WeightScheme... Becke
Basis function cutoff            BFCut       ... 1.0000e-10
Integration weight cutoff        WCut        ... 1.0000e-14
Angular grids for H and He will be reduced by one unit
Partially contracted basis set               ... on
Rotationally invariant grid construction     ... off

Total number of grid points                  ...    13048
Total number of batches                      ...      209
Average number of points per batch           ...       62
Average number of grid points per atom       ...     1186
UseSFitting                                  ... on

GRIDX 2
-------
General Integration Accuracy     IntAcc      ... 4.020
Radial Grid Type                 RadialGrid  ... OptM3 with GC (2021)
Angular Grid (max. ang.)         AngularGrid ... 2 (Lebedev-110)
Angular grid pruning method      GridPruning ... 4 (adaptive)
Weight generation scheme         WeightScheme... Becke
Basis function cutoff            BFCut       ... 1.0000e-10
Integration weight cutoff        WCut        ... 1.0000e-14
Angular grids for H and He will be reduced by one unit
Partially contracted basis set               ... on
Rotationally invariant grid construction     ... off

Total number of grid points                  ...    39286
Total number of batches                      ...      620
Average number of points per batch           ...       63
Average number of grid points per atom       ...     3571
UseSFitting                                  ... on

GRIDX 3
-------
General Integration Accuracy     IntAcc      ... 4.338
Radial Grid Type                 RadialGrid  ... OptM3 with GC (2021)
Angular Grid (max. ang.)         AngularGrid ... 3 (Lebedev-194)
Angular grid pruning method      GridPruning ... 4 (adaptive)
Weight generation scheme         WeightScheme... Becke
Basis function cutoff            BFCut       ... 1.0000e-10
Integration weight cutoff        WCut        ... 1.0000e-14
Angular grids for H and He will be reduced by one unit
Partially contracted basis set               ... on
Rotationally invariant grid construction     ... off

Total number of grid points                  ...    72294
Total number of batches                      ...     1134
Average number of points per batch           ...       63
Average number of grid points per atom       ...     6572
UseSFitting                                  ... on

Time for X-Grid setup             =    1.371 sec

--------------
SCF ITERATIONS
--------------
ITER       Energy         Delta-E        Max-DP      RMS-DP      [F,P]     Damp
               ***  Starting incremental Fock matrix formation  ***
  0  -2397.1129601978   0.000000000000 0.04485361  0.00050344  0.2726797 0.9200
  1  -2397.3439054828  -0.230945285014 0.04412769  0.00048806  0.2509836 0.9200
                               ***Turning on DIIS***
  2  -2397.4803350876  -0.136429604754 0.06304048  0.00041499  0.2307573 0.9200
  3  -2397.5470959184  -0.066760830869 0.06384109  0.00031317  0.2121840 0.9200
  4  -2397.6046834420  -0.057587523554 0.04201003  0.00026706  0.1951335 0.9200
  5  -2397.6571246688  -0.052441226790 0.03638470  0.00024978  0.1794789 0.9200
  6  -2397.7020812450  -0.044956576194 0.04283884  0.00023881  0.1651496 0.9200
  7  -2397.7474071705  -0.045325925550 0.04848938  0.00024831  0.1520139 0.9200
  8  -2397.7960074624  -0.048600291866 0.04702540  0.00023163  0.1399057 0.9200
  9  -2397.8398464620  -0.043838999597 0.03940049  0.00020049  0.1287179 0.9200
 10  -2397.8798636418  -0.040017179766 0.03144081  0.00018170  0.1183972 0.9200
 11  -2397.9157255103  -0.035861868520 0.03237404  0.00017230  0.1088997 0.9200
 12  -2397.9499857457  -0.034260235445 0.03387568  0.00016778  0.1001845 0.9200
 13  -2397.9831626926  -0.033176946913 0.03089536  0.00015674  0.0921815 0.9200
 14  -2398.0140076686  -0.030844976002 0.02500208  0.00014004  0.0848158 0.9200
 15  -2398.0425417928  -0.028534124173 0.02049999  0.00012815  0.0780271 0.9200
 16  -2398.0689139557  -0.026372162929 0.01972910  0.00012056  0.0717749 0.9200
 17  -2398.0936726701  -0.024758714345 0.01974235  0.00011464  0.0660278 0.9200
 18  -2398.1170556423  -0.023382972196 0.01790341  0.00010715  0.0607470 0.9200
 19  -2398.1389277988  -0.021872156528 0.01443524  0.00009801  0.0558900 0.9200
               *** Restarting incremental Fock matrix formation ***
                                   *** Resetting DIIS ***
 20  -2398.1590727792  -0.020144980423 0.01433618  0.00008642  0.0514173 0.9200
 21  -2398.1784999352  -0.019427155995 0.01284590  0.00007804  0.0473002 0.9200
 22  -2398.1965987818  -0.018098846544 0.01046372  0.00007199  0.0435258 0.9200
 23  -2398.2133933386  -0.016794556846 0.00893639  0.00006886  0.0400552 0.9200
 24  -2398.2289681915  -0.015574852927 0.00815554  0.00006668  0.0368630 0.9200
 25  -2398.2434312381  -0.014463046515 0.00777301  0.00006414  0.0339249 0.9200
 26  -2398.2568983847  -0.013467146598 0.00658986  0.00006085  0.0312181 0.9200
 27  -2398.2694296116  -0.012531226901 0.00499997  0.00005738  0.0287244 0.9200
 28  -2398.2810915561  -0.011661944582 0.00422497  0.00005435  0.0264287 0.9200
 29  -2398.2919511383  -0.010859582179 0.00418760  0.00005167  0.0243168 0.9200
 30  -2398.3020723125  -0.010121174205 0.00419692  0.00004915  0.0223747 0.9200
 31  -2398.3115092909  -0.009436978361 0.00407907  0.00004666  0.0205882 0.9200
 32  -2398.3203076969  -0.008798406056 0.00386310  0.00004428  0.0189441 0.9200
 33  -2398.3285102041  -0.008202507149 0.00367394  0.00004211  0.0174310 0.9200
 34  -2398.3361569438  -0.007646739695 0.00355670  0.00004012  0.0160385 0.9200
 35  -2398.3432855575  -0.007128613673 0.00346231  0.00003824  0.0147575 0.9200
 36  -2398.3499308120  -0.006645254504 0.00333583  0.00003646  0.0135790 0.9200
 37  -2398.3561245520  -0.006193740057 0.00317876  0.00003479  0.0124947 0.9200
 38  -2398.3618963136  -0.005771761601 0.00302667  0.00003324  0.0114968 0.9200
 39  -2398.3672736690  -0.005377355404 0.00289144  0.00003130  0.0107725 0.9200
               *** Restarting incremental Fock matrix formation ***
                                   *** Resetting DIIS ***
 40  -2398.3722844017  -0.005010732649 0.00200346  0.00002379  0.0103368 0.9200
 41  -2398.3770353039  -0.004750902260 0.00179991  0.00002087  0.0100480 0.9200
 42  -2398.3814542835  -0.004418979604 0.00180049  0.00002025  0.0097342 0.9200
 43  -2398.3855483585  -0.004094074920 0.00196909  0.00002078  0.0093902 0.9200
 44  -2398.3893359587  -0.003787600263 0.00250388  0.00002156  0.0090464 0.9200
 45  -2398.3928372473  -0.003501288539 0.00258072  0.00002158  0.0087053 0.9200
 46  -2398.3960790898  -0.003241842569 0.00267067  0.00002147  0.0083672 0.9200
 47  -2398.3990824960  -0.003003406226 0.00283789  0.00002132  0.0080157 0.9200
 48  -2398.4018664110  -0.002783914939 0.00300095  0.00002108  0.0076590 0.9200
 49  -2398.4044483489  -0.002581937867 0.00308704  0.00002073  0.0073117 0.9200
 50  -2398.4068441121  -0.002395763221 0.00309227  0.00002030  0.0069778 0.9200
 51  -2398.4090678639  -0.002223751796 0.00306550  0.00001980  0.0066530 0.9200
 52  -2398.4111325186  -0.002064654741 0.00311257  0.00001928  0.0063339 0.9200
 53  -2398.4130499798  -0.001917461227 0.00315760  0.00001877  0.0060223 0.9200
 54  -2398.4148311227  -0.001781142858 0.00318395  0.00001825  0.0057220 0.9200
 55  -2398.4164858717  -0.001654749006 0.00318410  0.00001773  0.0054339 0.9200
 56  -2398.4180233503  -0.001537478564 0.00315955  0.00001719  0.0051568 0.9200
 57  -2398.4194519601  -0.001428609852 0.00312185  0.00001665  0.0048894 0.9200
 58  -2398.4207794771  -0.001327517007 0.00307717  0.00001612  0.0046321 0.9200
 59  -2398.4220131167  -0.001233639599 0.00416721  0.00001568  0.0043858 0.9200
               *** Restarting incremental Fock matrix formation ***
                                   *** Resetting DIIS ***
 60  -2398.4231615073  -0.001148390597 0.00194237  0.00001023  0.0041507 0.9200
 61  -2398.4242501572  -0.001088649925 0.00137060  0.00000842  0.0040239 0.9200
 62  -2398.4252615335  -0.001011376256 0.00135980  0.00000813  0.0038940 0.9200
 63  -2398.4261972532  -0.000935719710 0.00157683  0.00000863  0.0037363 0.9200
 64  -2398.4270616352  -0.000864381941 0.00187291  0.00000942  0.0035607 0.9200
 65  -2398.4278591359  -0.000797500728 0.00199962  0.00000971  0.0035115 0.9200
 66  -2398.4285962168  -0.000737080878 0.00208584  0.00000995  0.0034354 0.9200
 67  -2398.4292776230  -0.000681406231 0.00215815  0.00001014  0.0033539 0.9200
 68  -2398.4299078722  -0.000630249227 0.00222811  0.00001025  0.0032907 0.9200
 69  -2398.4304913389  -0.000583466653 0.00228215  0.00001027  0.0032371 0.9200
 70  -2398.4310319574  -0.000540618556 0.00231411  0.00001023  0.0031766 0.9200
 71  -2398.4315332654  -0.000501307987 0.00231894  0.00001013  0.0031044 0.9200
 72  -2398.4319983949  -0.000465129440 0.00230220  0.00000999  0.0030304 0.9200
 73  -2398.4324302252  -0.000431830316 0.02837701  0.00012275  0.0029624 0.0000
 74  -2398.4379709655  -0.005540740325 0.01339738  0.00004157  0.0020755 0.0000
 75  -2398.4380765161  -0.000105550577 0.00522847  0.00002151  0.0020040 0.0000
 76  -2398.4381433910  -0.000066874896 0.00440516  0.00002047  0.0013068 0.0000
 77  -2398.4382050537  -0.000061662703 0.00356637  0.00001860  0.0015545 0.0000
 78  -2398.4382626560  -0.000057602287 0.00217446  0.00001512  0.0012897 0.0000
 79  -2398.4383132365  -0.000050580491 0.00396133  0.00001339  0.0012831 0.0000
               *** Restarting incremental Fock matrix formation ***
                                   *** Resetting DIIS ***
 80  -2398.4383483273  -0.000035090801 0.00408141  0.00001676  0.0012336 0.0000
 81  -2398.4383968492  -0.000048521912 0.00235233  0.00001445  0.0012906 0.0000
 82  -2398.4384429699  -0.000046120759 0.00169821  0.00001073  0.0012586 0.0000
 83  -2398.4384790327  -0.000036062736 0.00055035  0.00000437  0.0012347 0.0000
 84  -2398.4384914566  -0.000012423987 0.00039645  0.00000295  0.0013091 0.0000
               *** Restarting incremental Fock matrix formation ***
                                   *** Resetting DIIS ***
 85  -2398.4385306754  -0.000039218768 0.01768566  0.00012930  0.0014608 0.0000
 86  -2398.4386951622  -0.000164486758 0.00429539  0.00003795  0.0018159 0.0000
 87  -2398.4387613426  -0.000066180440 0.00296247  0.00002076  0.0017047 0.0000
 88  -2398.4388176206  -0.000056277943 0.00296546  0.00001740  0.0012393 0.0000
 89  -2398.4388746647  -0.000057044147 0.00287669  0.00001608  0.0013531 0.0000
 90  -2398.4389286666  -0.000054001885 0.00217786  0.00001281  0.0013187 0.0000
 91  -2398.4389739843  -0.000045317665 0.00123098  0.00000826  0.0013266 0.0000
 92  -2398.4390023248  -0.000028340580 0.00076184  0.00000509  0.0013115 0.0000
 93  -2398.4389930211   0.000009303775 0.00134849  0.00000795  0.0013563 0.0000
 94  -2398.4390208734  -0.000027852301 0.00141362  0.00000815  0.0012478 0.0000
 95  -2398.4390493687  -0.000028495373 0.00185665  0.00001118  0.0012246 0.0000
 96  -2398.4390880356  -0.000038666837 0.00301497  0.00001768  0.0013465 0.0000
 97  -2398.4391496551  -0.000061619573 0.00306447  0.00001754  0.0013553 0.0000
 98  -2398.4392096804  -0.000060025278 0.00246313  0.00001472  0.0013557 0.0000
 99  -2398.4392614653  -0.000051784835 0.00128350  0.00000921  0.0013145 0.0000
100  -2398.4392928042  -0.000031338927 0.00092215  0.00000633  0.0012876 0.0000
101  -2398.4392814717   0.000011332517 0.00147357  0.00000928  0.0013777 0.0000
102  -2398.4393139070  -0.000032435323 0.00150604  0.00000920  0.0012169 0.0000
103  -2398.4393458471  -0.000031940066 0.00181719  0.00001136  0.0011342 0.0000
104  -2398.4393849444  -0.000039097301 0.00319111  0.00002006  0.0012370 0.0000
               *** Restarting incremental Fock matrix formation ***
                                   *** Resetting DIIS ***
105  -2398.4394477281  -0.000062783733 0.00282737  0.00001735  0.0013147 0.0000
106  -2398.4395061363  -0.000058408186 0.00248448  0.00001617  0.0012645 0.0000
107  -2398.4395616901  -0.000055553845 0.00201653  0.00001387  0.0012557 0.0000
108  -2398.4396088754  -0.000047185306 0.00112530  0.00000810  0.0012130 0.0000
109  -2398.4396346315  -0.000025756067 0.00044786  0.00000434  0.0011371 0.0000
110  -2398.4396382160  -0.000003584518 0.00110201  0.00000765  0.0011983 0.0000
111  -2398.4396642195  -0.000026003439 0.00131542  0.00000921  0.0011199 0.0000
112  -2398.4396955548  -0.000031335380 0.00158851  0.00001165  0.0010297 0.0000
113  -2398.4397350297  -0.000039474864 0.00272298  0.00001927  0.0011640 0.0000
114  -2398.4397987654  -0.000063735713 0.00262194  0.00001749  0.0011862 0.0000
115  -2398.4398565839  -0.000057818462 0.00224666  0.00001538  0.0011511 0.0000
116  -2398.4399077964  -0.000051212508 0.00131402  0.00000957  0.0011202 0.0000
117  -2398.4399383506  -0.000030554262 0.00056160  0.00000523  0.0010750 0.0000
118  -2398.4399359190   0.000002431663 0.00152433  0.00001011  0.0010518 0.0000
119  -2398.4399693721  -0.000033453106 0.00148992  0.00001019  0.0009241 0.0000
120  -2398.4400031299  -0.000033757796 0.00169697  0.00001181  0.0009260 0.0000
121  -2398.4400423012  -0.000039171278 0.00263297  0.00001837  0.0010058 0.0000
122  -2398.4401020938  -0.000059792611 0.00254613  0.00001691  0.0010767 0.0000
123  -2398.4401572431  -0.000055149324 0.00192141  0.00001354  0.0010178 0.0000
124  -2398.4402016570  -0.000044413947 0.00094582  0.00000704  0.0010122 0.0000
               *** Restarting incremental Fock matrix formation ***
                                   *** Resetting DIIS ***
125  -2398.4402191884  -0.000017531344 0.00290968  0.00002019  0.0009664 0.0000
126  -2398.4402835315  -0.000064343141 0.00284639  0.00001847  0.0010664 0.0000
127  -2398.4403429920  -0.000059460471 0.00215411  0.00001533  0.0010108 0.0000
128  -2398.4403934759  -0.000050483937 0.00125055  0.00000911  0.0010265 0.0000
129  -2398.4404215747  -0.000028098787 0.00032797  0.00000461  0.0010229 0.0000
130  -2398.4404226054  -0.000001030679 0.00177683  0.00001182  0.0010026 0.0000
131  -2398.4404616708  -0.000039065419 0.00152690  0.00001088  0.0010272 0.0000
132  -2398.4404980222  -0.000036351347 0.00192907  0.00001437  0.0010436 0.0000
133  -2398.4405456314  -0.000047609244 0.00259348  0.00001885  0.0010708 0.0000
134  -2398.4406075281  -0.000061896683 0.00230381  0.00001674  0.0011033 0.0000
135  -2398.4406632630  -0.000055734903 0.00148601  0.00001044  0.0011216 0.0000
136  -2398.4406975337  -0.000034270660 0.00033118  0.00000452  0.0011214 0.0000
137  -2398.4406995191  -0.000001985407 0.00149538  0.00000997  0.0010979 0.0000
138  -2398.4407322471  -0.000032728088 0.00198621  0.00001419  0.0011133 0.0000
139  -2398.4407795885  -0.000047341332 0.00189279  0.00001363  0.0011392 0.0000
140  -2398.4408259122  -0.000046323689 0.00190781  0.00001351  0.0011584 0.0000
141  -2398.4408721567  -0.000046244482 0.00239809  0.00001682  0.0011765 0.0000
142  -2398.4409294796  -0.000057322957 0.00210336  0.00001433  0.0012015 0.0000
143  -2398.4409787300  -0.000049250379 0.00150173  0.00001003  0.0012123 0.0000
144  -2398.4410129769  -0.000034246918 0.00127302  0.00000845  0.0012114 0.0000
               *** Restarting incremental Fock matrix formation ***
                                   *** Resetting DIIS ***
145  -2398.4410399797  -0.000027002824 0.00326878  0.00002441  0.0012099 0.0000
146  -2398.4411220684  -0.000082088639 0.00326358  0.00002125  0.0012685 0.0000
147  -2398.4411956118  -0.000073543459 0.00259779  0.00001736  0.0012837 0.0000
148  -2398.4412568225  -0.000061210635 0.00130128  0.00000873  0.0012949 0.0000
149  -2398.4412845142  -0.000027691750 0.00061070  0.00000455  0.0012793 0.0000
150  -2398.4412931274  -0.000008613213 0.00237915  0.00001592  0.0012609 0.0000
151  -2398.4413496423  -0.000056514834 0.00207727  0.00001421  0.0012939 0.0000
152  -2398.4414006802  -0.000051037899 0.00250527  0.00001704  0.0013137 0.0000
153  -2398.4414621410  -0.000061460858 0.00290205  0.00001961  0.0013388 0.0000
154  -2398.4415327499  -0.000070608883 0.00253295  0.00001674  0.0013632 0.0000
155  -2398.4415939776  -0.000061227708 0.00164251  0.00000932  0.0013735 0.0000
156  -2398.4416263112  -0.000032333579 0.00113296  0.00000741  0.0013633 0.0000
157  -2398.4416521818  -0.000025870622 0.00234738  0.00001502  0.0013559 0.0000
158  -2398.4417074476  -0.000055265812 0.00244324  0.00001560  0.0013765 0.0000
159  -2398.4417654951  -0.000058047503 0.00216692  0.00001399  0.0013921 0.0000
160  -2398.4418182438  -0.000052748712 0.00249483  0.00001638  0.0014020 0.0000
161  -2398.4418801704  -0.000061926559 0.00285474  0.00001860  0.0014213 0.0000
162  -2398.4419504215  -0.000070251056 0.00246581  0.00001585  0.0014400 0.0000
163  -2398.4420108324  -0.000060410900 0.00189048  0.00001181  0.0014468 0.0000
164  -2398.4420553972  -0.000044564850 0.00177610  0.00001149  0.0014443 0.0000
               *** Restarting incremental Fock matrix formation ***
                                   *** Resetting DIIS ***
165  -2398.4420982060  -0.000042808795 0.00441489  0.00002839  0.0014455 0.0000
166  -2398.4422042063  -0.000106000334 0.00391918  0.00002541  0.0014955 0.0000
167  -2398.4422998120  -0.000095605686 0.00338075  0.00002142  0.0015078 0.0000
168  -2398.4423833621  -0.000083550084 0.00254215  0.00001428  0.0015158 0.0000
169  -2398.4424380557  -0.000054693606 0.00142332  0.00000704  0.0015059 0.0000
170  -2398.4424596276  -0.000021571930 0.00273097  0.00001764  0.0014842 0.0000
171  -2398.4425287569  -0.000069129240 0.00278805  0.00001773  0.0015097 0.0000
172  -2398.4425991190  -0.000070362134 0.00320063  0.00002091  0.0015259 0.0000
173  -2398.4426814927  -0.000082373730 0.00340105  0.00002174  0.0015434 0.0000
174  -2398.4427680950  -0.000086602253 0.00310162  0.00001970  0.0015560 0.0000
175  -2398.4428466565  -0.000078561457 0.00254868  0.00001575  0.0015600 0.0000
176  -2398.4429096542  -0.000062997760 0.00240042  0.00001528  0.0015555 0.0000
177  -2398.4429709073  -0.000061253087 0.00278207  0.00001768  0.0015550 0.0000
178  -2398.4430424834  -0.000071576119 0.00306756  0.00001980  0.0015632 0.0000
179  -2398.4431224265  -0.000079943108 0.00330253  0.00002126  0.0015738 0.0000
180  -2398.4432085956  -0.000086169061 0.00340326  0.00002209  0.0015836 0.0000
181  -2398.4432980986  -0.000089503063 0.00336579  0.00002181  0.0015912 0.0000
182  -2398.4433868630  -0.000088764387 0.00327461  0.00002139  0.0015954 0.0000
183  -2398.4434738255  -0.000086962475 0.00337465  0.00002203  0.0015975 0.0000
184  -2398.4435636820  -0.000089856479 0.00455023  0.00002423  0.0016010 0.0000
               *** Restarting incremental Fock matrix formation ***
                                   *** Resetting DIIS ***
185  -2398.4436578890  -0.000094206981 0.00475289  0.00002997  0.0016055 0.0000
186  -2398.4437771815  -0.000119292482 0.00442725  0.00002912  0.0016199 0.0000
187  -2398.4438944356  -0.000117254108 0.00428346  0.00002817  0.0016227 0.0000
188  -2398.4440090388  -0.000114603211 0.00439701  0.00002795  0.0016239 0.0000
189  -2398.4441222026  -0.000113163818 0.00425467  0.00002891  0.0016215 0.0000
190  -2398.4442400506  -0.000117848032 0.00475244  0.00003088  0.0016213 0.0000
191  -2398.4443637971  -0.000123746498 0.00435082  0.00002970  0.0016201 0.0000
192  -2398.4444845495  -0.000120752342 0.00502677  0.00002931  0.0016148 0.0000
193  -2398.4446001561  -0.000115606609 0.00479469  0.00003321  0.0016062 0.0000
194  -2398.4447336294  -0.000133473296 0.00541425  0.00003407  0.0016055 0.0000
195  -2398.4448663766  -0.000132747201 0.00557223  0.00003993  0.0015971 0.0000
196  -2398.4450229775  -0.000156600977 0.00559009  0.00003596  0.0015977 0.0000
197  -2398.4451619093  -0.000138931769 0.00665539  0.00005039  0.0015797 0.0000
198  -2398.4453508491  -0.000188939801 0.00496435  0.00002427  0.0015878 0.0000
199  -2398.4454434306  -0.000092581522 0.00649768  0.00005044  0.0015325 0.0000

 WARNING: the maximum gradient error descreased on average only by a factor   1.0
          during the last 200 iterations

                      *** Initiating the TRAH-SCF procedure ***


TRAH GRIDX
----------

General Integration Accuracy     IntAcc      ... 3.067
Radial Grid Type                 RadialGrid  ... OptM3 with GC (2021)
Angular Grid (max. ang.)         AngularGrid ... 1 (Lebedev-50)
Angular grid pruning method      GridPruning ... 4 (adaptive)
Weight generation scheme         WeightScheme... Becke
Basis function cutoff            BFCut       ... 1.0000e-10
Integration weight cutoff        WCut        ... 1.0000e-14
Angular grids for H and He will be reduced by one unit
Partially contracted basis set               ... on
Rotationally invariant grid construction     ... off

Total number of grid points                  ...     9756
Total number of batches                      ...      158
Average number of points per batch           ...       61
Average number of grid points per atom       ...      887


TRAH GRID
---------

General Integration Accuracy     IntAcc      ... 3.467
Radial Grid Type                 RadialGrid  ... OptM3 with GC (2021)
Angular Grid (max. ang.)         AngularGrid ... 1 (Lebedev-50)
Angular grid pruning method      GridPruning ... 4 (adaptive)
Weight generation scheme         WeightScheme... Becke
Basis function cutoff            BFCut       ... 1.0000e-10
Integration weight cutoff        WCut        ... 1.0000e-14
Angular grids for H and He will be reduced by one unit
Partially contracted basis set               ... off
Rotationally invariant grid construction     ... off

Total number of grid points                  ...    53156
Total number of batches                      ...      837
Average number of points per batch           ...       63
Average number of grid points per atom       ...     4832

 --------------------------------------------------------------------------------------------
   Iter.        energy            ||Error||_2        Shift      TRadius  Mac/Mic        Rej.
 --------------------------------------------------------------------------------------------
    0      -2398.445623788026     4.738151e-03                     0.400 (TRAH MAcro)   No
    0     dE    -2.137756e-05     1.141183e-02    -2.1377e-05      0.005 (TRAH MIcro)
    0     dE    -1.478042e-03     3.651275e-02    -1.3346e-03      0.328 (TRAH MIcro)
    0     dE    -2.191896e-03     1.737664e-02    -3.4739e-03      0.400 (TRAH MIcro)
    0     dE    -2.590891e-03     9.854710e-03    -6.2939e-03      0.394 (TRAH MIcro)
    0     dE    -2.671777e-03     5.135356e-03    -6.4733e-03      0.400 (TRAH MIcro)
    0     dE    -2.693648e-03     4.306189e-03    -6.6139e-03      0.400 (TRAH MIcro)
    0     dE    -2.704175e-03     2.960926e-03    -6.6803e-03      0.400 (TRAH MIcro)
    0     dE    -2.712250e-03     2.830719e-03    -6.7349e-03      0.400 (TRAH MIcro)
    0     dE    -2.718799e-03     2.252134e-03    -6.7859e-03      0.400 (TRAH MIcro)
    0     dE    -2.721596e-03     9.900425e-04    -6.8086e-03      0.400 (TRAH MIcro)
    0     dE    -2.722197e-03     5.413231e-04    -6.8122e-03      0.400 (TRAH MIcro)
    0     dE    -2.722377e-03     2.973750e-04    -6.8131e-03      0.400 (TRAH MIcro)
    1      -2398.447883794803     1.392609e-02                     0.480 (TRAH MAcro)   No
    1     dE    -6.194888e-05     1.254982e-02    -6.1948e-05      0.004 (TRAH MIcro)
    1     dE    -2.562519e-04     8.640051e-03    -2.5581e-04      0.042 (TRAH MIcro)
    1     dE    -3.329297e-04     8.734721e-03    -3.3130e-04      0.070 (TRAH MIcro)
    1     dE    -4.716105e-04     1.201492e-02    -4.6256e-04      0.140 (TRAH MIcro)
    1     dE    -5.402885e-04     1.038581e-02    -5.2398e-04      0.176 (TRAH MIcro)
    1     dE    -6.009412e-04     4.344154e-03    -5.7557e-04      0.210 (TRAH MIcro)
    1     dE    -6.246042e-04     4.077162e-03    -5.9504e-04      0.223 (TRAH MIcro)
    1     dE    -6.383005e-04     2.929296e-03    -6.0616e-04      0.230 (TRAH MIcro)
    1     dE    -6.486727e-04     2.888897e-03    -6.1455e-04      0.236 (TRAH MIcro)
    1     dE    -6.642063e-04     3.762844e-03    -6.2712e-04      0.243 (TRAH MIcro)
    1     dE    -6.755687e-04     2.031647e-03    -6.3614e-04      0.249 (TRAH MIcro)
    1     dE    -6.828739e-04     1.418032e-03    -6.4186e-04      0.253 (TRAH MIcro)
    1     dE    -6.845600e-04     8.726128e-04    -6.4319e-04      0.254 (TRAH MIcro)
    2      -2398.448657481320     3.862869e-03                     0.576 (TRAH MAcro)   No
    2     dE    -4.725277e-06     8.735690e-03    -4.7253e-06      0.001 (TRAH MIcro)
    2     dE    -3.494913e-05     4.444539e-03    -3.4938e-05      0.017 (TRAH MIcro)
    2     dE    -4.364900e-05     4.250507e-03    -4.3621e-05      0.026 (TRAH MIcro)
    2     dE    -6.184307e-05     5.803245e-03    -6.1695e-05      0.049 (TRAH MIcro)
    2     dE    -7.760741e-05     6.936723e-03    -7.7217e-05      0.071 (TRAH MIcro)
    2     dE    -9.874077e-05     5.568701e-03    -9.7699e-05      0.103 (TRAH MIcro)
    2     dE    -1.108452e-04     5.086858e-03    -1.0922e-04      0.122 (TRAH MIcro)
    2     dE    -1.199113e-04     2.707126e-03    -1.1773e-04      0.136 (TRAH MIcro)
    2     dE    -1.285058e-04     3.761492e-03    -1.2572e-04      0.149 (TRAH MIcro)
    2     dE    -1.425851e-04     4.294629e-03    -1.3863e-04      0.169 (TRAH MIcro)
    2     dE    -1.646218e-04     4.177659e-03    -1.5811e-04      0.203 (TRAH MIcro)
    2     dE    -1.856126e-04     4.848013e-03    -1.7575e-04      0.237 (TRAH MIcro)
    2     dE    -2.180684e-04     4.992738e-03    -2.0117e-04      0.290 (TRAH MIcro)
    2     dE    -2.708403e-04     8.874534e-03    -2.3776e-04      0.373 (TRAH MIcro)
    3      -2398.449030960295     1.832354e-02                     0.691 (TRAH MAcro)   No
    3     dE    -2.816726e-05     6.072767e-02    -2.8167e-05      0.002 (TRAH MIcro)
    3     dE    -2.480778e-04     1.953664e-02    -2.4797e-04      0.020 (TRAH MIcro)
    3     dE    -5.264601e-04     1.504194e-02    -5.2468e-04      0.058 (TRAH MIcro)
    3     dE    -6.452529e-04     1.062602e-02    -6.4089e-04      0.083 (TRAH MIcro)
    3     dE    -9.078203e-04     2.198903e-02    -8.8754e-04      0.151 (TRAH MIcro)
    3     dE    -1.186937e-03     1.765437e-02    -1.1266e-03      0.231 (TRAH MIcro)
    3     dE    -2.133368e-03     3.216213e-02    -1.7440e-03      0.472 (TRAH MIcro)
    3     dE    -3.438842e-03     3.062413e-02    -2.4826e-03      0.691 (TRAH MIcro)
    3     dE    -3.849396e-03     1.230707e-02    -3.4466e-03      0.691 (TRAH MIcro)
    3     dE    -3.993969e-03     1.449274e-02    -3.7854e-03      0.691 (TRAH MIcro)
    3     dE    -4.089002e-03     7.582510e-03    -4.0075e-03      0.691 (TRAH MIcro)
    3     dE    -4.132393e-03     5.142501e-03    -4.1134e-03      0.691 (TRAH MIcro)
    3     dE    -4.160093e-03     4.821129e-03    -4.1827e-03      0.691 (TRAH MIcro)
    3     dE    -4.174974e-03     3.261463e-03    -4.2218e-03      0.691 (TRAH MIcro)
 ---------------------------------
          TRAH Step control 
 ---------------------------------
  predicted energy change = -0.004175
  actual energy  change   = 0.007524
  energy change ratio     = -1.802235
  old trust radius        = 0.691200
  new trust radius        = 0.483840
  reject step?            =  1
    4      -2398.449030960295     3.862869e-03                     0.484 (TRAH MAcro)  Yes
    5      -2398.449030960294     1.832354e-02                     0.484 (TRAH MAcro)   No
    5     dE    -2.816662e-05     6.072816e-02    -2.8167e-05      0.002 (TRAH MIcro)
    5     dE    -2.480692e-04     1.952932e-02    -2.4797e-04      0.020 (TRAH MIcro)
    5     dE    -5.264584e-04     1.504051e-02    -5.2467e-04      0.058 (TRAH MIcro)
    5     dE    -6.452484e-04     1.062506e-02    -6.4088e-04      0.083 (TRAH MIcro)
    5     dE    -9.078196e-04     2.198540e-02    -8.8754e-04      0.151 (TRAH MIcro)
    5     dE    -1.186943e-03     1.765632e-02    -1.1266e-03      0.231 (TRAH MIcro)
    5     dE    -2.133336e-03     3.215635e-02    -1.7440e-03      0.472 (TRAH MIcro)
    5     dE    -2.666960e-03     1.996039e-02    -4.1496e-03      0.484 (TRAH MIcro)
    5     dE    -2.849885e-03     8.237228e-03    -5.0623e-03      0.484 (TRAH MIcro)
    5     dE    -2.914762e-03     9.662644e-03    -5.3833e-03      0.484 (TRAH MIcro)
    5     dE    -2.956542e-03     4.922636e-03    -5.5885e-03      0.484 (TRAH MIcro)
    5     dE    -2.789369e-03     2.948461e-03    -6.0795e-03      0.450 (TRAH MIcro)
    5     dE    -2.813711e-03     2.663525e-03    -6.0989e-03      0.453 (TRAH MIcro)
    5     dE    -2.826359e-03     1.777321e-03    -6.1086e-03      0.454 (TRAH MIcro)
    6      -2398.449662859750     3.421922e-02                     0.339 (TRAH MAcro)   No
    6     dE    -3.580489e-04     4.985508e-02    -3.5801e-04      0.010 (TRAH MIcro)
    6     dE    -1.260202e-03     2.055094e-02    -1.2548e-03      0.066 (TRAH MIcro)
    6     dE    -1.382781e-03     6.106928e-03    -1.3740e-03      0.080 (TRAH MIcro)
    6     dE    -1.422446e-03     3.949494e-03    -1.4119e-03      0.087 (TRAH MIcro)
    6     dE    -1.431435e-03     2.180870e-03    -1.4204e-03      0.088 (TRAH MIcro)
    7      -2398.451179177491     3.479935e-03                     0.406 (TRAH MAcro)   No
    7     dE    -2.050613e-07     6.434664e-03    -2.0510e-07      0.000 (TRAH MIcro)
    7     dE    -1.206648e-05     4.243263e-03    -1.2066e-05      0.006 (TRAH MIcro)
    7     dE    -2.893777e-05     2.346675e-03    -2.8929e-05      0.017 (TRAH MIcro)
    7     dE    -3.704829e-05     2.551348e-03    -3.7025e-05      0.025 (TRAH MIcro)
    7     dE    -4.375448e-05     2.294137e-03    -4.3708e-05      0.033 (TRAH MIcro)
    7     dE    -5.095180e-05     3.082184e-03    -5.0857e-05      0.043 (TRAH MIcro)
    7     dE    -6.257181e-05     3.069838e-03    -6.2328e-05      0.063 (TRAH MIcro)
    7     dE    -6.620274e-05     1.674343e-03    -6.5889e-05      0.069 (TRAH MIcro)
    7     dE    -6.925949e-05     1.705248e-03    -6.8876e-05      0.075 (TRAH MIcro)
    7     dE    -7.236060e-05     2.129051e-03    -7.1893e-05      0.081 (TRAH MIcro)
    7     dE    -7.517665e-05     1.367746e-03    -7.4616e-05      0.087 (TRAH MIcro)
    7     dE    -7.631269e-05     8.451686e-04    -7.5710e-05      0.089 (TRAH MIcro)
    7     dE    -7.678204e-05     6.925704e-04    -7.6160e-05      0.090 (TRAH MIcro)
    7     dE    -7.700400e-05     3.595281e-04    -7.6373e-05      0.091 (TRAH MIcro)
    8      -2398.451266194685     1.192263e-03                     0.488 (TRAH MAcro)   No
    8     dE    -3.915246e-07     3.778177e-03    -3.9152e-07      0.000 (TRAH MIcro)
    8     dE    -2.284055e-06     2.592243e-03    -2.2840e-06      0.004 (TRAH MIcro)
    8     dE    -2.894943e-06     6.954169e-04    -2.8949e-06      0.005 (TRAH MIcro)
    8     dE    -3.753229e-06     9.545706e-04    -3.7530e-06      0.008 (TRAH MIcro)
    8     dE    -4.398255e-06     7.957428e-04    -4.3977e-06      0.011 (TRAH MIcro)
    8     dE    -5.319252e-06     1.181199e-03    -5.3179e-06      0.016 (TRAH MIcro)
    8     dE    -6.415095e-06     9.485597e-04    -6.4119e-06      0.022 (TRAH MIcro)
    8     dE    -6.870618e-06     5.391344e-04    -6.8663e-06      0.025 (TRAH MIcro)
    8     dE    -7.135756e-06     6.973614e-04    -7.1306e-06      0.027 (TRAH MIcro)
    8     dE    -7.509095e-06     9.399562e-04    -7.5026e-06      0.029 (TRAH MIcro)
    8     dE    -7.811945e-06     1.156521e-03    -7.8042e-06      0.032 (TRAH MIcro)
    8     dE    -7.974916e-06     5.360583e-04    -7.9663e-06      0.033 (TRAH MIcro)
    8     dE    -8.038009e-06     6.048396e-04    -8.0291e-06      0.033 (TRAH MIcro)
    8     dE    -8.071334e-06     4.064600e-04    -8.0622e-06      0.034 (TRAH MIcro)
    9      -2398.451274447867     4.383264e-04                           (NR   MAcro)
    9     dE    -2.652603e-08     2.359472e-04                           (NR   MIcro)
    9     dE    -6.016983e-08     2.962951e-04                           (NR   MIcro)
    9     dE    -7.812244e-08     3.170329e-04                           (NR   MIcro)
    9     dE    -1.039244e-07     2.517360e-04                           (NR   MIcro)
    9     dE    -1.263292e-07     4.504481e-04                           (NR   MIcro)
    9     dE    -1.538263e-07     1.902365e-04                           (NR   MIcro)
    9     dE    -1.869961e-07     4.561518e-04                           (NR   MIcro)
    9     dE    -2.150986e-07     3.252080e-04                           (NR   MIcro)
    9     dE    -2.466511e-07     3.377062e-04                           (NR   MIcro)
    9     dE    -2.768476e-07     4.413282e-04                           (NR   MIcro)
    9     dE    -3.256189e-07     2.193416e-04                           (NR   MIcro)
    9     dE    -3.599450e-07     3.730725e-04                           (NR   MIcro)
    9     dE    -4.056244e-07     2.313595e-04                           (NR   MIcro)
    9     dE    -4.629440e-07     4.259706e-04                           (NR   MIcro)
    9     dE    -6.041842e-07     8.100644e-04                           (NR   MIcro)
   10      -2398.451274966187     8.103037e-04                           (NR   MAcro)
   10     dE    -9.131631e-08     3.045404e-04                           (NR   MIcro)
   10     dE    -1.500555e-07     4.150465e-04                           (NR   MIcro)
   10     dE    -2.160833e-07     5.297803e-04                           (NR   MIcro)
   10     dE    -2.752730e-07     2.879218e-04                           (NR   MIcro)
   10     dE    -3.645384e-07     7.051587e-04                           (NR   MIcro)
   10     dE    -4.671236e-07     9.241696e-04                           (NR   MIcro)
   10     dE    -5.677286e-07     2.817570e-04                           (NR   MIcro)
   10     dE    -6.606094e-07     8.768183e-04                           (NR   MIcro)
   10     dE    -8.051355e-07     5.941602e-04                           (NR   MIcro)
   10     dE    -1.059018e-06     1.186616e-03                           (NR   MIcro)
   10     dE    -1.344407e-06     1.186991e-03                           (NR   MIcro)
   10     dE    -1.619580e-06     5.689341e-04                           (NR   MIcro)
   10     dE    -1.826649e-06     1.139831e-03                           (NR   MIcro)
   10     dE    -2.118729e-06     6.286561e-04                           (NR   MIcro)
   10     dE    -2.473366e-06     1.162032e-03                           (NR   MIcro)
   11      -2398.451277408496     1.208014e-03                     0.585 (TRAH MAcro)   No
   11     dE    -5.991890e-09     9.834521e-04    -7.1381e-09      0.000 (TRAH MIcro)
   11     dE    -4.610065e-07     5.166086e-04    -4.6101e-07      0.001 (TRAH MIcro)
   11     dE    -8.961043e-07     6.111700e-04    -8.9610e-07      0.003 (TRAH MIcro)
   11     dE    -1.155815e-06     4.892330e-04    -1.1558e-06      0.004 (TRAH MIcro)
   11     dE    -1.460974e-06     6.236326e-04    -1.4609e-06      0.006 (TRAH MIcro)
   11     dE    -1.899399e-06     8.347217e-04    -1.8992e-06      0.010 (TRAH MIcro)
   11     dE    -2.402102e-06     7.366404e-04    -2.4016e-06      0.015 (TRAH MIcro)
   11     dE    -3.051117e-06     7.911120e-04    -3.0498e-06      0.021 (TRAH MIcro)
   11     dE    -3.597553e-06     6.401602e-04    -3.5949e-06      0.027 (TRAH MIcro)
   11     dE    -3.992721e-06     5.742027e-04    -3.9887e-06      0.032 (TRAH MIcro)
   11     dE    -4.564654e-06     9.358488e-04    -4.5577e-06      0.039 (TRAH MIcro)
   11     dE    -5.446601e-06     8.308815e-04    -5.4325e-06      0.051 (TRAH MIcro)
   11     dE    -6.136621e-06     8.336080e-04    -6.1139e-06      0.061 (TRAH MIcro)
   11     dE    -6.732736e-06     7.748984e-04    -6.6999e-06      0.070 (TRAH MIcro)
   12      -2398.451283487344     8.582073e-04                           (NR   MAcro)
   12     dE    -4.691956e-07     5.293857e-04                           (NR   MIcro)
   12     dE    -8.533542e-07     6.963888e-04                           (NR   MIcro)
   12     dE    -1.141379e-06     6.454168e-04                           (NR   MIcro)
   12     dE    -1.518158e-06     6.597397e-04                           (NR   MIcro)
   12     dE    -2.134499e-06     9.256877e-04                           (NR   MIcro)
   12     dE    -2.745147e-06     7.517086e-04                           (NR   MIcro)
   12     dE    -3.324137e-06     7.477352e-04                           (NR   MIcro)
   12     dE    -3.910793e-06     8.917149e-04                           (NR   MIcro)
   12     dE    -4.769034e-06     9.665978e-04                           (NR   MIcro)
   12     dE    -5.959049e-06     1.586408e-03                           (NR   MIcro)
   12     dE    -7.764497e-06     1.278299e-03                           (NR   MIcro)
   12     dE    -9.489347e-06     1.363275e-03                           (NR   MIcro)
   12     dE    -1.109992e-05     1.593576e-03                           (NR   MIcro)
   12     dE    -1.399929e-05     1.452982e-03                           (NR   MIcro)
   12     dE    -1.643752e-05     1.800234e-03                           (NR   MIcro)
   13      -2398.451281713317     2.752844e-03                     0.702 (TRAH MAcro)   No
   13     dE    -4.919887e-07     1.045589e-02    -4.9200e-07      0.000 (TRAH MIcro)
   13     dE    -9.762056e-06     4.437231e-03    -9.7618e-06      0.006 (TRAH MIcro)
   13     dE    -1.432611e-05     2.136002e-03    -1.4325e-05      0.010 (TRAH MIcro)
   13     dE    -1.559278e-05     1.215998e-03    -1.5591e-05      0.011 (TRAH MIcro)
   13     dE    -1.711448e-05     2.047862e-03    -1.7111e-05      0.014 (TRAH MIcro)
   13     dE    -1.866817e-05     1.235143e-03    -1.8662e-05      0.018 (TRAH MIcro)
   13     dE    -1.985695e-05     1.130532e-03    -1.9848e-05      0.022 (TRAH MIcro)
   13     dE    -2.099446e-05     9.098265e-04    -2.0981e-05      0.026 (TRAH MIcro)
   13     dE    -2.156462e-05     5.950143e-04    -2.1548e-05      0.028 (TRAH MIcro)
   13     dE    -2.200122e-05     5.513547e-04    -2.1982e-05      0.029 (TRAH MIcro)
   13     dE    -2.250088e-05     8.374879e-04    -2.2479e-05      0.032 (TRAH MIcro)
   13     dE    -2.320809e-05     7.975501e-04    -2.3180e-05      0.035 (TRAH MIcro)
   13     dE    -2.387006e-05     7.635503e-04    -2.3834e-05      0.039 (TRAH MIcro)
   13     dE    -2.431717e-05     5.377549e-04    -2.4275e-05      0.042 (TRAH MIcro)
   14      -2398.451305655668     5.837646e-04                           (NR   MAcro)
   14     dE    -2.104284e-07     3.753775e-04                           (NR   MIcro)
   14     dE    -4.081216e-07     4.600975e-04                           (NR   MIcro)
   14     dE    -5.458668e-07     4.025035e-04                           (NR   MIcro)
   14     dE    -6.993534e-07     3.564132e-04                           (NR   MIcro)
   14     dE    -8.580472e-07     4.016564e-04                           (NR   MIcro)
   14     dE    -9.889407e-07     2.987324e-04                           (NR   MIcro)
   14     dE    -1.084639e-06     2.597953e-04                           (NR   MIcro)
   14     dE    -1.143799e-06     2.217397e-04                           (NR   MIcro)
   14     dE    -1.197718e-06     2.335609e-04                           (NR   MIcro)
   14     dE    -1.260320e-06     2.844282e-04                           (NR   MIcro)
   14     dE    -1.331388e-06     2.754793e-04                           (NR   MIcro)
   14     dE    -1.407352e-06     2.093563e-04                           (NR   MIcro)
   14     dE    -1.454087e-06     2.049379e-04                           (NR   MIcro)
   14     dE    -1.497269e-06     1.861767e-04                           (NR   MIcro)
   14     dE    -1.532013e-06     1.844735e-04                           (NR   MIcro)
   15      -2398.451307048477     1.849158e-04                           (NR   MAcro)
   15     dE    -1.751468e-08     1.024331e-04                           (NR   MIcro)
   15     dE    -3.605994e-08     1.551844e-04                           (NR   MIcro)
   15     dE    -4.827790e-08     1.273437e-04                           (NR   MIcro)
   15     dE    -5.776066e-08     9.919268e-05                           (NR   MIcro)
   15     dE    -6.903265e-08     1.210399e-04                           (NR   MIcro)
   15     dE    -7.672758e-08     8.843388e-05                           (NR   MIcro)
   15     dE    -8.209596e-08     5.921972e-05                           (NR   MIcro)
   15     dE    -8.521125e-08     7.149317e-05                           (NR   MIcro)
   15     dE    -9.043786e-08     7.256159e-05                           (NR   MIcro)
   15     dE    -9.619530e-08     8.288159e-05                           (NR   MIcro)
   15     dE    -1.037202e-07     8.933717e-05                           (NR   MIcro)
   15     dE    -1.117532e-07     7.935770e-05                           (NR   MIcro)
   15     dE    -1.184890e-07     8.359388e-05                           (NR   MIcro)
   15     dE    -1.249055e-07     6.248953e-05                           (NR   MIcro)
   15     dE    -1.293647e-07     7.955095e-05                           (NR   MIcro)
   16      -2398.451307154738     8.027593e-05                           (NR   MAcro)
   16     dE    -3.065224e-09     3.994962e-05                           (NR   MIcro)
   16     dE    -6.161917e-09     5.749080e-05                           (NR   MIcro)
   16     dE    -8.711004e-09     4.861617e-05                           (NR   MIcro)
   16     dE    -1.097208e-08     4.282036e-05                           (NR   MIcro)
   16     dE    -1.249032e-08     4.048634e-05                           (NR   MIcro)
   16     dE    -1.332405e-08     3.232808e-05                           (NR   MIcro)
   16     dE    -1.414522e-08     2.670377e-05                           (NR   MIcro)
   16     dE    -1.472971e-08     2.308270e-05                           (NR   MIcro)
   16     dE    -1.515925e-08     1.992055e-05                           (NR   MIcro)
   16     dE    -1.567887e-08     2.929338e-05                           (NR   MIcro)
   16     dE    -1.633244e-08     3.009575e-05                           (NR   MIcro)
   16     dE    -1.723233e-08     2.680700e-05                           (NR   MIcro)
   16     dE    -1.803530e-08     3.422962e-05                           (NR   MIcro)
   16     dE    -1.891055e-08     2.008491e-05                           (NR   MIcro)
   16     dE    -1.946648e-08     2.829178e-05                           (NR   MIcro)
   17      -2398.451307175070     2.829814e-05                           (NR   MAcro)

               *****************************************************
               *                     SUCCESS                       *
               *           SCF CONVERGED AFTER 435 CYCLES          *
               *****************************************************

Old exchange energy                            =    -88.430704280 Eh
New exchange energy                            =    -88.430699108 Eh
Exchange energy change after final integration =      0.000005172 Eh
Total energy after final integration           =  -2398.451302003 Eh
Final COS-X integration done in                =    16.525 sec

----------------
TOTAL SCF ENERGY
----------------

Total Energy       :        -2398.45130200 Eh          -65265.17795 eV

Components:
Nuclear Repulsion  :         3209.59750804 Eh           87337.58835 eV
Electronic Energy  :        -5608.04881004 Eh         -152602.76630 eV
One Electron Energy:       -10239.80356136 Eh         -278639.22065 eV
Two Electron Energy:         4631.75475132 Eh          126036.45435 eV
Max COSX asymmetry :            0.00000346 Eh               0.00009 eV

Virial components:
Potential Energy   :        -3901.31936126 Eh         -106160.29691 eV
Kinetic Energy     :         1502.86805926 Eh           40895.11896 eV
Virial Ratio       :            2.59591608


DFT components:
N(Alpha)           :      108.999991012267 electrons
N(Beta)            :      104.999992552789 electrons
N(Total)           :      213.999983565056 electrons
E(X)               :      -79.621669675144 Eh       
E(C)               :       -5.895583077465 Eh       
E(XC)              :      -85.517252752609 Eh       
DFET-embed. en.    :        0.000000000000 Eh       

---------------
SCF CONVERGENCE
---------------

  Last Energy change         ...   -2.0332e-08  Tolerance :   1.0000e-06
  Last Orbital Gradient      ...    2.8298e-05  Tolerance :   5.0000e-05
  Last Orbital Rotation      ...    2.4517e-03

             **** THE GBW FILE WAS UPDATED (b2plyp.gbw) ****
             **** DENSITY b2plyp.scfp WAS UPDATED ****
             **** ENERGY FILE WAS UPDATED (b2plyp.en.tmp) ****
----------------------
UHF SPIN CONTAMINATION
----------------------

Warning: in a DFT calculation there is little theoretical justification to 
         calculate <S**2> as in Hartree-Fock theory. We will do it anyways
         but you should keep in mind that the values have only limited relevance

Expectation value of <S**2>     :     6.990203
Ideal value S*(S+1) for S=2.0   :     6.000000
Deviation                       :     0.990203

             **** THE GBW FILE WAS UPDATED (b2plyp.gbw) ****
             **** DENSITY b2plyp.scfp WAS UPDATED ****
----------------
ORBITAL ENERGIES
----------------
                 SPIN UP ORBITALS
  NO   OCC          E(Eh)            E(eV) 
   0   1.0000    -217.745837     -5925.1655 
   1   1.0000     -25.432758      -692.0605 
   2   1.0000     -21.571793      -586.9983 
   3   1.0000     -21.571461      -586.9893 
   4   1.0000     -21.567059      -586.8695 
   5   1.0000      -4.398620      -119.6925 
   6   1.0000      -4.398558      -119.6908 
   7   1.0000      -4.389631      -119.4479 
   8   1.0000      -4.389593      -119.4469 
   9   1.0000      -4.389500      -119.4444 
  10   1.0000      -4.389441      -119.4428 
  11   1.0000      -4.388497      -119.4171 
  12   1.0000      -4.388432      -119.4153 
  13   1.0000      -4.388351      -119.4131 
  14   1.0000      -4.388308      -119.4119 
  15   1.0000      -3.221851       -87.6710 
  16   1.0000      -2.517538       -68.5057 
  17   1.0000      -2.517450       -68.5033 
  18   1.0000      -2.516703       -68.4830 
  19   1.0000      -2.516434       -68.4757 
  20   1.0000      -2.515599       -68.4529 
  21   1.0000      -2.515369       -68.4467 
  22   1.0000      -2.511868       -68.3514 
  23   1.0000      -2.511849       -68.3509 
  24   1.0000      -2.511537       -68.3424 
  25   1.0000      -2.511457       -68.3402 
  26   1.0000      -2.509354       -68.2830 
  27   1.0000      -2.509320       -68.2821 
  28   1.0000      -2.508574       -68.2618 
  29   1.0000      -2.508546       -68.2610 
  30   1.0000      -2.508428       -68.2578 
  31   1.0000      -2.508255       -68.2531 
  32   1.0000      -2.507732       -68.2389 
[...]
      f-2     :     0.000571
      f+3     :     0.000736
      f-3     :     0.000935
  9 Aus       :     2.568173  s :     2.568173
      pz      :     2.097773  p :     6.380438
      px      :     2.119422
      py      :     2.163242
      dz2     :     1.993897  d :     9.946192
      dxz     :     1.971951
      dyz     :     1.991922
      dx2y2   :     2.000744
      dxy     :     1.987678
      f0      :     0.000412  f :     0.004405
      f+1     :     0.000569
      f-1     :     0.000644
      f+2     :     0.000596
      f-2     :     0.000542
      f+3     :     0.000916
      f-3     :     0.000725
 10 Crs       :     6.270740  s :     6.270740
      pz      :     4.226186  p :    12.625225
      px      :     4.202091
      py      :     4.196948
      dz2     :     1.184585  d :     6.063110
      dxz     :     1.302855
      dyz     :     1.253863
      dx2y2   :     1.180507
      dxy     :     1.141301
      f0      :     0.000217  f :     0.001896
      f+1     :     0.000296
      f-1     :     0.000340
      f+2     :     0.000288
      f-2     :     0.000404
      f+3     :     0.000164
      f-3     :     0.000186

SPIN
  0 Aus       :    -0.089326  s :    -0.089326
      pz      :    -0.017236  p :    -0.073361
      px      :    -0.049046
      py      :    -0.007079
      dz2     :     0.006668  d :     0.006596
      dxz     :    -0.000442
      dyz     :     0.000071
      dx2y2   :     0.002209
      dxy     :    -0.001910
      f0      :     0.000040  f :     0.000477
      f+1     :     0.000042
      f-1     :     0.000109
      f+2     :     0.000028
      f-2     :     0.000148
      f+3     :     0.000068
      f-3     :     0.000042
  1 Aus       :    -0.150418  s :    -0.150418
      pz      :    -0.066366  p :    -0.076662
      px      :    -0.016976
      py      :     0.006679
      dz2     :     0.002593  d :     0.011829
      dxz     :     0.000450
      dyz     :    -0.000997
      dx2y2   :     0.003463
      dxy     :     0.006320
      f0      :     0.000034  f :     0.000360
      f+1     :     0.000093
      f-1     :     0.000023
      f+2     :     0.000001
      f-2     :     0.000004
      f+3     :     0.000093
      f-3     :     0.000112
  2 Aus       :    -0.089099  s :    -0.089099
      pz      :    -0.006648  p :    -0.073482
      px      :    -0.060552
      py      :    -0.006282
      dz2     :     0.008212  d :     0.006541
      dxz     :     0.001312
      dyz     :     0.000096
      dx2y2   :    -0.001354
      dxy     :    -0.001726
      f0      :     0.000059  f :     0.000475
      f+1     :     0.000016
      f-1     :     0.000199
      f+2     :     0.000102
      f-2     :     0.000087
      f+3     :    -0.000003
      f-3     :     0.000015
  3 Aus       :    -0.088831  s :    -0.088831
      pz      :    -0.007408  p :    -0.073286
      px      :    -0.033141
      py      :    -0.032737
      dz2     :     0.008264  d :     0.006594
      dxz     :     0.001459
      dyz     :     0.000149
      dx2y2   :    -0.001529
      dxy     :    -0.001749
      f0      :     0.000063  f :     0.000478
      f+1     :     0.000152
      f-1     :     0.000074
      f+2     :     0.000068
      f-2     :     0.000114
      f+3     :     0.000005
      f-3     :     0.000003
  4 Aus       :    -0.088766  s :    -0.088766
      pz      :    -0.016603  p :    -0.073304
      px      :    -0.025810
      py      :    -0.030890
      dz2     :     0.006741  d :     0.006600
      dxz     :     0.001788
      dyz     :    -0.002341
      dx2y2   :    -0.001043
      dxy     :     0.001456
      f0      :     0.000041  f :     0.000479
      f+1     :     0.000135
      f-1     :     0.000009
      f+2     :     0.000095
      f-2     :     0.000076
      f+3     :     0.000042
      f-3     :     0.000082
  5 Aus       :    -0.088928  s :    -0.088928
      pz      :    -0.017238  p :    -0.073439
      px      :    -0.049153
      py      :    -0.007049
      dz2     :     0.006679  d :     0.006586
      dxz     :    -0.000445
      dyz     :     0.000083
      dx2y2   :     0.002206
      dxy     :    -0.001936
      f0      :     0.000040  f :     0.000476
      f+1     :     0.000042
      f-1     :     0.000109
      f+2     :     0.000028
      f-2     :     0.000147
      f+3     :     0.000068
      f-3     :     0.000042
  6 Aus       :    -0.088484  s :    -0.088484
      pz      :    -0.007455  p :    -0.073438
      px      :    -0.033163
      py      :    -0.032819
      dz2     :     0.008258  d :     0.006508
      dxz     :     0.001454
      dyz     :     0.000135
      dx2y2   :    -0.001556
      dxy     :    -0.001784
      f0      :     0.000062  f :     0.000476
      f+1     :     0.000152
      f-1     :     0.000073
      f+2     :     0.000067
      f-2     :     0.000113
      f+3     :     0.000005
      f-3     :     0.000003
  7 Aus       :    -0.150617  s :    -0.150617
      pz      :    -0.066429  p :    -0.076791
      px      :    -0.017019
      py      :     0.006656
      dz2     :     0.002574  d :     0.011670
      dxz     :     0.000379
      dyz     :    -0.000991
      dx2y2   :     0.003430
      dxy     :     0.006278
      f0      :     0.000034  f :     0.000355
      f+1     :     0.000092
      f-1     :     0.000023
      f+2     :     0.000001
      f-2     :     0.000004
      f+3     :     0.000092
      f-3     :     0.000110
  8 Aus       :    -0.089301  s :    -0.089301
      pz      :    -0.006606  p :    -0.073541
      px      :    -0.060566
      py      :    -0.006369
      dz2     :     0.008232  d :     0.006579
      dxz     :     0.001299
      dyz     :     0.000113
      dx2y2   :    -0.001412
      dxy     :    -0.001652
      f0      :     0.000059  f :     0.000475
      f+1     :     0.000016
      f-1     :     0.000200
      f+2     :     0.000101
      f-2     :     0.000088
      f+3     :    -0.000004
      f-3     :     0.000015
  9 Aus       :    -0.088662  s :    -0.088662
      pz      :    -0.016702  p :    -0.073375
      px      :    -0.025790
      py      :    -0.030883
      dz2     :     0.006698  d :     0.006490
      dxz     :     0.001802
      dyz     :    -0.002359
      dx2y2   :    -0.001102
      dxy     :     0.001451
      f0      :     0.000041  f :     0.000476
      f+1     :     0.000134
      f-1     :     0.000008
      f+2     :     0.000094
      f-2     :     0.000076
      f+3     :     0.000042
      f-3     :     0.000081
 10 Crs       :     0.025663  s :     0.025663
      pz      :     0.028654  p :     0.089824
      px      :     0.029418
      py      :     0.031752
      dz2     :     0.830794  d :     3.556990
      dxz     :     0.567761
      dyz     :     0.467439
      dx2y2   :     0.824552
      dxy     :     0.866444
      f0      :     0.000025  f :     0.000111
      f+1     :     0.000016
      f-1     :     0.000017
      f+2     :     0.000016
      f-2     :     0.000018
      f+3     :     0.000010
      f-3     :     0.000011


                      *****************************
                      * MAYER POPULATION ANALYSIS *
                      *****************************

  NA   - Mulliken gross atomic population
  ZA   - Total nuclear charge
  QA   - Mulliken gross atomic charge
  VA   - Mayer's total valence
  BVA  - Mayer's bonded valence
  FA   - Mayer's free valence

  ATOM       NA         ZA         QA         VA         BVA        FA
  0 Au    18.6806    19.0000     0.3194     1.4389     1.4138     0.0251
  1 Au    18.6016    19.0000     0.3984     1.4069     1.3355     0.0713
  2 Au    18.6799    19.0000     0.3201     1.4385     1.4136     0.0249
  3 Au    18.6777    19.0000     0.3223     1.4387     1.4138     0.0248
  4 Au    18.6787    19.0000     0.3213     1.4395     1.4148     0.0248
  5 Au    18.6811    19.0000     0.3189     1.4391     1.4142     0.0249
  6 Au    18.6775    19.0000     0.3225     1.4387     1.4140     0.0247
  7 Au    18.6002    19.0000     0.3998     1.4041     1.3324     0.0717
  8 Au    18.6819    19.0000     0.3181     1.4405     1.4154     0.0251
  9 Au    18.6768    19.0000     0.3232     1.4377     1.4129     0.0248
 10 Cr    27.3641    24.0000    -3.3641     9.5163     5.3676     4.1487

  Mayer bond orders larger than 0.100000
B(  0-Au,  1-Au) :   0.1660 B(  0-Au,  5-Au) :   0.1024 B(  0-Au,  6-Au) :   0.3840 
B(  0-Au, 10-Cr) :   0.5508 B(  1-Au,  2-Au) :   0.1660 B(  1-Au,  3-Au) :   0.1632 
B(  1-Au,  9-Au) :   0.1631 B(  1-Au, 10-Cr) :   0.4836 B(  2-Au,  4-Au) :   0.3842 
B(  2-Au,  8-Au) :   0.1024 B(  2-Au, 10-Cr) :   0.5505 B(  3-Au,  5-Au) :   0.3846 
B(  3-Au,  6-Au) :   0.1025 B(  3-Au, 10-Cr) :   0.5494 B(  4-Au,  7-Au) :   0.1628 
B(  4-Au,  9-Au) :   0.1026 B(  4-Au, 10-Cr) :   0.5500 B(  5-Au,  7-Au) :   0.1654 
B(  5-Au, 10-Cr) :   0.5505 B(  6-Au,  7-Au) :   0.1627 B(  6-Au, 10-Cr) :   0.5492 
B(  7-Au,  8-Au) :   0.1659 B(  7-Au, 10-Cr) :   0.4833 B(  8-Au,  9-Au) :   0.3840 
B(  8-Au, 10-Cr) :   0.5507 B(  9-Au, 10-Cr) :   0.5497 

-------
TIMINGS
-------

Total SCF time: 0 days 0 hours 10 min 35 sec 

Total time                  ....     635.112 sec
Sum of individual times     ....     623.583 sec  ( 98.2%)

Fock matrix formation       ....     566.706 sec  ( 89.2%)
  Split-RI-J                ....      44.952 sec  (  7.9% of F)
  Chain of spheres X        ....     432.389 sec  ( 76.3% of F)
  XC integration            ....      73.652 sec  ( 13.0% of F)
    Basis function eval.    ....       8.827 sec  ( 12.0% of XC)
    Density eval.           ....      24.085 sec  ( 32.7% of XC)
    XC-Functional eval.     ....       1.703 sec  (  2.3% of XC)
    XC-Potential eval.      ....      19.039 sec  ( 25.9% of XC)
Diagonalization             ....      23.887 sec  (  3.8%)
Density matrix formation    ....       1.178 sec  (  0.2%)
Population analysis         ....       0.190 sec  (  0.0%)
Initial guess               ....       0.169 sec  (  0.0%)
Orbital Transformation      ....       0.000 sec  (  0.0%)
Orbital Orthonormalization  ....       0.116 sec  (  0.0%)
DIIS solution               ....      27.465 sec  (  4.3%)
Grid generation             ....       3.987 sec  (  0.6%)

Maximum memory used throughout the entire SCF-calculation: 110.7 MB


           ************************************************************
           *        Program running with 6 parallel MPI-processes     *
           *              working on a common directory               *
           ************************************************************

------------------------------------------------------------------------------
                                ORCA  MP2 
------------------------------------------------------------------------------

Freezing NCore=10 chemical core electrons

   <<< Use J-auxbasis for calculation of Separable RI-J derivative contributions (Dim=979) >>> 


-------------
RI-MP2 ENERGY
-------------
Dimension of the basis                    ...  445
Memory devoted to MP2                     ...  256 MB   
Data format for buffers                   ... DOUBLE
Compression type for matrix containers    ... UNCOMPRESSED
Overall scaling of the MP2 energy         ...   2.700e-01
Calculating two index integrals           ... done (    0.041 sec)
Cholesky decomposition of V**-1           ... done (    0.592 sec)

-----------------
RI-TRANSFORMATION (AUX index driven)
-----------------

Dimension of the orbital-basis         ... 445
Dimension of the aux-basis             ... 1692
Transformation of internal/external MOs...    5- 107 to  108- 444
Number Format for Storage              ... Double (8 Byte)
Integral mode                          ... Direct

First Phase: integral generation and transformation of MO indices
  Aux angular momentum 0               ... done (    0.123 sec)
  Aux angular momentum 1               ... done (    0.287 sec)
  Aux angular momentum 2               ... done (    0.391 sec)
  Aux angular momentum 3               ... done (    0.345 sec)
  Aux angular momentum 4               ... done (    0.198 sec)
  Aux angular momentum 5               ... done (    0.237 sec)
Closing buffer VIA ( 0.44 GB; CompressionRatio= 1.00)
  Phase 1 completed in     1.894 sec
Second Phase: sorting and transformation of aux index

IA-Transformation
Memory available                       ... 187 MB 
Max. # MO pairs treated in a batch     ... 18    
# of internal orbitals                 ... 103
# batches for internal orbitals        ... 1
Closing buffer IAV ( 0.44 GB; CompressionRatio= 1.00)
(ia|v) transformation done in     1.492 sec

  Phase 2 completed in     1.566 sec
RI-Integral transformation completed in     3.461 sec

-----------------
RI-TRANSFORMATION (AUX index driven)
-----------------

Dimension of the orbital-basis         ... 445
Dimension of the aux-basis             ... 1692
Transformation of internal/external MOs...    5- 105 to  106- 444
Number Format for Storage              ... Double (8 Byte)
Integral mode                          ... Direct

First Phase: integral generation and transformation of MO indices
  Aux angular momentum 0               ... done (    0.070 sec)
  Aux angular momentum 1               ... done (    0.157 sec)
  Aux angular momentum 2               ... done (    0.226 sec)
  Aux angular momentum 3               ... done (    0.252 sec)
  Aux angular momentum 4               ... done (    0.202 sec)
  Aux angular momentum 5               ... done (    0.207 sec)
Closing buffer VIA ( 0.43 GB; CompressionRatio= 1.00)
  Phase 1 completed in     1.992 sec
Second Phase: sorting and transformation of aux index

IA-Transformation
Memory available                       ... 187 MB 
Max. # MO pairs treated in a batch     ... 17    
# of internal orbitals                 ... 101
# batches for internal orbitals        ... 1
Closing buffer IAV ( 0.43 GB; CompressionRatio= 1.00)
(ia|v) transformation done in     1.446 sec

  Phase 2 completed in     1.490 sec
RI-Integral transformation completed in     3.483 sec
Opening buffers                              ... done

Starting loop over batches of integrals:

Operator 0  - window                       ... (  5-107)x(108-444)
Operator 0  - Memory available             ...   256 MB
Operator 0  - Memory needed per MO         ...   4.4 MB
Operator 0  - Number of orbitals per batch ... 18
Operator 0  - Number of batches            ... 1

OPERATOR  0   PASS   0:  MOs     5 ...   22 +   23 ...   40 +   41 ...   58 +   59 ...   76
                            +   77 ...   94 +   95 ...  107
  Reading integrals       ... ok
  Internal MO   7
  Internal MO  10
  Internal MO  13
  Internal MO  16
  Internal MO  19
  Internal MO  22

Operator 1  - window                       ... (  5-105)x(106-444)
Operator 1  - Memory available             ...   256 MB
Operator 1  - Memory needed per MO         ...   4.4 MB
Operator 1  - Number of orbitals per batch ... 17
Operator 1  - Number of batches            ... 1

OPERATOR  1   PASS   0:  MOs     5 ...   21 +   22 ...   38 +   39 ...   55 +   56 ...   72
                            +   73 ...   89 +   90 ...  105
  Reading integrals       ... ok
  Internal MO   7
  Internal MO  10
  Internal MO  13
  Internal MO  16
  Internal MO  19
Time spent in pair loops =    69.443 sec
Deleting buffer (Ka|jb)[aa] ...done
Deleting buffer (Ka|jb)[ba] ...done
Deleting buffer (Ka|jb)[ab] ...done
Deleting buffer (Ka|jb)[bb] ...done

Correlation energy components}
 E2 and T2 for alpha/alpha pairs :     -0.324052978 Eh      0.000000000
 E2 and T2 for beta/beta   pairs :     -0.294171385 Eh      0.000000000
 E2 and T2 for alpha/beta  pairs :     -1.023853197 Eh      0.000000000


-----------------------------------------------
 RI-MP2 CORRELATION ENERGY:     -1.642077560 Eh
-----------------------------------------------


-------
TIMINGS
-------

Total time                :   93.884 sec
Integral trafo            :    6.959 sec (  7.4%)
I/O of integrals          :    0.086 sec (  0.1%)
K(i,j) Operators          :   48.034 sec ( 51.2%)
T(i,j) pair energies      :    1.228 sec (  1.3%)
V-calculation             :    0.041 sec (  0.0%)
V**(-1/2)                 :    0.592 sec (  0.6%)
Gamma(ia|P)               :    0.000 sec (  0.0%)
Gamma-Trafo               :    0.000 sec (  0.0%)
D(virtual)                :    0.000 sec (  0.0%)
D(internal)               :    0.000 sec (  0.0%)
W(virtual)                :    0.000 sec (  0.0%)
W(internal)               :    0.000 sec (  0.0%)
L(virtual)                :    0.000 sec (  0.0%)
L(internal)               :    0.000 sec (  0.0%)
G(D)                      :    0.000 sec (  0.0%)
G(Z)                      :    0.000 sec (  0.0%)
Z-Vector Solution         :    0.000 sec (  0.0%)
3-Index Derivative        :    0.000 sec (  0.0%)
2-Index Derivative        :    0.000 sec (  0.0%)
Separable Gradient (RIJ)  :    0.000 sec (  0.0%)
Separable Gradient (COSX) :    0.000 sec (  0.0%)


---------------------------------------
MP2 TOTAL ENERGY:    -2400.108405404 Eh
---------------------------------------

Maximum memory used throughout the entire MP2-calculation: 194.9 MB

-------------------------   --------------------
FINAL SINGLE POINT ENERGY     -2400.108405403695
-------------------------   --------------------


                            ***************************************
                            *     ORCA property calculations      *
                            ***************************************


  WARNING: The energy has been calculated at the MP2 level but the densities
           used in the property calculations are still SCF densities
           MP2 response densities have not been calculated 
           use %mp2 Density relaxed end
           or  %mp2 Density unrelaxed end

                                    ---------------------
                                    Active property flags
                                    ---------------------
   (+) Dipole Moment


------------------------------------------------------------------------------
                       ORCA ELECTRIC PROPERTIES CALCULATION
------------------------------------------------------------------------------

Dipole Moment Calculation                       ... on
Quadrupole Moment Calculation                   ... off
Polarizability Calculation                      ... off
GBWName                                         ... b2plyp_job2.gbw
Electron density                                ... b2plyp_job2.scfp
The origin for moment calculation is the CENTER OF MASS  = (16.260152, 11.584023 14.784799)

-------------
DIPOLE MOMENT
-------------
                                X             Y             Z
Electronic contribution:     -0.02958       0.00456       0.01793
Nuclear contribution   :      0.02869      -0.00447      -0.01785
                        -----------------------------------------
Total Dipole Moment    :     -0.00088       0.00009       0.00007
                        -----------------------------------------
Magnitude (a.u.)       :      0.00089
Magnitude (Debye)      :      0.00226



--------------------
Rotational spectrum 
--------------------
 
Rotational constants in cm-1:     0.001939     0.001822     0.001482 
Rotational constants in MHz :    58.120353    54.628882    44.428014 

 Dipole components along the rotational axes: 
x,y,z [a.u.] :     0.000872    -0.000068     0.000171 
x,y,z [Debye]:     0.002216    -0.000173     0.000434 

 

Timings for individual modules:

Sum of individual times         ...      741.453 sec (=  12.358 min)
GTO integral calculation        ...       11.510 sec (=   0.192 min)   1.6 %
SCF iterations                  ...      635.454 sec (=  10.591 min)  85.7 %
MP2 module                      ...       94.489 sec (=   1.575 min)  12.7 %



                             ****ORCA TERMINATED NORMALLY****
TOTAL RUN TIME: 0 days 1 hours 7 minutes 32 seconds 788 msec
