
                                 *****************
                                 * O   R   C   A *
                                 *****************

                                            #,                                       
                                            ###                                      
                                            ####                                     
                                            #####                                    
                                            ######                                   
                                           ########,                                 
                                     ,,################,,,,,                         
                               ,,#################################,,                 
                          ,,##########################################,,             
                       ,#########################################, ''#####,          
                    ,#############################################,,   '####,        
                  ,##################################################,,,,####,       
                ,###########''''           ''''###############################       
              ,#####''   ,,,,##########,,,,          '''####'''          '####       
            ,##' ,,,,###########################,,,                        '##       
           ' ,,###''''                  '''############,,,                           
         ,,##''                                '''############,,,,        ,,,,,,###''
      ,#''                                            '''#######################'''  
     '                                                          ''''####''''         
             ,#######,   #######,   ,#######,      ##                                
            ,#'     '#,  ##    ##  ,#'     '#,    #''#        ######   ,####,        
            ##       ##  ##   ,#'  ##            #'  '#       #        #'  '#        
            ##       ##  #######   ##           ,######,      #####,   #    #        
            '#,     ,#'  ##    ##  '#,     ,#' ,#      #,         ##   #,  ,#        
             '#######'   ##     ##  '#######'  #'      '#     #####' # '####'        



                  #######################################################
                  #                        -***-                        #
                  #          Department of theory and spectroscopy      #
                  #    Directorship and core code : Frank Neese         #
                  #        Max Planck Institute fuer Kohlenforschung    #
                  #                Kaiser Wilhelm Platz 1               #
                  #                 D-45470 Muelheim/Ruhr               #
                  #                      Germany                        #
                  #                                                     #
                  #                  All rights reserved                #
                  #                        -***-                        #
                  #######################################################


                         Program Version 5.0.3 -  RELEASE  -


 With contributions from (in alphabetic order):
   Daniel Aravena         : Magnetic Suceptibility
   Michael Atanasov       : Ab Initio Ligand Field Theory (pilot matlab implementation)
   Alexander A. Auer      : GIAO ZORA, VPT2 properties, NMR spectrum
   Ute Becker             : Parallelization
   Giovanni Bistoni       : ED, misc. LED, open-shell LED, HFLD
   Martin Brehm           : Molecular dynamics
   Dmytro Bykov           : SCF Hessian
   Vijay G. Chilkuri      : MRCI spin determinant printing, contributions to CSF-ICE
   Dipayan Datta          : RHF DLPNO-CCSD density
   Achintya Kumar Dutta   : EOM-CC, STEOM-CC
   Dmitry Ganyushin       : Spin-Orbit,Spin-Spin,Magnetic field MRCI
   Miquel Garcia          : C-PCM and meta-GGA Hessian, CC/C-PCM, Gaussian charge scheme
   Yang Guo               : DLPNO-NEVPT2, F12-NEVPT2, CIM, IAO-localization
   Andreas Hansen         : Spin unrestricted coupled pair/coupled cluster methods
   Benjamin Helmich-Paris : MC-RPA, TRAH-SCF, COSX integrals
   Lee Huntington         : MR-EOM, pCC
   Robert Izsak           : Overlap fitted RIJCOSX, COSX-SCS-MP3, EOM
   Marcus Kettner         : VPT2
   Christian Kollmar      : KDIIS, OOCD, Brueckner-CCSD(T), CCSD density, CASPT2, CASPT2-K
   Simone Kossmann        : Meta GGA functionals, TD-DFT gradient, OOMP2, MP2 Hessian
   Martin Krupicka        : Initial AUTO-CI
   Lucas Lang             : DCDCAS
   Marvin Lechner         : AUTO-CI (C++ implementation), FIC-MRCC
   Dagmar Lenk            : GEPOL surface, SMD
   Dimitrios Liakos       : Extrapolation schemes; Compound Job, initial MDCI parallelization
   Dimitrios Manganas     : Further ROCIS development; embedding schemes
   Dimitrios Pantazis     : SARC Basis sets
   Anastasios Papadopoulos: AUTO-CI, single reference methods and gradients
   Taras Petrenko         : DFT Hessian,TD-DFT gradient, ASA, ECA, R-Raman, ABS, FL, XAS/XES, NRVS
   Peter Pinski           : DLPNO-MP2, DLPNO-MP2 Gradient
   Christoph Reimann      : Effective Core Potentials
   Marius Retegan         : Local ZFS, SOC
   Christoph Riplinger    : Optimizer, TS searches, QM/MM, DLPNO-CCSD(T), (RO)-DLPNO pert. Triples
   Tobias Risthaus        : Range-separated hybrids, TD-DFT gradient, RPA, STAB
   Michael Roemelt        : Original ROCIS implementation
   Masaaki Saitow         : Open-shell DLPNO-CCSD energy and density
   Barbara Sandhoefer     : DKH picture change effects
   Avijit Sen             : IP-ROCIS
   Kantharuban Sivalingam : CASSCF convergence, NEVPT2, FIC-MRCI
   Bernardo de Souza      : ESD, SOC TD-DFT
   Georgi Stoychev        : AutoAux, RI-MP2 NMR, DLPNO-MP2 response
   Willem Van den Heuvel  : Paramagnetic NMR
   Boris Wezisla          : Elementary symmetry handling
   Frank Wennmohs         : Technical directorship


 We gratefully acknowledge several colleagues who have allowed us to
 interface, adapt or use parts of their codes:
   Stefan Grimme, W. Hujo, H. Kruse, P. Pracht,  : VdW corrections, initial TS optimization,
                  C. Bannwarth, S. Ehlert          DFT functionals, gCP, sTDA/sTD-DF
   Ed Valeev, F. Pavosevic, A. Kumar             : LibInt (2-el integral package), F12 methods
   Garnet Chan, S. Sharma, J. Yang, R. Olivares  : DMRG
   Ulf Ekstrom                                   : XCFun DFT Library
   Mihaly Kallay                                 : mrcc  (arbitrary order and MRCC methods)
   Jiri Pittner, Ondrej Demel                    : Mk-CCSD
   Frank Weinhold                                : gennbo (NPA and NBO analysis)
   Christopher J. Cramer and Donald G. Truhlar   : smd solvation model
   Lars Goerigk                                  : TD-DFT with DH, B97 family of functionals
   V. Asgeirsson, H. Jonsson                     : NEB implementation
   FAccTs GmbH                                   : IRC, NEB, NEB-TS, DLPNO-Multilevel, CI-OPT
                                                   MM, QMMM, 2- and 3-layer-ONIOM, Crystal-QMMM,
                                                   LR-CPCM, SF, NACMEs, symmetry and pop. for TD-DFT,
                                                   nearIR, NL-DFT gradient (VV10), updates on ESD,
                                                   ML-optimized integration grids
   S Lehtola, MJT Oliveira, MAL Marques          : LibXC Library
   Liviu Ungur et al                             : ANISO software


 Your calculation uses the libint2 library for the computation of 2-el integrals
 For citations please refer to: http://libint.valeyev.net

 Your ORCA version has been built with support for libXC version: 5.1.0
 For citations please refer to: https://tddft.org/programs/libxc/

 This ORCA versions uses:
   CBLAS   interface :  Fast vector & matrix operations
   LAPACKE interface :  Fast linear algebra routines
   SCALAPACK package :  Parallel linear algebra routines
   Shared memory     :  Shared parallel matrices
   BLAS/LAPACK       :  OpenBLAS 0.3.15  USE64BITINT DYNAMIC_ARCH NO_AFFINITY Haswell SINGLE_THREADED
        Core in use  :  Haswell
   Copyright (c) 2011-2014, The OpenBLAS Project




***************************************
The coordinates will be read from file: pbe.xyz
***************************************


================================================================================

cite the ECPs for Au [Def2-ECP] as follows:
Ce-Yb(ecp-28): M. Dolg, H. Stoll, H.Preuss, J. Chem. Phys., 1989, 90, 1730-1734.
Y-Cd(ecp-28), Hf-Hg(ecp-46): D. Andrae,U. Haeussermann, M. Dolg, H. Stoll, H. Preuss, Theor. Chim. Acta, 1990, 77, 123-141.
In-Sb(ecp-28), Tl-Bi(ecp-46): B. Metz, H. Stoll, M. Dolg, J. Chem. Phys., 2000, 113, 2563-2569.
Te-Xe(ecp-28), Po-Rn(ecp-46): K. A. Peterson, D. Figgen, E. Goll, H. Stoll, M. Dolg, J. Chem. Phys., 2003, 119, 11113-11123.
Rb(ecp-28), Cs(ecp-46): T. Leininger, A. Nicklass, W. Kuechle, H. Stoll, M. Dolg, A. Bergner, Chem. Phys. Lett., 1996, 255, 274-280.
Sr(ecp-28), Ba(ecp-46): M. Kaupp, P. V. Schleyer, H. Stoll and H. Preuss, J. Chem. Phys., 1991, 94, 1360-1366.
La(ecp-46): M. Dolg, H. Stoll, A. Savin, H. Preuss, Theor. Chim. Acta, 1989, 75, 173-194.
Lu(ecp-28): X. Cao, M. Dolg, J. Chem. Phys., 2001, 115, 7348-7355.

ECP parameters for Au [Def2-ECP] have been obtained from:
TURBOMOLE (7.0.2)

----- Orbital basis set information -----
Your calculation utilizes the basis: def2-TZVP
   F. Weigend and R. Ahlrichs, Phys. Chem. Chem. Phys. 7, 3297 (2005).

----- AuxJ basis set information -----
Your calculation utilizes the auxiliary basis: def2/J
   F. Weigend, Phys. Chem. Chem. Phys. 8, 1057 (2006).

----- AuxC basis set information -----
Your calculation utilizes the auxiliary basis: def2-TZVP/C
  H-La, Hf-Rn : A. Hellweg, C. Hattig, S. Hofener and W. Klopper, Theor. Chem. Acc. 117, 587 (2007).
        Ce-Lu : J. Chmela and M. E. Harding, Mol. Phys. (2018).

================================================================================
                                        WARNINGS
                       Please study these warnings very carefully!
================================================================================


WARNING: your system is open-shell and RHF/RKS was chosen
  ===> : WILL SWITCH to UHF/UKS


WARNING: No MP2 level density has been requested!
         To caclulate MP2 level properties use
         %mp2 Density relaxed end
         or
         %mp2 Density unrelaxed end
         Otherwise for double-hybrid DFT only the energy is correct!

WARNING: The frozen-core approximation is turned on by default for 
         the MP2 part of double-hybrid DFT.

INFO   : the flag for use of the SHARK integral package has been found!



***************************************
The coordinates will be read from file: pbe.xyz
***************************************


================================================================================

cite the ECPs for Au [Def2-ECP] as follows:
Ce-Yb(ecp-28): M. Dolg, H. Stoll, H.Preuss, J. Chem. Phys., 1989, 90, 1730-1734.
Y-Cd(ecp-28), Hf-Hg(ecp-46): D. Andrae,U. Haeussermann, M. Dolg, H. Stoll, H. Preuss, Theor. Chim. Acta, 1990, 77, 123-141.
In-Sb(ecp-28), Tl-Bi(ecp-46): B. Metz, H. Stoll, M. Dolg, J. Chem. Phys., 2000, 113, 2563-2569.
Te-Xe(ecp-28), Po-Rn(ecp-46): K. A. Peterson, D. Figgen, E. Goll, H. Stoll, M. Dolg, J. Chem. Phys., 2003, 119, 11113-11123.
Rb(ecp-28), Cs(ecp-46): T. Leininger, A. Nicklass, W. Kuechle, H. Stoll, M. Dolg, A. Bergner, Chem. Phys. Lett., 1996, 255, 274-280.
Sr(ecp-28), Ba(ecp-46): M. Kaupp, P. V. Schleyer, H. Stoll and H. Preuss, J. Chem. Phys., 1991, 94, 1360-1366.
La(ecp-46): M. Dolg, H. Stoll, A. Savin, H. Preuss, Theor. Chim. Acta, 1989, 75, 173-194.
Lu(ecp-28): X. Cao, M. Dolg, J. Chem. Phys., 2001, 115, 7348-7355.

ECP parameters for Au [Def2-ECP] have been obtained from:
TURBOMOLE (7.0.2)

----- Orbital basis set information -----
Your calculation utilizes the basis: def2-TZVP
   F. Weigend and R. Ahlrichs, Phys. Chem. Chem. Phys. 7, 3297 (2005).

----- AuxJ basis set information -----
Your calculation utilizes the auxiliary basis: def2/J
   F. Weigend, Phys. Chem. Chem. Phys. 8, 1057 (2006).

----- AuxC basis set information -----
Your calculation utilizes the auxiliary basis: def2-TZVP/C
  H-La, Hf-Rn : A. Hellweg, C. Hattig, S. Hofener and W. Klopper, Theor. Chem. Acc. 117, 587 (2007).
        Ce-Lu : J. Chmela and M. E. Harding, Mol. Phys. (2018).

================================================================================
                                        WARNINGS
                       Please study these warnings very carefully!
================================================================================


WARNING: No MP2 level density has been requested!
         To caclulate MP2 level properties use
         %mp2 Density relaxed end
         or
         %mp2 Density unrelaxed end
         Otherwise for double-hybrid DFT only the energy is correct!

WARNING: The frozen-core approximation is turned on by default for 
         the MP2 part of double-hybrid DFT.

INFO   : the flag for use of the SHARK integral package has been found!

================================================================================
                                       INPUT FILE
================================================================================
NAME = b2plyp.inp
|  1> !RI-B2PLYP def2-TZVP def2-TZVP/C
|  2> !RIJCOSX VERYSLOWCONV
|  3> 
|  4> %scf
|  5>   AutoTRAHIter 200
|  6>   maxiter 400
|  7> end
|  8> 
|  9> 
| 10> %pal nprocs 6 end 
| 11> 
| 12> *xyzfile 0 6 pbe.xyz
| 13> 
| 14> $new_job
| 15> 
| 16> !RI-B2PLYP def2-TZVP def2-TZVP/C
| 17> !RIJCOSX VERYSLOWCONV
| 18> 
| 19> %scf
| 20>   AutoTRAHIter 200
| 21>   maxiter 400
| 22> end
| 23> 
| 24> 
| 25> %pal nprocs 6 end 
| 26> 
| 27> *xyzfile 0 4 pbe.xyz
| 28> 
| 29> 
| 30> 
| 31> 
| 32> 
| 33>                          ****END OF INPUT****
================================================================================


                 $$$$$$$$$$$$$$$$$$$$$$$$$$$$$$$$$$$$$$$$$$$$$$ 
                 $ THERE ARE  2 JOBS TO BE PROCESSED THIS RUN $
                 $$$$$$$$$$$$$$$$$$$$$$$$$$$$$$$$$$$$$$$$$$$$$$ 




                 $$$$$$$$$$$$$$$$  JOB NUMBER  1 $$$$$$$$$$$$$$


                       ****************************
                       * Single Point Calculation *
                       ****************************

---------------------------------
CARTESIAN COORDINATES (ANGSTROEM)
---------------------------------
  Au     8.470719    9.337150   10.021746
  Au     7.653314    6.676654   10.167117
  Au    10.111173    7.458138    8.841459
  Au     9.413980    7.264270    6.104093
  Au     6.161304    4.976992    8.595005
  Au     7.680035    7.301520    3.983302
  Au     7.394008    9.498219    5.662224
  Au     8.854591    5.205872    7.960977
  Au     6.945091    5.465032    5.958641
  Au     5.261959    7.589121    5.319577
  Au     7.125374   10.832838    8.139296
  Au     4.483014    6.993255    7.918521
  Au     4.907313    9.637689    7.124549
  Au     5.770137    8.722160    9.679620
  Au     9.554262    9.743151    7.385696
  Fe     7.184104    7.605484    7.653949

----------------------------
CARTESIAN COORDINATES (A.U.)
----------------------------
  NO LB      ZA    FRAG     MASS         X           Y           Z
   0 Au   19.0000*   0   196.966   16.007338   17.644656   18.938355
   1 Au   19.0000*   0   196.966   14.462667   12.617048   19.213067
   2 Au   19.0000*   0   196.966   19.107348   14.093839   16.707936
   3 Au   19.0000*   0   196.966   17.789843   13.727480   11.535063
   4 Au   19.0000*   0   196.966   11.643177    9.405151   16.242205
   5 Au   19.0000*   0   196.966   14.513164   13.797873    7.527351
   6 Au   19.0000*   0   196.966   13.972650   17.949034   10.700052
   7 Au   19.0000*   0   196.966   16.732752    9.837673   15.044067
   8 Au   19.0000*   0   196.966   13.124320   10.327414   11.260200
   9 Au   19.0000*   0   196.966    9.943662   14.341359   10.052544
  10 Au   19.0000*   0   196.966   13.465006   20.471097   15.381040
  11 Au   19.0000*   0   196.966    8.471669   13.215336   14.963835
  12 Au   19.0000*   0   196.966    9.273477   18.212592   13.463446
  13 Au   19.0000*   0   196.966   10.903978   16.482494   18.291830
  14 Au   19.0000*   0   196.966   18.054939   18.411888   13.956942
  15 Fe   26.0000    0    55.850   13.575989   14.372281   14.463868
* core charge reduced due to ECP

--------------------------------
INTERNAL COORDINATES (ANGSTROEM)
--------------------------------
 Au     0   0   0     0.000000000000     0.00000000     0.00000000
 Au     1   0   0     2.787027130834     0.00000000     0.00000000
 Au     1   2   0     2.759502323347    63.04136024     0.00000000
 Au     3   1   2     2.831402195599   108.28563083    93.73197217
 Au     2   1   3     2.754356901905   135.90329552   271.54422393
 Au     4   3   1     2.739653524095   154.59700558   326.03516260
 Au     6   4   3     2.779582258493    66.93947433    49.00892248
 Au     3   1   2     2.725242620071   115.26649137    27.68136985
 Au     8   3   1     2.778975509933   118.19965532    62.70397700
 Au     6   4   3     2.777667660973   100.36815778   355.04804695
 Au     1   2   3     2.755114082013   114.24589338   102.90707241
 Au     5   2   1     2.709170355354    91.07938256   322.95397704
 Au    11   1   2     2.716227174352   114.52804477    12.28404645
 Au    12   5   2     2.783391611420    91.02131844   354.62480585
 Au     3   1   2     2.765986769609    62.79981798   133.90761077
 Fe    14  12   5     2.711016408031    60.82796757    60.16065586

---------------------------
INTERNAL COORDINATES (A.U.)
---------------------------
 Au     0   0   0     0.000000000000     0.00000000     0.00000000
 Au     1   0   0     5.266718005084     0.00000000     0.00000000
 Au     1   2   0     5.214703657046    63.04136024     0.00000000
 Au     3   1   2     5.350574724665   108.28563083    93.73197217
 Au     2   1   3     5.204980219676   135.90329552   271.54422393
 Au     4   3   1     5.177194862372   154.59700558   326.03516260
 Au     6   4   3     5.252649235258    66.93947433    49.00892248
 Au     3   1   2     5.149962200424   115.26649137    27.68136985
 Au     8   3   1     5.251502646647   118.19965532    62.70397700
 Au     6   4   3     5.249031170289   100.36815778   355.04804695
 Au     1   2   3     5.206411082714   114.24589338   102.90707241
 Au     5   2   1     5.119590021757    91.07938256   322.95397704
 Au    11   1   2     5.132925477040   114.52804477    12.28404645
 Au    12   5   2     5.259847869038    91.02131844   354.62480585
 Au     3   1   2     5.226957484610    62.79981798   133.90761077
 Fe    14  12   5     5.123078555745    60.82796757    60.16065586

---------------------
BASIS SET INFORMATION
---------------------
There are 2 groups of distinct atoms

 Group   1 Type Au  : 8s7p6d1f contracted to 6s4p3d1f pattern {311111/4111/411/1}
 Group   2 Type Fe  : 17s11p7d1f contracted to 6s4p4d1f pattern {842111/6311/4111/1}

Atom   0Au   basis set group =>   1
Atom   1Au   basis set group =>   1
Atom   2Au   basis set group =>   1
Atom   3Au   basis set group =>   1
Atom   4Au   basis set group =>   1
Atom   5Au   basis set group =>   1
Atom   6Au   basis set group =>   1
Atom   7Au   basis set group =>   1
Atom   8Au   basis set group =>   1
Atom   9Au   basis set group =>   1
Atom  10Au   basis set group =>   1
Atom  11Au   basis set group =>   1
Atom  12Au   basis set group =>   1
Atom  13Au   basis set group =>   1
Atom  14Au   basis set group =>   1
Atom  15Fe   basis set group =>   2
---------------------------------
AUXILIARY/J BASIS SET INFORMATION
---------------------------------
There are 2 groups of distinct atoms

 Group   1 Type Au  : 11s5p5d3f3g contracted to 8s5p5d2f3g pattern {41111111/11111/11111/21/111}
 Group   2 Type Fe  : 19s5p5d3f3g contracted to 8s5p5d2f3g pattern {121111111/11111/11111/21/111}

Atom   0Au   basis set group =>   1
Atom   1Au   basis set group =>   1
Atom   2Au   basis set group =>   1
Atom   3Au   basis set group =>   1
Atom   4Au   basis set group =>   1
Atom   5Au   basis set group =>   1
Atom   6Au   basis set group =>   1
Atom   7Au   basis set group =>   1
Atom   8Au   basis set group =>   1
Atom   9Au   basis set group =>   1
Atom  10Au   basis set group =>   1
Atom  11Au   basis set group =>   1
Atom  12Au   basis set group =>   1
Atom  13Au   basis set group =>   1
Atom  14Au   basis set group =>   1
Atom  15Fe   basis set group =>   2
---------------------------------
AUXILIARY/C BASIS SET INFORMATION
---------------------------------
There are 2 groups of distinct atoms

 Group   1 Type Au  : 8s8p7d5f3g2h contracted to 8s8p7d5f3g2h pattern {11111111/11111111/1111111/11111/111/11}
 Group   2 Type Fe  : 11s9p8d6f5g2h contracted to 9s8p8d6f5g2h pattern {311111111/21111111/11111111/111111/11111/11}

Atom   0Au   basis set group =>   1
Atom   1Au   basis set group =>   1
Atom   2Au   basis set group =>   1
Atom   3Au   basis set group =>   1
Atom   4Au   basis set group =>   1
Atom   5Au   basis set group =>   1
Atom   6Au   basis set group =>   1
Atom   7Au   basis set group =>   1
Atom   8Au   basis set group =>   1
Atom   9Au   basis set group =>   1
Atom  10Au   basis set group =>   1
Atom  11Au   basis set group =>   1
Atom  12Au   basis set group =>   1
Atom  13Au   basis set group =>   1
Atom  14Au   basis set group =>   1
Atom  15Fe   basis set group =>   2
-------------------------
ECP PARAMETER INFORMATION
-------------------------

 Group 1, Type Au ECP Def2-ECP (replacing 60 core electrons, lmax=3)

Atom   0Au   ECP group =>   1
Atom   1Au   ECP group =>   1
Atom   2Au   ECP group =>   1
Atom   3Au   ECP group =>   1
Atom   4Au   ECP group =>   1
Atom   5Au   ECP group =>   1
Atom   6Au   ECP group =>   1
Atom   7Au   ECP group =>   1
Atom   8Au   ECP group =>   1
Atom   9Au   ECP group =>   1
Atom  10Au   ECP group =>   1
Atom  11Au   ECP group =>   1
Atom  12Au   ECP group =>   1
Atom  13Au   ECP group =>   1
Atom  14Au   ECP group =>   1


Checking for AutoStart:
The File: b2plyp.gbw exists
Trying to determine its content:
     ... Fine, the file contains calculation information
     ... Fine, the calculation information was read
     ... Fine, the file contains a basis set
     ... Fine, the basis set was read
     ... Fine, the file contains ECP parameters
     ... Fine, ECP parameters were read
     ... Fine, the file contains a geometry
     ... Fine, the geometry was read
     ... The file does not contain orbitals - skipping AutoStart


           ************************************************************
           *        Program running with 6 parallel MPI-processes     *
           *              working on a common directory               *
           ************************************************************
------------------------------------------------------------------------------
                           ORCA GTO INTEGRAL CALCULATION
                           -- RI-GTO INTEGRALS CHOSEN --
------------------------------------------------------------------------------
------------------------------------------------------------------------------
                   ___                                                        
                  /   \      - P O W E R E D   B Y -                         
                 /     \                                                     
                 |  |  |   _    _      __       _____    __    __             
                 |  |  |  | |  | |    /  \     |  _  \  |  |  /  |          
                  \  \/   | |  | |   /    \    | | | |  |  | /  /          
                 / \  \   | |__| |  /  /\  \   | |_| |  |  |/  /          
                |  |  |   |  __  | /  /__\  \  |    /   |      \           
                |  |  |   | |  | | |   __   |  |    \   |  |\   \          
                \     /   | |  | | |  |  |  |  | |\  \  |  | \   \       
                 \___/    |_|  |_| |__|  |__|  |_| \__\ |__|  \__/        
                                                                              
                      - O R C A' S   B I G   F R I E N D -                    
                                      &                                       
                       - I N T E G R A L  F E E D E R -                       
                                                                              
 v1 FN, 2020, v2 2021                                                         
------------------------------------------------------------------------------


Reading SHARK input file b2plyp.SHARKINP.tmp ... ok
----------------------
SHARK INTEGRAL PACKAGE
----------------------

Number of atoms                             ...     16
Number of basis functions                   ...    645
Number of shells                            ...    225
Maximum angular momentum                    ...      3
Integral batch strategy                     ... SHARK/LIBINT Hybrid
RI-J (if used) integral strategy            ... SPLIT-RIJ (Revised 2003 algorithm where possible)
Printlevel                                  ...      1
Contraction scheme used                     ... SEGMENTED contraction
Coulomb Range Separation                    ... NOT USED
Exchange Range Separation                   ... NOT USED
Finite Nucleus Model                        ... NOT USED
Auxiliary Coulomb fitting basis             ... AVAILABLE
   # of basis functions in Aux-J            ...   1424
   # of shells in Aux-J                     ...    368
   Maximum angular momentum in Aux-J        ...      4
Auxiliary J/K fitting basis                 ... NOT available
Auxiliary Correlation fitting basis         ... AVAILABLE
   # of basis functions in Aux-C            ...   2447
   # of shells in Aux-C                     ...    533
   Maximum angular momentum in Aux-C        ...      5
Auxiliary 'external' fitting basis          ... NOT available
Integral threshold                          ...     1.000000e-10
Primitive cut-off                           ...     1.000000e-11
Primitive pair pre-selection threshold      ...     1.000000e-11

Calculating pre-screening integrals         ... done (  0.1 sec) Dimension = 225
Organizing shell pair data                  ... done (  0.3 sec)
Shell pair information
Total number of shell pairs                 ...     25425
Shell pairs after pre-screening             ...     20216
Total number of primitive shell pairs       ...     67445
Primitive shell pairs kept                  ...     38581
          la=0 lb=0:   3178 shell pairs
          la=1 lb=0:   4605 shell pairs
          la=1 lb=1:   1736 shell pairs
          la=2 lb=0:   4002 shell pairs
          la=2 lb=1:   2837 shell pairs
          la=2 lb=2:   1174 shell pairs
          la=3 lb=0:   1037 shell pairs
          la=3 lb=1:    822 shell pairs
          la=3 lb=2:    714 shell pairs
          la=3 lb=3:    111 shell pairs

Calculating one electron integrals          ... done (  0.0 sec)
Calculating ECP integrals                   ... done ( 10.2 sec)
Calculating RI/J V-Matrix + Cholesky decomp.... done (  0.1 sec)
Calculating RI/C V-Matrix + Cholesky decomp.... done (  0.2 sec)
Calculating Nuclear repulsion               ... done (  0.0 sec) ENN=   6460.958704784416 Eh

SHARK setup successfully completed in  11.3 seconds

Maximum memory used throughout the entire GTOINT-calculation: 55.3 MB


           ************************************************************
           *        Program running with 6 parallel MPI-processes     *
           *              working on a common directory               *
           ************************************************************
-------------------------------------------------------------------------------
                                 ORCA SCF
-------------------------------------------------------------------------------

------------
SCF SETTINGS
------------
Hamiltonian:
 Density Functional     Method          .... DFT(GTOs)
 Exchange Functional    Exchange        .... B88
   X-Alpha parameter    XAlpha          ....  0.666667
   Becke's b parameter  XBeta           ....  0.004200
 Correlation Functional Correlation     .... LYP
 LDA part of GGA corr.  LDAOpt          .... VWN-3
 Gradients option       PostSCFGGA      .... off
 Hybrid DFT is turned on
   Fraction HF Exchange ScalHFX         ....  0.530000
   Scaling of DF-GGA-X  ScalDFX         ....  0.470000
   Scaling of DF-GGA-C  ScalDFC         ....  0.730000
   Scaling of DF-LDA-C  ScalLDAC        ....  0.730000
   Perturbative correction              ....  0.270000
   Density functional embedding theory  .... OFF
   NL short-range parameter             ....  7.800000
 RI-approximation to the Coulomb term is turned on
   Number of AuxJ basis functions       .... 1424
   RIJ-COSX (HFX calculated with COS-X)).... on


General Settings:
 Integral files         IntName         .... b2plyp
 Hartree-Fock type      HFTyp           .... UHF
 Total Charge           Charge          ....    0
 Multiplicity           Mult            ....    6
 Number of Electrons    NEL             ....  311
 Basis Dimension        Dim             ....  645
 Nuclear Repulsion      ENuc            ....   6460.9587047844 Eh

Convergence Acceleration:
 DIIS                   CNVDIIS         .... on
   Start iteration      DIISMaxIt       ....     0
   Startup error        DIISStart       ....  0.200000
   # of expansion vecs  DIISMaxEq       ....     5
   Bias factor          DIISBfac        ....   1.050
   Max. coefficient     DIISMaxC        ....  10.000
 Trust-Rad. Augm. Hess. CNVTRAH         .... auto
   Auto Start mean grad. ratio tolernc. ....  1.125000
   Auto Start start iteration           ....   200
   Auto Start num. interpolation iter.  ....    10
   Max. Number of Micro iterations      ....    16
   Max. Number of Macro iterations      .... Maxiter - #DIIS iter
   Number of Davidson start vectors     ....     2
   Converg. threshold I  (grad. norm)   ....   5.000e-05
   Converg. threshold II (energy diff.) ....   1.000e-06
   Grad. Scal. Fac. for Micro threshold ....   0.100
   Minimum threshold for Micro iter.    ....   0.010
   NR start threshold (gradient norm)   ....   0.001
   Initial trust radius                 ....   0.400
   Minimum AH scaling param. (alpha)    ....   1.000
   Maximum AH scaling param. (alpha)    .... 1000.000
   Orbital update algorithm             .... Taylor
   White noise on init. David. guess    .... on
   Maximum white noise                  ....   0.010
   Quad. conv. algorithm                .... NR
 SOSCF                  CNVSOSCF        .... off
 Level Shifting         CNVShift        .... on
   Level shift para.    LevelShift      ....    0.2500
   Turn off err/grad.   ShiftErr        ....    0.0000
 Zerner damping         CNVZerner       .... off
 Static damping         CNVDamp         .... on
   Fraction old density DampFac         ....    0.9200
   Max. Damping (<1)    DampMax         ....    0.9800
   Min. Damping (>=0)   DampMin         ....    0.0000
   Turn off err/grad.   DampErr         ....    0.0030
 Fernandez-Rico         CNVRico         .... off

SCF Procedure:
 Maximum # iterations   MaxIter         ....   400
 SCF integral mode      SCFMode         .... Direct
   Integral package                     .... SHARK and LIBINT hybrid scheme
 Reset frequency        DirectResetFreq ....    20
 Integral Threshold     Thresh          ....  1.000e-10 Eh
 Primitive CutOff       TCut            ....  1.000e-11 Eh

Convergence Tolerance:
 Convergence Check Mode ConvCheckMode   .... Total+1el-Energy
 Convergence forced     ConvForced      .... 0
 Energy Change          TolE            ....  1.000e-06 Eh
 1-El. energy change                    ....  1.000e-03 Eh
 DIIS Error             TolErr          ....  1.000e-06


Diagonalization of the overlap matrix:
Smallest eigenvalue                        ... 4.356e-04
Time for diagonalization                   ...    0.047 sec
Threshold for overlap eigenvalues          ... 1.000e-08
Number of eigenvalues below threshold      ... 0
Time for construction of square roots      ...    0.035 sec
Total time needed                          ...    0.083 sec

Time for model grid setup =    0.433 sec

------------------------------
INITIAL GUESS: MODEL POTENTIAL
------------------------------
Loading Hartree-Fock densities                     ... done
  calling /media/Programs/ORCA501/orca b2plyp_atom79.inp > b2plyp_atom79.out in order to generate an atomic fitting density for atom 0 (Au with ECP) on-the-fly... 
    atom 0 (Au), assumed electronic state with S=2: 1s2 2s2 2p6 3s2 3p6 4s2 3d10 4p6 5s2 4d10 5p6 6s1 4f14 5d10           ... done
Calculating cut-offs                               ... done
Initializing the effective Hamiltonian             ... done
Setting up the integral package (SHARK)            ... done
Starting the Coulomb interaction                   ... done (   0.4 sec)
Reading the grid                                   ... done
Mapping shells                                     ... done
Starting the XC term evaluation                    ... done (   0.5 sec)
  promolecular density results
     # of electrons  =   1211.014906641
     EX              =  -5565.039975841
     EC              =    -24.637882880
     EX+EC           =  -5589.677858721
Transforming the Hamiltonian                       ... done (   0.0 sec)
Diagonalizing the Hamiltonian                      ... done (   0.1 sec)
Back transforming the eigenvectors                 ... done (   0.0 sec)
Now organizing SCF variables                       ... done
                      ------------------
                      INITIAL GUESS DONE (   1.9 sec)
                      ------------------
-------------------
DFT GRID GENERATION
-------------------

General Integration Accuracy     IntAcc      ... 4.388
Radial Grid Type                 RadialGrid  ... OptM3 with GC (2021)
Angular Grid (max. ang.)         AngularGrid ... 4 (Lebedev-302)
Angular grid pruning method      GridPruning ... 4 (adaptive)
Weight generation scheme         WeightScheme... Becke
Basis function cutoff            BFCut       ... 1.0000e-10
Integration weight cutoff        WCut        ... 1.0000e-14
Angular grids for H and He will be reduced by one unit
Partially contracted basis set               ... off
Rotationally invariant grid construction     ... off

Total number of grid points                  ...   176151
Total number of batches                      ...     2758
Average number of points per batch           ...       63
Average number of grid points per atom       ...    11009
Time for grid setup =    1.376 sec

--------------------
COSX GRID GENERATION
--------------------

GRIDX 1
-------
General Integration Accuracy     IntAcc      ... 3.816
Radial Grid Type                 RadialGrid  ... OptM3 with GC (2021)
Angular Grid (max. ang.)         AngularGrid ... 1 (Lebedev-50)
Angular grid pruning method      GridPruning ... 4 (adaptive)
Weight generation scheme         WeightScheme... Becke
Basis function cutoff            BFCut       ... 1.0000e-10
Integration weight cutoff        WCut        ... 1.0000e-14
Angular grids for H and He will be reduced by one unit
Partially contracted basis set               ... on
Rotationally invariant grid construction     ... off

Total number of grid points                  ...    18394
Total number of batches                      ...      295
Average number of points per batch           ...       62
Average number of grid points per atom       ...     1150
UseSFitting                                  ... on

GRIDX 2
-------
General Integration Accuracy     IntAcc      ... 4.020
Radial Grid Type                 RadialGrid  ... OptM3 with GC (2021)
Angular Grid (max. ang.)         AngularGrid ... 2 (Lebedev-110)
Angular grid pruning method      GridPruning ... 4 (adaptive)
Weight generation scheme         WeightScheme... Becke
Basis function cutoff            BFCut       ... 1.0000e-10
Integration weight cutoff        WCut        ... 1.0000e-14
Angular grids for H and He will be reduced by one unit
Partially contracted basis set               ... on
Rotationally invariant grid construction     ... off

Total number of grid points                  ...    55822
Total number of batches                      ...      880
Average number of points per batch           ...       63
Average number of grid points per atom       ...     3489
UseSFitting                                  ... on

GRIDX 3
-------
General Integration Accuracy     IntAcc      ... 4.338
Radial Grid Type                 RadialGrid  ... OptM3 with GC (2021)
Angular Grid (max. ang.)         AngularGrid ... 3 (Lebedev-194)
Angular grid pruning method      GridPruning ... 4 (adaptive)
Weight generation scheme         WeightScheme... Becke
Basis function cutoff            BFCut       ... 1.0000e-10
Integration weight cutoff        WCut        ... 1.0000e-14
Angular grids for H and He will be reduced by one unit
Partially contracted basis set               ... on
Rotationally invariant grid construction     ... off

Total number of grid points                  ...   101420
Total number of batches                      ...     1593
Average number of points per batch           ...       63
Average number of grid points per atom       ...     6339
UseSFitting                                  ... on

Time for X-Grid setup             =    1.376 sec

--------------
SCF ITERATIONS
--------------
ITER       Energy         Delta-E        Max-DP      RMS-DP      [F,P]     Damp
               ***  Starting incremental Fock matrix formation  ***
  0  -3291.0431550874   0.000000000000 0.06864688  0.00052207  0.5560328 0.9200
  1  -3292.2044557890  -1.161300701649 0.06708444  0.00049370  0.3664760 0.9200
                               ***Turning on DIIS***
  2  -3292.8627698142  -0.658314025166 0.06475988  0.00044854  0.2332201 0.9200
  3  -3293.1654716978  -0.302701883571 0.06069939  0.00041189  0.2146121 0.9200
  4  -3293.2538901847  -0.088418486911 0.02467632  0.00024975  0.1974899 0.9200
  5  -3293.3459751488  -0.092084964137 0.02300725  0.00023130  0.1816373 0.9200
  6  -3293.4289455987  -0.082970449886 0.02137837  0.00021287  0.1670525 0.9200
  7  -3293.4884953584  -0.059549759715 0.01953811  0.00019388  0.1537165 0.9200
  8  -3293.5583144445  -0.069819086035 0.01766619  0.00020052  0.1414736 0.9200
  9  -3293.6513326892  -0.093018244777 0.01683019  0.00018520  0.1302170 0.9200
 10  -3293.7305730539  -0.079240364653 0.01567335  0.00016321  0.1198546 0.9200
 11  -3293.8026880857  -0.072115031824 0.01441267  0.00014861  0.1102836 0.9200
 12  -3293.8665123055  -0.063824219795 0.01337912  0.00013812  0.1014465 0.9200
 13  -3293.9274273107  -0.060915005135 0.01229257  0.00013091  0.0933235 0.9200
 14  -3293.9908021605  -0.063374849815 0.01129458  0.00012674  0.0858718 0.9200
 15  -3294.0507153452  -0.059913184706 0.01053345  0.00011668  0.0790312 0.9200
 16  -3294.1057916658  -0.055076320598 0.00988946  0.00010645  0.0727252 0.9200
 17  -3294.1567735123  -0.050981846498 0.00948157  0.00009849  0.0669081 0.9200
 18  -3294.2044726114  -0.047699099178 0.00873351  0.00009198  0.0615510 0.9200
 19  -3294.2505077775  -0.046035166084 0.00803525  0.00008704  0.0566302 0.9200
               *** Restarting incremental Fock matrix formation ***
                                   *** Resetting DIIS ***
 20  -3294.2929751921  -0.042467414603 0.00747593  0.00007767  0.0521105 0.9200
 21  -3294.3341758060  -0.041200613876 0.00690994  0.00007061  0.0479568 0.9200
 22  -3294.3725564264  -0.038380620394 0.00647505  0.00006540  0.0441317 0.9200
 23  -3294.4082359482  -0.035679521840 0.00611448  0.00006195  0.0406102 0.9200
 24  -3294.4414263385  -0.033190390285 0.00653127  0.00005912  0.0373706 0.9200
 25  -3294.4724485848  -0.031022246253 0.00571903  0.00005609  0.0343898 0.9200
 26  -3294.5014769359  -0.029028351076 0.00521185  0.00005305  0.0316458 0.9200
 27  -3294.5284804287  -0.027003492891 0.00495676  0.00004980  0.0291172 0.9200
 28  -3294.5535926068  -0.025112178091 0.00472928  0.00004663  0.0267880 0.9200
 29  -3294.5769840958  -0.023391488927 0.00451924  0.00004361  0.0246450 0.9200
 30  -3294.5988207991  -0.021836703290 0.00413851  0.00004087  0.0226760 0.9200
 31  -3294.6191778653  -0.020357066194 0.00383344  0.00003836  0.0208654 0.9200
 32  -3294.6381091554  -0.018931290181 0.00361931  0.00003595  0.0191995 0.9200
 33  -3294.6557047193  -0.017595563842 0.00339294  0.00003365  0.0176661 0.9200
 34  -3294.6720649813  -0.016360262065 0.00315780  0.00003150  0.0162550 0.9200
 35  -3294.6872820706  -0.015217089261 0.00293848  0.00002955  0.0149568 0.9200
 36  -3294.7014237006  -0.014141630035 0.00279617  0.00002780  0.0137627 0.9200
 37  -3294.7145509806  -0.013127279998 0.00264845  0.00002618  0.0126640 0.9200
 38  -3294.7267313844  -0.012180403782 0.00251956  0.00002468  0.0116531 0.9200
 39  -3294.7380330400  -0.011301655588 0.00241141  0.00002353  0.0107228 0.9200
               *** Restarting incremental Fock matrix formation ***
                                   *** Resetting DIIS ***
 40  -3294.7485151471  -0.010482107052 0.00200047  0.00001907  0.0098670 0.9200
 41  -3294.7583154375  -0.009800290407 0.00176656  0.00001707  0.0090829 0.9200
 42  -3294.7673903316  -0.009074894091 0.00165299  0.00001630  0.0086748 0.9200
 43  -3294.7757812264  -0.008390894865 0.00163908  0.00001618  0.0083119 0.9200
 44  -3294.7835348793  -0.007753652864 0.00166382  0.00001622  0.0077412 0.9200
 45  -3294.7907006438  -0.007165764531 0.00165964  0.00001594  0.0072231 0.9200
 46  -3294.7973303507  -0.006629706899 0.00162058  0.00001572  0.0069241 0.9200
 47  -3294.8034631822  -0.006132831505 0.00155968  0.00001553  0.0066176 0.9200
 48  -3294.8091376959  -0.005674513687 0.00149765  0.00001533  0.0061918 0.9200
 49  -3294.8143910098  -0.005253313878 0.00144081  0.00001512  0.0058806 0.9200
 50  -3294.8192577116  -0.004866701789 0.00138268  0.00001489  0.0057354 0.9200
 51  -3294.8237690120  -0.004511300386 0.00136878  0.00001469  0.0055641 0.9200
 52  -3294.8279529941  -0.004183982123 0.00142416  0.00001450  0.0053970 0.9200
 53  -3294.8318360593  -0.003883065234 0.00146621  0.00001428  0.0052555 0.9200
 54  -3294.8354431165  -0.003607057140 0.00149066  0.00001401  0.0051337 0.9200
 55  -3294.8387972311  -0.003354114606 0.00149700  0.00001367  0.0050171 0.9200
 56  -3294.8419193448  -0.003122113765 0.00148780  0.00001328  0.0049010 0.9200
 57  -3294.8448281829  -0.002908838080 0.00146489  0.00001283  0.0047900 0.9200
 58  -3294.8475404250  -0.002712242058 0.00142902  0.00001233  0.0046891 0.9200
 59  -3294.8500708771  -0.002530452179 0.00138212  0.00001181  0.0045981 0.9200
               *** Restarting incremental Fock matrix formation ***
                                   *** Resetting DIIS ***
 60  -3294.8524268461  -0.002355968948 0.00116897  0.00001022  0.0045144 0.9200
 61  -3294.8546341093  -0.002207263166 0.00107927  0.00000936  0.0045226 0.9200
 62  -3294.8566888740  -0.002054764723 0.00105278  0.00000897  0.0046583 0.9200
 63  -3294.8586011286  -0.001912254639 0.00105498  0.00000883  0.0047822 0.9200
 64  -3294.8603820802  -0.001780951585 0.00105997  0.00000875  0.0048989 0.9200
 65  -3294.8620422808  -0.001660200640 0.00105027  0.00000860  0.0050115 0.9200
 66  -3294.8635910173  -0.001548736415 0.00103146  0.00000839  0.0051211 0.9200
 67  -3294.8650365885  -0.001445571286 0.00100725  0.00000816  0.0052275 0.9200
 68  -3294.8663864682  -0.001349879687 0.00098149  0.00000791  0.0053303 0.9200
 69  -3294.8676475516  -0.001261083412 0.00095748  0.00000768  0.0054289 0.9200
 70  -3294.8688263131  -0.001178761488 0.00093726  0.00000748  0.0055234 0.9200
 71  -3294.8699289275  -0.001102614377 0.00092150  0.00000732  0.0056136 0.9200
 72  -3294.8709612656  -0.001032338138 0.00091002  0.00000719  0.0056999 0.9200
 73  -3294.8719288877  -0.000967622100 0.00090215  0.00000710  0.0057827 0.9200
 74  -3294.8728370008  -0.000908113028 0.00089715  0.00000703  0.0058624 0.9200
 75  -3294.8736904286  -0.000853427803 0.00089438  0.00000698  0.0059391 0.9200
 76  -3294.8744936700  -0.000803241436 0.00089339  0.00000695  0.0060132 0.9200
 77  -3294.8752508681  -0.000757198134 0.00089387  0.00000694  0.0060849 0.9200
 78  -3294.8759658440  -0.000714975903 0.00089559  0.00000694  0.0061542 0.9200
 79  -3294.8766421590  -0.000676314991 0.00089853  0.00000695  0.0062212 0.9200
               *** Restarting incremental Fock matrix formation ***
                                   *** Resetting DIIS ***
 80  -3294.8772780046  -0.000635845608 0.00102089  0.00000775  0.0062860 0.9200
 81  -3294.8778950345  -0.000617029862 0.00107627  0.00000819  0.0063451 0.9200
 82  -3294.8784874974  -0.000592462914 0.00108841  0.00000832  0.0064055 0.9200
 83  -3294.8790560558  -0.000568558379 0.00105478  0.00000812  0.0064668 0.9200
 84  -3294.8796003472  -0.000544291432 0.00096985  0.00000754  0.0065283 0.9200
 85  -3294.8801176698  -0.000517322596 0.00093048  0.00000721  0.0065892 0.9200
 86  -3294.8806108099  -0.000493140034 0.00091834  0.00000708  0.0066439 0.9200
 87  -3294.8810830302  -0.000472220292 0.00092273  0.00000708  0.0066924 0.9200
 88  -3294.8815372625  -0.000454232319 0.00093559  0.00000717  0.0067362 0.9200
 89  -3294.8819759136  -0.000438651089 0.00095160  0.00000730  0.0067766 0.9200
 90  -3294.8824008428  -0.000424929235 0.00096786  0.00000744  0.0068141 0.9200
 91  -3294.8828135294  -0.000412686614 0.00098347  0.00000757  0.0068491 0.9200
 92  -3294.8832152091  -0.000401679695 0.00099817  0.00000770  0.0068813 0.9200
 93  -3294.8836070082  -0.000391799113 0.00101190  0.00000782  0.0069102 0.9200
 94  -3294.8839899190  -0.000382910784 0.00102465  0.00000793  0.0069356 0.9200
 95  -3294.8843648231  -0.000374904113 0.00103659  0.00000803  0.0069572 0.9200
 96  -3294.8847325323  -0.000367709225 0.00104803  0.00000814  0.0069745 0.9200
 97  -3294.8850937646  -0.000361232303 0.00105934  0.00000824  0.0069876 0.9200
 98  -3294.8854491872  -0.000355422522 0.00107093  0.00000835  0.0069960 0.9200
 99  -3294.8857994205  -0.000350233343 0.00108327  0.00000847  0.0069997 0.9200
               *** Restarting incremental Fock matrix formation ***
                                   *** Resetting DIIS ***
100  -3294.8861440844  -0.000344663933 0.00109413  0.00000858  0.0069984 0.9200
101  -3294.8864854823  -0.000341397816 0.00109536  0.00000862  0.0069921 0.9200
102  -3294.8868226690  -0.000337186720 0.00109638  0.00000866  0.0069815 0.9200
103  -3294.8871558290  -0.000333159975 0.00110630  0.00000876  0.0069661 0.9200
104  -3294.8874854551  -0.000329626144 0.00114116  0.00000902  0.0069446 0.9200
105  -3294.8878123592  -0.000326904087 0.00118229  0.00000926  0.0069145 0.9200
106  -3294.8881366934  -0.000324334189 0.00122398  0.00000950  0.0068767 0.9200
107  -3294.8884585566  -0.000321863190 0.00126767  0.00000974  0.0068309 0.9200
108  -3294.8887779498  -0.000319393272 0.00131370  0.00001000  0.0067763 0.9200
109  -3294.8890947606  -0.000316810787 0.00136166  0.00001027  0.0067123 0.9200
110  -3294.8894087327  -0.000313972091 0.00141198  0.00001055  0.0066384 0.9200
111  -3294.8897194835  -0.000310750778 0.00146497  0.00001085  0.0065537 0.9200
112  -3294.8900264722  -0.000306988667 0.00152082  0.00001116  0.0064573 0.9200
113  -3294.8903289980  -0.000302525822 0.00157924  0.00001148  0.0063482 0.9200
114  -3294.8906262549  -0.000297256876 0.00163916  0.00001181  0.0062256 0.9200
115  -3294.8909173352  -0.000291080351 0.00169874  0.00001212  0.0060887 0.9200
116  -3294.8912014004  -0.000284065227 0.00175536  0.00001241  0.0059372 0.9200
117  -3294.8914778544  -0.000276454010 0.00180643  0.00001264  0.0057708 0.9200
118  -3294.8917464757  -0.000268621235 0.00184854  0.00001281  0.0055902 0.9200
119  -3294.8920076238  -0.000261148147 0.00186996  0.00001291  0.0053965 0.9200
               *** Restarting incremental Fock matrix formation ***
                                   *** Resetting DIIS ***
120  -3294.8922639230  -0.000256299193 0.00138778  0.00000960  0.0051917 0.9200
121  -3294.8925752060  -0.000311282994 0.00112521  0.00000790  0.0050795 0.9200
122  -3294.8928853042  -0.000310098154 0.00102358  0.00000721  0.0049890 0.9200
123  -3294.8931838645  -0.000298560356 0.00104436  0.00000728  0.0048982 0.9200
124  -3294.8934684550  -0.000284590431 0.00117479  0.00000804  0.0047935 0.9200
125  -3294.8937352675  -0.000266812571 0.00125680  0.00000846  0.0046597 0.9200
126  -3294.8939868996  -0.000251632068 0.00131516  0.00000875  0.0045048 0.9200
127  -3294.8942244231  -0.000237523545 0.00136239  0.00000897  0.0043351 0.9200
128  -3294.8944485794  -0.000224156239 0.00139530  0.00000910  0.0041559 0.9200
129  -3294.8946608445  -0.000212265123 0.00140916  0.00000911  0.0039710 0.9200
130  -3294.8948632884  -0.000202443895 0.00140416  0.00000901  0.0037830 0.9200
131  -3294.8950578655  -0.000194577099 0.00138378  0.00000881  0.0035936 0.9200
132  -3294.8952460315  -0.000188165981 0.00135226  0.00000855  0.0034055 0.9200
133  -3294.8954286545  -0.000182622990 0.00131312  0.00000824  0.0032211 0.9200
134  -3294.8956062897  -0.000177635187 0.00126783  0.00000790  0.0030423 0.9200
135  -3294.8957791545  -0.000172864838 0.01522454  0.00009412  0.0028698 0.0000
136  -3294.8988058620  -0.003026707501 0.00234292  0.00001417  0.0006227 0.0000
               *** Restarting incremental Fock matrix formation ***
                                   *** Resetting DIIS ***
137  -3294.8997785844  -0.000972722455 0.00451050  0.00010049  0.0006282 0.0000
138  -3294.8999544099  -0.000175825412 0.00176002  0.00003497  0.0003483 0.0000
139  -3294.8999808275  -0.000026417630 0.00071009  0.00001242  0.0004957 0.0000
140  -3294.8999884642  -0.000007636759 0.00047606  0.00000567  0.0001428 0.0000
141  -3294.8999920229  -0.000003558664 0.00038579  0.00000313  0.0001386 0.0000
142  -3294.8999939993  -0.000001976387 0.00043065  0.00000277  0.0001332 0.0000
143  -3294.8999959656  -0.000001966332 0.00035015  0.00000240  0.0001202 0.0000
144  -3294.8999973225  -0.000001356863 0.00035043  0.00000235  0.0001120 0.0000
145  -3294.8999987275  -0.000001404998 0.00030429  0.00000225  0.0001017 0.0000
146  -3294.8999999133  -0.000001185817 0.00025039  0.00000208  0.0000958 0.0000
147  -3294.9000010017  -0.000001088388 0.00025663  0.00000202  0.0000898 0.0000
148  -3294.9000021349  -0.000001133244 0.00029785  0.00000211  0.0000893 0.0000
149  -3294.9000031946  -0.000001059658 0.00027914  0.00000191  0.0000826 0.0000
150  -3294.9000042349  -0.000001040332 0.00029809  0.00000190  0.0000823 0.0000
151  -3294.9000051558  -0.000000920823 0.00030270  0.00000194  0.0000825 0.0000
152  -3294.9000062402  -0.000001084472 0.00031394  0.00000201  0.0000825 0.0000
153  -3294.9000072341  -0.000000993889 0.00027937  0.00000169  0.0000825 0.0000
                 **** Energy Check signals convergence ****

               *****************************************************
               *                     SUCCESS                       *
               *           SCF CONVERGED AFTER 154 CYCLES          *
               *****************************************************

Old exchange energy                            =   -123.691341517 Eh
New exchange energy                            =   -123.691383171 Eh
Exchange energy change after final integration =     -0.000041654 Eh
Total energy after final integration           =  -3294.900049787 Eh
Final COS-X integration done in                =    25.005 sec

----------------
TOTAL SCF ENERGY
----------------

Total Energy       :        -3294.90004979 Eh          -89658.78852 eV

Components:
Nuclear Repulsion  :         6460.95870478 Eh          175811.62445 eV
Electronic Energy  :        -9755.85875457 Eh         -265470.41297 eV
One Electron Energy:       -18239.59475977 Eh         -496324.60607 eV
Two Electron Energy:         8483.73600520 Eh          230854.19310 eV
Max COSX asymmetry :            0.00001006 Eh               0.00027 eV

Virial components:
Potential Energy   :        -5246.32020537 Eh         -142759.63055 eV
Kinetic Energy     :         1951.42015558 Eh           53100.84203 eV
Virial Ratio       :            2.68846265


DFT components:
N(Alpha)           :      157.999963313401 electrons
N(Beta)            :      152.999961024551 electrons
N(Total)           :      310.999924337953 electrons
E(X)               :     -111.447185021478 Eh       
E(C)               :       -8.584521716501 Eh       
E(XC)              :     -120.031706737979 Eh       
DFET-embed. en.    :        0.000000000000 Eh       

---------------
SCF CONVERGENCE
---------------

  Last Energy change         ...   -8.9980e-07  Tolerance :   1.0000e-06
  Last MAX-Density change    ...    0.0000e+00  Tolerance :   1.0000e-05
  Last RMS-Density change    ...    0.0000e+00  Tolerance :   1.0000e-06
  Last DIIS Error            ...    8.0191e-05  Tolerance :   1.0000e-06

             **** THE GBW FILE WAS UPDATED (b2plyp.gbw) ****
             **** DENSITY b2plyp.scfp WAS UPDATED ****
             **** ENERGY FILE WAS UPDATED (b2plyp.en.tmp) ****
----------------------
UHF SPIN CONTAMINATION
----------------------

Warning: in a DFT calculation there is little theoretical justification to 
         calculate <S**2> as in Hartree-Fock theory. We will do it anyways
         but you should keep in mind that the values have only limited relevance

Expectation value of <S**2>     :     8.787412
Ideal value S*(S+1) for S=2.5   :     8.750000
Deviation                       :     0.037412

             **** THE GBW FILE WAS UPDATED (b2plyp.gbw) ****
             **** DENSITY b2plyp.scfp WAS UPDATED ****
----------------
ORBITAL ENERGIES
----------------
                 SPIN UP ORBITALS
  NO   OCC          E(Eh)            E(eV) 
   0   1.0000    -258.361816     -7030.3824 
   1   1.0000     -30.920212      -841.3818 
   2   1.0000     -26.638003      -724.8569 
   3   1.0000     -26.610217      -724.1008 
   4   1.0000     -26.607493      -724.0267 
   5   1.0000      -4.410230      -120.0085 
   6   1.0000      -4.409519      -119.9891 
   7   1.0000      -4.407553      -119.9356 
   8   1.0000      -4.403819      -119.8340 
   9   1.0000      -4.400954      -119.7561 
  10   1.0000      -4.400651      -119.7478 
  11   1.0000      -4.400125      -119.7335 
  12   1.0000      -4.399813      -119.7250 
  13   1.0000      -4.398599      -119.6920 
  14   1.0000      -4.398336      -119.6848 
  15   1.0000      -4.398333      -119.6847 
  16   1.0000      -4.396488      -119.6345 
  17   1.0000      -4.396309      -119.6297 
  18   1.0000      -4.395620      -119.6109 
  19   1.0000      -4.395248      -119.6008 
  20   1.0000      -3.933998      -107.0495 
  21   1.0000      -2.683341       -73.0174 
  22   1.0000      -2.625443       -71.4419 
  23   1.0000      -2.620522       -71.3080 
  24   1.0000      -2.529376       -68.8278 
  25   1.0000      -2.529155       -68.8218 
  26   1.0000      -2.528090       -68.7928 
  27   1.0000      -2.527796       -68.7848 
  28   1.0000      -2.526547       -68.7508 
  29   1.0000      -2.525919       -68.7338 
  30   1.0000      -2.525240       -68.7153 
  31   1.0000      -2.524090       -68.6840 
  32   1.0000      -2.523545       -68.6692 
  33   1.0000      -2.522614       -68.6438 
  34   1.0000      -2.522340       -68.6363 
  35   1.0000      -2.521029       -68.6007 
  36   1.0000      -2.520649       -68.5904 
  37   1.0000      -2.519989       -68.5724 
  38   1.0000      -2.519449       -68.5577 
  39   1.0000      -2.519210       -68.5512 
  40   1.0000      -2.518925       -68.5434 
  41   1.0000      -2.518153       -68.5224 
  42   1.0000      -2.518033       -68.5192 
  43   1.0000      -2.517686       -68.5097 
  44   1.0000      -2.517515       -68.5051 
  45   1.0000      -2.517144       -68.4950 
  46   1.0000      -2.516925       -68.4890 
  47   1.0000      -2.516540       -68.4785 
  48   1.0000      -2.516225       -68.4700 
  49   1.0000      -2.515861       -68.4601 
  50   1.0000      -2.515761       -68.4573 
  51   1.0000      -2.515255       -68.4436 
  52   1.0000      -2.515112       -68.4397 
  53   1.0000      -2.514914       -68.4343 
  54   1.0000      -2.514306       -68.4177 
  55   1.0000      -2.514161       -68.4138 
  56   1.0000      -2.513737       -68.4023 
  57   1.0000      -2.513469       -68.3950 
  58   1.0000      -2.512602       -68.3714 
  59   1.0000      -2.512376       -68.3652 
  60   1.0000      -2.512198       -68.3604 
  61   1.0000      -2.511939       -68.3533 
  62   1.0000      -2.511591       -68.3439 
  63   1.0000      -2.511459       -68.3403 
  64   1.0000      -2.511051       -68.3292 
  65   1.0000      -2.511002       -68.3278 
  66   1.0000      -2.510227       -68.3067 
  67   1.0000      -2.510101       -68.3033 
  68   1.0000      -2.509587       -68.2893 
  69   1.0000      -0.577771       -15.7219 
  70   1.0000      -0.572142       -15.5688 
  71   1.0000      -0.571058       -15.5393 
  72   1.0000      -0.550712       -14.9856 
  73   1.0000      -0.521271       -14.1845 
  74   1.0000      -0.518649       -14.1132 
  75   1.0000      -0.477506       -12.9936 
  76   1.0000      -0.474347       -12.9076 
  77   1.0000      -0.471906       -12.8412 
  78   1.0000      -0.468382       -12.7453 
  79   1.0000      -0.467345       -12.7171 
  80   1.0000      -0.464792       -12.6476 
  81   1.0000      -0.462680       -12.5902 
  82   1.0000      -0.461788       -12.5659 
  83   1.0000      -0.460610       -12.5338 
  84   1.0000      -0.459595       -12.5062 
  85   1.0000      -0.458177       -12.4676 
  86   1.0000      -0.457473       -12.4485 
  87   1.0000      -0.454868       -12.3776 
  88   1.0000      -0.454174       -12.3587 
  89   1.0000      -0.453776       -12.3479 
  90   1.0000      -0.451960       -12.2985 
  91   1.0000      -0.451419       -12.2837 
  92   1.0000      -0.449329       -12.2269 
  93   1.0000      -0.447368       -12.1735 
  94   1.0000      -0.445640       -12.1265 
  95   1.0000      -0.444537       -12.0965 
  96   1.0000      -0.443457       -12.0671 
  97   1.0000      -0.442159       -12.0318 
  98   1.0000      -0.440162       -11.9774 
  99   1.0000      -0.437499       -11.9049 
 100   1.0000      -0.432181       -11.7603 
 101   1.0000      -0.428955       -11.6725 
 102   1.0000      -0.427979       -11.6459 
 103   1.0000      -0.423612       -11.5271 
 104   1.0000      -0.423056       -11.5119 
 105   1.0000      -0.418767       -11.3952 
 106   1.0000      -0.418365       -11.3843 
 107   1.0000      -0.414539       -11.2802 
 108   1.0000      -0.410441       -11.1687 
 109   1.0000      -0.406715       -11.0673 
 110   1.0000      -0.402618       -10.9558 
 111   1.0000      -0.398382       -10.8405 
 112   1.0000      -0.395436       -10.7604 
 113   1.0000      -0.389821       -10.6076 
 114   1.0000      -0.386637       -10.5209 
 115   1.0000      -0.385536       -10.4910 
 116   1.0000      -0.384507       -10.4630 
 117   1.0000      -0.382521       -10.4089 
 118   1.0000      -0.382217       -10.4007 
 119   1.0000      -0.377317       -10.2673 
 120   1.0000      -0.375747       -10.2246 
 121   1.0000      -0.375111       -10.2073 
 122   1.0000      -0.373589       -10.1659 
 123   1.0000      -0.372667       -10.1408 
 124   1.0000      -0.371447       -10.1076 
 125   1.0000      -0.370150       -10.0723 
 126   1.0000      -0.368015       -10.0142 
 127   1.0000      -0.366983        -9.9861 
 128   1.0000      -0.365569        -9.9476 
 129   1.0000      -0.364492        -9.9183 
 130   1.0000      -0.362305        -9.8588 
 131   1.0000      -0.360036        -9.7971 
 132   1.0000      -0.359450        -9.7811 
 133   1.0000      -0.357612        -9.7311 
 134   1.0000      -0.355845        -9.6830 
 135   1.0000      -0.354122        -9.6361 
 136   1.0000      -0.353289        -9.6135 
 137   1.0000      -0.351069        -9.5531 
 138   1.0000      -0.349573        -9.5124 
 139   1.0000      -0.347581        -9.4582 
 140   1.0000      -0.347441        -9.4543 
 141   1.0000      -0.344771        -9.3817 
 142   1.0000      -0.343633        -9.3507 
 143   1.0000      -0.343188        -9.3386 
 144   1.0000      -0.340156        -9.2561 
 145   1.0000      -0.338425        -9.2090 
 146   1.0000      -0.331075        -9.0090 
 147   1.0000      -0.329433        -8.9643 
 148   1.0000      -0.324077        -8.8186 
 149   1.0000      -0.323238        -8.7957 
 150   1.0000      -0.321868        -8.7585 
 151   1.0000      -0.320259        -8.7147 
 152   1.0000      -0.315840        -8.5945 
 153   1.0000      -0.244968        -6.6659 
 154   1.0000      -0.235755        -6.4152 
 155   1.0000      -0.224473        -6.1082 
 156   1.0000      -0.220652        -6.0043 
 157   1.0000      -0.216048        -5.8790 
 158   0.0000      -0.101172        -2.7530 
 159   0.0000      -0.068468        -1.8631 
 160   0.0000      -0.063575        -1.7300 
 161   0.0000      -0.062068        -1.6889 
 162   0.0000      -0.057645        -1.5686 
 163   0.0000      -0.054758        -1.4900 
 164   0.0000      -0.053461        -1.4547 
 165   0.0000      -0.026358        -0.7172 
 166   0.0000      -0.025923        -0.7054 
 167   0.0000      -0.022340        -0.6079 
 168   0.0000      -0.017247        -0.4693 
 169   0.0000       0.028234         0.7683 
 170   0.0000       0.035063         0.9541 
 171   0.0000       0.039347         1.0707 
 172   0.0000       0.039916         1.0862 
 173   0.0000       0.047386         1.2894 
 174   0.0000       0.048407         1.3172 
 175   0.0000       0.051164         1.3923 
 176   0.0000       0.054090         1.4719 
 177   0.0000       0.057490         1.5644 
 178   0.0000       0.067322         1.8319 
 179   0.0000       0.071667         1.9501 
 180   0.0000       0.076201         2.0735 
 181   0.0000       0.081939         2.2297 
 182   0.0000       0.085200         2.3184 
 183   0.0000       0.090232         2.4553 
 184   0.0000       0.103242         2.8094 
 185   0.0000       0.106075         2.8864 
 186   0.0000       0.107878         2.9355 
 187   0.0000       0.109609         2.9826 
 188   0.0000       0.113714         3.0943 
 189   0.0000       0.116302         3.1647 
 190   0.0000       0.125337         3.4106 
 191   0.0000       0.127161         3.4602 
 192   0.0000       0.129372         3.5204 
 193   0.0000       0.131977         3.5913 
 194   0.0000       0.132564         3.6073 
 195   0.0000       0.134195         3.6516 
 196   0.0000       0.137019         3.7285 
 197   0.0000       0.145398         3.9565 
 198   0.0000       0.150432         4.0935 
 199   0.0000       0.155648         4.2354 
 200   0.0000       0.158816         4.3216 
 201   0.0000       0.165281         4.4975 
 202   0.0000       0.169716         4.6182 
 203   0.0000       0.188669         5.1340 
 204   0.0000       0.196880         5.3574 
 205   0.0000       0.199635         5.4323 
 206   0.0000       0.203947         5.5497 
 207   0.0000       0.204690         5.5699 
 208   0.0000       0.205679         5.5968 
 209   0.0000       0.210623         5.7314 
 210   0.0000       0.213098         5.7987 
 211   0.0000       0.213250         5.8028 
 212   0.0000       0.217704         5.9240 
 213   0.0000       0.221001         6.0137 
 214   0.0000       0.223237         6.0746 
 215   0.0000       0.229302         6.2396 
 216   0.0000       0.230211         6.2643 
 217   0.0000       0.233153         6.3444 
 218   0.0000       0.248629         6.7655 
 219   0.0000       0.268576         7.3083 
 220   0.0000       0.273345         7.4381 
 221   0.0000       0.278268         7.5720 
 222   0.0000       0.283863         7.7243 
 223   0.0000       0.290390         7.9019 
 224   0.0000       0.300036         8.1644 
 225   0.0000       0.307872         8.3776 
 226   0.0000       0.315028         8.5723 
 227   0.0000       0.319225         8.6865 
 228   0.0000       0.322329         8.7710 
 229   0.0000       0.329027         8.9533 
 230   0.0000       0.330488         8.9930 
 231   0.0000       0.336121         9.1463 
 232   0.0000       0.339872         9.2484 
 233   0.0000       0.343833         9.3562 
 234   0.0000       0.348237         9.4760 
 235   0.0000       0.352814         9.6006 
 236   0.0000       0.356080         9.6894 
 237   0.0000       0.358609         9.7582 
 238   0.0000       0.360085         9.7984 
 239   0.0000       0.363766         9.8986 
 240   0.0000       0.372801        10.1444 
 241   0.0000       0.380301        10.3485 
 242   0.0000       0.384829        10.4717 
 243   0.0000       0.390552        10.6275 
 244   0.0000       0.394374        10.7315 
 245   0.0000       0.394761        10.7420 
 246   0.0000       0.397044        10.8041 
 247   0.0000       0.406606        11.0643 
 248   0.0000       0.414465        11.2782 
 249   0.0000       0.415691        11.3115 
 250   0.0000       0.422304        11.4915 
 251   0.0000       0.424195        11.5429 
 252   0.0000       0.430034        11.7018 
 253   0.0000       0.432767        11.7762 
 254   0.0000       0.435003        11.8370 
 255   0.0000       0.441001        12.0003 
 256   0.0000       0.447557        12.1786 
 257   0.0000       0.453479        12.3398 
 258   0.0000       0.462398        12.5825 
 259   0.0000       0.468547        12.7498 
 260   0.0000       0.474257        12.9052 
 261   0.0000       0.479245        13.0409 
 262   0.0000       0.485035        13.1985 
 263   0.0000       0.489486        13.3196 
 264   0.0000       0.493400        13.4261 
 265   0.0000       0.494450        13.4547 
 266   0.0000       0.498477        13.5642 
 267   0.0000       0.504290        13.7224 
 268   0.0000       0.507722        13.8158 
 269   0.0000       0.509432        13.8624 
 270   0.0000       0.514901        14.0112 
 271   0.0000       0.515989        14.0408 
 272   0.0000       0.521734        14.1971 
 273   0.0000       0.524081        14.2610 
 274   0.0000       0.532824        14.4989 
 275   0.0000       0.536204        14.5908 
 276   0.0000       0.539288        14.6748 
 277   0.0000       0.546016        14.8579 
 278   0.0000       0.547998        14.9118 
 279   0.0000       0.557579        15.1725 
 280   0.0000       0.558749        15.2043 
 281   0.0000       0.566234        15.4080 
 282   0.0000       0.574668        15.6375 
 283   0.0000       0.577497        15.7145 
 284   0.0000       0.581388        15.8204 
 285   0.0000       0.582899        15.8615 
 286   0.0000       0.586665        15.9640 
 287   0.0000       0.589592        16.0436 
 288   0.0000       0.592777        16.1303 
 289   0.0000       0.595344        16.2001 
 290   0.0000       0.598888        16.2966 
 291   0.0000       0.600888        16.3510 
 292   0.0000       0.601375        16.3642 
 293   0.0000       0.609539        16.5864 
 294   0.0000       0.611161        16.6305 
 295   0.0000       0.617073        16.7914 
 296   0.0000       0.618274        16.8241 
 297   0.0000       0.621751        16.9187 
 298   0.0000       0.628143        17.0927 
 299   0.0000       0.632424        17.2091 
 300   0.0000       0.641191        17.4477 
 301   0.0000       0.645175        17.5561 
 302   0.0000       0.648148        17.6370 
 303   0.0000       0.655238        17.8299 
 304   0.0000       0.660131        17.9631 
 305   0.0000       0.672913        18.3109 
 306   0.0000       0.680734        18.5237 
 307   0.0000       0.700444        19.0600 
 308   0.0000       0.710925        19.3452 
 309   0.0000       0.796371        21.6704 
 310   0.0000       0.808715        22.0063 
 311   0.0000       0.813169        22.1275 
 312   0.0000       0.828001        22.5310 
 313   0.0000       0.834862        22.7178 
 314   0.0000       0.839132        22.8339 
 315   0.0000       0.845092        22.9961 
 316   0.0000       0.849262        23.1096 
 317   0.0000       0.862128        23.4597 
 318   0.0000       0.867685        23.6109 
 319   0.0000       0.875349        23.8195 
 320   0.0000       0.886689        24.1280 
 321   0.0000       0.893765        24.3206 
 322   0.0000       0.902274        24.5521 
 323   0.0000       0.905821        24.6486 
 324   0.0000       0.912513        24.8307 
 325   0.0000       0.927277        25.2325 
 326   0.0000       0.936968        25.4962 
 327   0.0000       0.941167        25.6105 
 328   0.0000       0.951517        25.8921 
 329   0.0000       0.952849        25.9283 
 330   0.0000       0.959168        26.1003 
 331   0.0000       0.964081        26.2340 
 332   0.0000       0.975930        26.5564 
 333   0.0000       0.982658        26.7395 
 334   0.0000       0.986046        26.8317 
 335   0.0000       1.003315        27.3016 
 336   0.0000       1.010910        27.5083 
 337   0.0000       1.016607        27.6633 
 338   0.0000       1.027922        27.9712 
 339   0.0000       1.033266        28.1166 
 340   0.0000       1.034031        28.1374 
 341   0.0000       1.043321        28.3902 
 342   0.0000       1.044307        28.4170 
 343   0.0000       1.052742        28.6466 
 344   0.0000       1.060357        28.8538 
 345   0.0000       1.063551        28.9407 
 346   0.0000       1.077309        29.3151 
 347   0.0000       1.086443        29.5636 
 348   0.0000       1.094683        29.7878 
 349   0.0000       1.120547        30.4916 
 350   0.0000       1.127189        30.6724 
 351   0.0000       1.136113        30.9152 
 352   0.0000       1.162797        31.6413 
 353   0.0000       1.240265        33.7493 
 354   0.0000       1.288458        35.0607 
 355   0.0000       1.318727        35.8844 
 356   0.0000       1.332158        36.2499 
 357   0.0000       1.377461        37.4826 
 358   0.0000       1.388957        37.7954 
 359   0.0000       1.404851        38.2279 
 360   0.0000       1.415108        38.5070 
 361   0.0000       1.423297        38.7299 
 362   0.0000       1.434272        39.0285 
 363   0.0000       1.441788        39.2330 
 364   0.0000       1.444346        39.3027 
 365   0.0000       1.449517        39.4434 
 366   0.0000       1.458243        39.6808 
 367   0.0000       1.462182        39.7880 
 368   0.0000       1.478219        40.2244 
 369   0.0000       1.480071        40.2748 
 370   0.0000       1.487325        40.4722 
 371   0.0000       1.492732        40.6193 
 372   0.0000       1.506182        40.9853 
 373   0.0000       1.507575        41.0232 
 374   0.0000       1.512495        41.1571 
 375   0.0000       1.520683        41.3799 
 376   0.0000       1.525749        41.5177 
 377   0.0000       1.529459        41.6187 
 378   0.0000       1.537848        41.8470 
 379   0.0000       1.539850        41.9015 
 380   0.0000       1.544963        42.0406 
 381   0.0000       1.561330        42.4859 
 382   0.0000       1.564733        42.5785 
 383   0.0000       1.574310        42.8391 
 384   0.0000       1.583149        43.0797 
 385   0.0000       1.586454        43.1696 
 386   0.0000       1.589760        43.2596 
 387   0.0000       1.594908        43.3996 
 388   0.0000       1.600125        43.5416 
 389   0.0000       1.604917        43.6720 
 390   0.0000       1.606610        43.7181 
 391   0.0000       1.608856        43.7792 
 392   0.0000       1.612382        43.8752 
 393   0.0000       1.614932        43.9445 
 394   0.0000       1.619323        44.0640 
 395   0.0000       1.622310        44.1453 
 396   0.0000       1.626369        44.2558 
 397   0.0000       1.627091        44.2754 
 398   0.0000       1.629296        44.3354 
 399   0.0000       1.637655        44.5628 
 400   0.0000       1.639434        44.6113 
 401   0.0000       1.643731        44.7282 
 402   0.0000       1.644692        44.7544 
 403   0.0000       1.647442        44.8292 
 404   0.0000       1.650735        44.9188 
 405   0.0000       1.655591        45.0509 
 406   0.0000       1.657326        45.0981 
 407   0.0000       1.665211        45.3127 
 408   0.0000       1.666758        45.3548 
 409   0.0000       1.670434        45.4548 
 410   0.0000       1.670767        45.4639 
 411   0.0000       1.675338        45.5883 
 412   0.0000       1.676271        45.6137 
 413   0.0000       1.676821        45.6286 
 414   0.0000       1.678714        45.6801 
 415   0.0000       1.679518        45.7020 
 416   0.0000       1.683739        45.8169 
 417   0.0000       1.684535        45.8385 
 418   0.0000       1.686648        45.8960 
 419   0.0000       1.688819        45.9551 
 420   0.0000       1.690292        45.9952 
 421   0.0000       1.691553        46.0295 
 422   0.0000       1.692771        46.0626 
 423   0.0000       1.694424        46.1076 
 424   0.0000       1.695922        46.1484 
 425   0.0000       1.697671        46.1960 
 426   0.0000       1.698454        46.2173 
 427   0.0000       1.700359        46.2691 
 428   0.0000       1.702438        46.3257 
 429   0.0000       1.703097        46.3436 
 430   0.0000       1.703511        46.3549 
 431   0.0000       1.704968        46.3945 
 432   0.0000       1.707101        46.4526 
 433   0.0000       1.707874        46.4736 
 434   0.0000       1.709431        46.5160 
 435   0.0000       1.711616        46.5754 
 436   0.0000       1.711941        46.5843 
 437   0.0000       1.713650        46.6308 
 438   0.0000       1.716762        46.7155 
 439   0.0000       1.716848        46.7178 
 440   0.0000       1.718360        46.7589 
 441   0.0000       1.719219        46.7823 
 442   0.0000       1.720250        46.8104 
 443   0.0000       1.721427        46.8424 
 444   0.0000       1.722872        46.8817 
 445   0.0000       1.724282        46.9201 
 446   0.0000       1.727137        46.9978 
 447   0.0000       1.727630        47.0112 
 448   0.0000       1.730354        47.0853 
 449   0.0000       1.730534        47.0902 
 450   0.0000       1.734708        47.2038 
 451   0.0000       1.735738        47.2318 
 452   0.0000       1.740391        47.3584 
 453   0.0000       1.740713        47.3672 
 454   0.0000       1.742589        47.4183 
 455   0.0000       1.745336        47.4930 
 456   0.0000       1.747758        47.5589 
 457   0.0000       1.748142        47.5694 
 458   0.0000       1.751330        47.6561 
 459   0.0000       1.754572        47.7443 
 460   0.0000       1.757780        47.8316 
 461   0.0000       1.758204        47.8431 
 462   0.0000       1.760416        47.9034 
 463   0.0000       1.761035        47.9202 
 464   0.0000       1.762614        47.9632 
 465   0.0000       1.765365        48.0380 
 466   0.0000       1.765990        48.0550 
 467   0.0000       1.768875        48.1335 
 468   0.0000       1.770628        48.1812 
 469   0.0000       1.773992        48.2728 
 470   0.0000       1.774995        48.3001 
 471   0.0000       1.776014        48.3278 
 472   0.0000       1.778719        48.4014 
 473   0.0000       1.780418        48.4476 
 474   0.0000       1.783379        48.5282 
 475   0.0000       1.784043        48.5463 
 476   0.0000       1.786020        48.6001 
 477   0.0000       1.789920        48.7062 
 478   0.0000       1.793899        48.8145 
 479   0.0000       1.795442        48.8565 
 480   0.0000       1.798068        48.9279 
 481   0.0000       1.805723        49.1362 
 482   0.0000       1.807906        49.1956 
 483   0.0000       1.809721        49.2450 
 484   0.0000       1.810620        49.2695 
 485   0.0000       1.812261        49.3141 
 486   0.0000       1.817439        49.4550 
 487   0.0000       1.819470        49.5103 
 488   0.0000       1.823041        49.6075 
 489   0.0000       1.826734        49.7080 
 490   0.0000       1.830061        49.7985 
 491   0.0000       1.836759        49.9808 
 492   0.0000       1.838503        50.0282 
 493   0.0000       1.844383        50.1882 
 494   0.0000       1.847054        50.2609 
 495   0.0000       1.848620        50.3035 
 496   0.0000       1.852462        50.4081 
 497   0.0000       1.856578        50.5201 
 498   0.0000       1.859562        50.6013 
 499   0.0000       1.865390        50.7598 
 500   0.0000       1.869286        50.8659 
 501   0.0000       1.887478        51.3609 
 502   0.0000       1.892274        51.4914 
 503   0.0000       1.898781        51.6685 
 504   0.0000       1.903470        51.7961 
 505   0.0000       1.911119        52.0042 
 506   0.0000       1.925902        52.4065 
 507   0.0000       1.937560        52.7237 
 508   0.0000       1.944585        52.9148 
 509   0.0000       1.957157        53.2570 
 510   0.0000       1.960182        53.3393 
 511   0.0000       1.971572        53.6492 
 512   0.0000       1.978102        53.8269 
 513   0.0000       1.981130        53.9093 
 514   0.0000       1.989785        54.1448 
 515   0.0000       1.996028        54.3147 
 516   0.0000       2.004935        54.5571 
 517   0.0000       2.006909        54.6108 
 518   0.0000       2.012371        54.7594 
 519   0.0000       2.019211        54.9455 
 520   0.0000       2.024717        55.0954 
 521   0.0000       2.031173        55.2710 
 522   0.0000       2.033189        55.3259 
 523   0.0000       2.041528        55.5528 
 524   0.0000       2.044265        55.6273 
 525   0.0000       2.057113        55.9769 
 526   0.0000       2.060930        56.0808 
 527   0.0000       2.069735        56.3204 
 528   0.0000       2.075634        56.4809 
 529   0.0000       2.094198        56.9860 
 530   0.0000       2.105505        57.2937 
 531   0.0000       2.112223        57.4765 
 532   0.0000       2.119989        57.6878 
 533   0.0000       2.160843        58.7995 
 534   0.0000       2.170257        59.0557 
 535   0.0000       2.237024        60.8725 
 536   0.0000       2.299645        62.5765 
 537   0.0000       2.322087        63.1872 
 538   0.0000       2.357716        64.1567 
 539   0.0000       2.407982        65.5245 
 540   0.0000       2.465800        67.0978 
 541   0.0000       2.494951        67.8911 
 542   0.0000       2.528714        68.8098 
 543   0.0000       2.607360        70.9499 
 544   0.0000       2.635627        71.7191 
 545   0.0000       2.642505        71.9062 
 546   0.0000       2.681863        72.9772 
 547   0.0000       2.694094        73.3100 
 548   0.0000       2.706680        73.6525 
 549   0.0000       2.719145        73.9917 
 550   0.0000       2.753004        74.9130 
 551   0.0000       2.760540        75.1181 
 552   0.0000       2.767768        75.3148 
 553   0.0000       2.777027        75.5667 
 554   0.0000       2.791876        75.9708 
 555   0.0000       2.810225        76.4701 
 556   0.0000       2.813964        76.5719 
 557   0.0000       3.674100        99.9773 
 558   0.0000       3.904922       106.2583 
 559   0.0000       3.923258       106.7573 
 560   0.0000       3.980637       108.3187 
 561   0.0000       4.024906       109.5233 
 562   0.0000       4.044792       110.0644 
 563   0.0000       4.088619       111.2570 
 564   0.0000       4.091502       111.3354 
 565   0.0000       4.095477       111.4436 
 566   0.0000       4.099148       111.5435 
 567   0.0000       4.119428       112.0953 
 568   0.0000       4.138688       112.6194 
 569   0.0000       4.141880       112.7063 
 570   0.0000      24.151553       657.1972 
 571   0.0000      24.313178       661.5952 
 572   0.0000      24.406628       664.1381 
[...]
      f-1     :    -0.000035
      f+2     :    -0.000015
      f-2     :    -0.000015
      f+3     :    -0.000001
      f-3     :    -0.000027
  6 Aus       :    -0.091894  s :    -0.091894
      pz      :    -0.007650  p :    -0.007715
      px      :    -0.001822
      py      :     0.001757
      dz2     :     0.000229  d :     0.012795
      dxz     :     0.001036
      dyz     :     0.008290
      dx2y2   :     0.001543
      dxy     :     0.001697
      f0      :    -0.000011  f :     0.000035
      f+1     :     0.000000
      f-1     :    -0.000009
      f+2     :     0.000044
      f-2     :     0.000013
      f+3     :    -0.000002
      f-3     :    -0.000000
  7 Aus       :     0.001217  s :     0.001217
      pz      :    -0.045750  p :    -0.043294
      px      :     0.002165
      py      :     0.000290
      dz2     :     0.001260  d :    -0.012450
      dxz     :    -0.012351
      dyz     :    -0.002171
      dx2y2   :    -0.000122
      dxy     :     0.000934
      f0      :    -0.000010  f :    -0.000048
      f+1     :    -0.000001
      f-1     :     0.000003
      f+2     :    -0.000024
      f-2     :    -0.000012
      f+3     :     0.000005
      f-3     :    -0.000010
  8 Aus       :    -0.085923  s :    -0.085923
      pz      :     0.002637  p :    -0.003041
      px      :    -0.004553
      py      :    -0.001126
      dz2     :    -0.003408  d :     0.003339
      dxz     :    -0.000213
      dyz     :     0.007024
      dx2y2   :    -0.000909
      dxy     :     0.000844
      f0      :    -0.000035  f :     0.000023
      f+1     :    -0.000008
      f-1     :     0.000016
      f+2     :     0.000045
      f-2     :     0.000016
      f+3     :    -0.000009
      f-3     :    -0.000002
  9 Aus       :     0.013810  s :     0.013810
      pz      :     0.001975  p :    -0.016725
      px      :     0.001944
      py      :    -0.020644
      dz2     :     0.000246  d :    -0.011994
      dxz     :    -0.000014
      dyz     :     0.000893
      dx2y2   :     0.000728
      dxy     :    -0.013848
      f0      :    -0.000012  f :    -0.000080
      f+1     :    -0.000006
      f-1     :    -0.000021
      f+2     :    -0.000003
      f-2     :    -0.000004
      f+3     :    -0.000006
      f-3     :    -0.000028
 10 Aus       :    -0.010907  s :    -0.010907
      pz      :    -0.036286  p :    -0.031037
      px      :     0.003651
      py      :     0.001598
      dz2     :    -0.001600  d :    -0.012372
      dxz     :    -0.001523
      dyz     :    -0.008057
      dx2y2   :     0.000481
      dxy     :    -0.001673
      f0      :    -0.000001  f :    -0.000029
      f+1     :    -0.000003
      f-1     :    -0.000002
      f+2     :    -0.000007
      f-2     :    -0.000008
      f+3     :    -0.000003
      f-3     :    -0.000005
 11 Aus       :     0.010775  s :     0.010775
      pz      :    -0.007417  p :    -0.005363
      px      :     0.003215
      py      :    -0.001161
      dz2     :     0.003340  d :     0.004158
      dxz     :    -0.002411
      dyz     :    -0.004587
      dx2y2   :     0.006173
      dxy     :     0.001643
      f0      :     0.000005  f :     0.000042
      f+1     :     0.000021
      f-1     :    -0.000004
      f+2     :     0.000005
      f-2     :    -0.000019
      f+3     :     0.000024
      f-3     :     0.000011
 12 Aus       :     0.008075  s :     0.008075
      pz      :    -0.012816  p :    -0.007434
      px      :     0.001277
      py      :     0.004106
      dz2     :     0.000602  d :    -0.006774
      dxz     :    -0.007989
      dyz     :     0.000441
      dx2y2   :    -0.001610
      dxy     :     0.001782
      f0      :    -0.000007  f :    -0.000031
      f+1     :     0.000002
      f-1     :    -0.000011
      f+2     :    -0.000014
      f-2     :    -0.000004
      f+3     :     0.000002
      f-3     :    -0.000000
 13 Aus       :     0.000774  s :     0.000774
      pz      :     0.001304  p :    -0.033407
      px      :     0.002629
      py      :    -0.037340
      dz2     :     0.001609  d :     0.007394
      dxz     :     0.006367
      dyz     :     0.004167
      dx2y2   :     0.000706
      dxy     :    -0.005454
      f0      :    -0.000016  f :     0.000009
      f+1     :     0.000024
      f-1     :    -0.000002
      f+2     :     0.000012
      f-2     :     0.000014
      f+3     :    -0.000015
      f-3     :    -0.000008
 14 Aus       :     0.016774  s :     0.016774
      pz      :    -0.028013  p :    -0.018197
      px      :     0.004251
      py      :     0.005564
      dz2     :     0.001302  d :    -0.007263
      dxz     :    -0.010086
      dyz     :     0.001354
      dx2y2   :    -0.000706
      dxy     :     0.000873
      f0      :    -0.000006  f :    -0.000029
      f+1     :     0.000002
      f-1     :    -0.000003
      f+2     :    -0.000015
      f-2     :    -0.000005
      f+3     :     0.000000
      f-3     :    -0.000003
 15 Fes       :     0.010787  s :     0.010787
      pz      :     0.003076  p :     0.009824
      px      :     0.002759
      py      :     0.003989
      dz2     :     0.472521  d :     3.593689
      dxz     :     0.785944
      dyz     :     0.780649
      dx2y2   :     0.667156
      dxy     :     0.887419
      f0      :    -0.000016  f :    -0.000055
      f+1     :     0.000015
      f-1     :    -0.000035
      f+2     :    -0.000019
      f-2     :    -0.000010
      f+3     :     0.000002
      f-3     :     0.000008


                      *****************************
                      * MAYER POPULATION ANALYSIS *
                      *****************************

  NA   - Mulliken gross atomic population
  ZA   - Total nuclear charge
  QA   - Mulliken gross atomic charge
  VA   - Mayer's total valence
  BVA  - Mayer's bonded valence
  FA   - Mayer's free valence

  ATOM       NA         ZA         QA         VA         BVA        FA
  0 Au    18.8521    19.0000     0.1479     1.5304     1.5248     0.0056
  1 Au    18.8269    19.0000     0.1731     1.5585     1.5137     0.0448
  2 Au    18.8070    19.0000     0.1930     1.5113     1.5098     0.0015
  3 Au    19.1519    19.0000    -0.1519     1.7647     1.7587     0.0059
  4 Au    18.7244    19.0000     0.2756     1.4506     1.4391     0.0115
  5 Au    18.6138    19.0000     0.3862     1.3181     1.3149     0.0032
  6 Au    19.0509    19.0000    -0.0509     1.9065     1.8468     0.0597
  7 Au    18.8496    19.0000     0.1504     1.5150     1.5113     0.0038
  8 Au    18.8976    19.0000     0.1024     1.6680     1.6255     0.0426
  9 Au    18.9530    19.0000     0.0470     1.6052     1.6032     0.0020
 10 Au    18.8100    19.0000     0.1900     1.5105     1.5048     0.0057
 11 Au    18.8174    19.0000     0.1826     1.4991     1.4960     0.0031
 12 Au    18.8401    19.0000     0.1599     1.5399     1.5387     0.0013
 13 Au    18.9271    19.0000     0.0729     1.5118     1.5093     0.0026
 14 Au    18.8808    19.0000     0.1192     1.4884     1.4852     0.0032
 15 Fe    27.9975    26.0000    -1.9975     8.4842     4.9199     3.5643

  Mayer bond orders larger than 0.100000
B(  0-Au,  1-Au) :   0.2405 B(  0-Au,  2-Au) :   0.2678 B(  0-Au, 10-Au) :   0.2273 
B(  0-Au, 13-Au) :   0.1829 B(  0-Au, 14-Au) :   0.1868 B(  0-Au, 15-Fe) :   0.2294 
B(  1-Au,  2-Au) :   0.1635 B(  1-Au,  4-Au) :   0.2015 B(  1-Au,  7-Au) :   0.1644 
B(  1-Au, 13-Au) :   0.1648 B(  1-Au, 15-Fe) :   0.3825 B(  2-Au,  3-Au) :   0.1839 
B(  2-Au,  7-Au) :   0.2478 B(  2-Au, 14-Au) :   0.2104 B(  2-Au, 15-Fe) :   0.2571 
B(  3-Au,  5-Au) :   0.3065 B(  3-Au,  6-Au) :   0.1495 B(  3-Au,  7-Au) :   0.1507 
B(  3-Au,  8-Au) :   0.1022 B(  3-Au, 14-Au) :   0.2039 B(  3-Au, 15-Fe) :   0.5134 
B(  4-Au,  7-Au) :   0.1926 B(  4-Au,  8-Au) :   0.2516 B(  4-Au, 11-Au) :   0.2519 
B(  4-Au, 15-Fe) :   0.3179 B(  5-Au,  6-Au) :   0.2675 B(  5-Au,  8-Au) :   0.2332 
B(  5-Au,  9-Au) :   0.2192 B(  6-Au,  9-Au) :   0.2068 B(  6-Au, 10-Au) :   0.2861 
B(  6-Au, 12-Au) :   0.2059 B(  6-Au, 14-Au) :   0.2161 B(  6-Au, 15-Fe) :   0.3738 
B(  7-Au,  8-Au) :   0.2142 B(  7-Au, 15-Fe) :   0.3461 B(  8-Au,  9-Au) :   0.2326 
B(  8-Au, 15-Fe) :   0.3611 B(  9-Au, 11-Au) :   0.1748 B(  9-Au, 12-Au) :   0.2602 
B(  9-Au, 15-Fe) :   0.2845 B( 10-Au, 12-Au) :   0.2657 B( 10-Au, 13-Au) :   0.1146 
B( 10-Au, 14-Au) :   0.2162 B( 10-Au, 15-Fe) :   0.2214 B( 11-Au, 12-Au) :   0.1637 
B( 11-Au, 13-Au) :   0.1903 B( 11-Au, 15-Fe) :   0.4418 B( 12-Au, 13-Au) :   0.1545 
B( 12-Au, 15-Fe) :   0.3031 B( 13-Au, 15-Fe) :   0.4981 B( 14-Au, 15-Fe) :   0.2945 


-------
TIMINGS
-------

Total SCF time: 0 days 1 hours 25 min 29 sec 

Total time                  ....    5129.950 sec
Sum of individual times     ....    5114.709 sec  ( 99.7%)

Fock matrix formation       ....    5036.465 sec  ( 98.2%)
  Split-RI-J                ....     440.451 sec  (  8.7% of F)
  Chain of spheres X        ....    3910.377 sec  ( 77.6% of F)
  XC integration            ....     677.076 sec  ( 13.4% of F)
    Basis function eval.    ....      65.829 sec  (  9.7% of XC)
    Density eval.           ....     296.601 sec  ( 43.8% of XC)
    XC-Functional eval.     ....       6.917 sec  (  1.0% of XC)
    XC-Potential eval.      ....     258.659 sec  ( 38.2% of XC)
Diagonalization             ....      34.819 sec  (  0.7%)
Density matrix formation    ....       4.859 sec  (  0.1%)
Population analysis         ....       0.167 sec  (  0.0%)
Initial guess               ....       0.246 sec  (  0.0%)
Orbital Transformation      ....      20.047 sec  (  0.4%)
Orbital Orthonormalization  ....       0.206 sec  (  0.0%)
DIIS solution               ....      15.337 sec  (  0.3%)
Grid generation             ....       2.752 sec  (  0.1%)

Maximum memory used throughout the entire SCF-calculation: 158.8 MB


           ************************************************************
           *        Program running with 6 parallel MPI-processes     *
           *              working on a common directory               *
           ************************************************************

------------------------------------------------------------------------------
                                ORCA  MP2 
------------------------------------------------------------------------------

Freezing NCore=10 chemical core electrons

   <<< Use J-auxbasis for calculation of Separable RI-J derivative contributions (Dim=1424) >>> 


-------------
RI-MP2 ENERGY
-------------
Dimension of the basis                    ...  645
Memory devoted to MP2                     ...  256 MB   
Data format for buffers                   ... DOUBLE
Compression type for matrix containers    ... UNCOMPRESSED
Overall scaling of the MP2 energy         ...   2.700e-01
Calculating two index integrals           ... done (    0.047 sec)
Cholesky decomposition of V**-1           ... done (    0.465 sec)

-----------------
RI-TRANSFORMATION (AUX index driven)
-----------------

Dimension of the orbital-basis         ... 645
Dimension of the aux-basis             ... 2447
Transformation of internal/external MOs...    5- 156 to  157- 644
Number Format for Storage              ... Double (8 Byte)
Integral mode                          ... Direct

First Phase: integral generation and transformation of MO indices
  Aux angular momentum 0               ... done (    0.255 sec)
  Aux angular momentum 1               ... done (    0.612 sec)
  Aux angular momentum 2               ... done (    0.874 sec)
  Aux angular momentum 3               ... done (    0.896 sec)
  Aux angular momentum 4               ... done (    0.766 sec)
  Aux angular momentum 5               ... done (    0.660 sec)
Closing buffer VIA ( 1.35 GB; CompressionRatio= 1.00)
  Phase 1 completed in     4.178 sec
Second Phase: sorting and transformation of aux index

IA-Transformation
Memory available                       ... 157 MB 
Max. # MO pairs treated in a batch     ... 16    
# of internal orbitals                 ... 152
# batches for internal orbitals        ... 2
Closing buffer IAV ( 1.35 GB; CompressionRatio= 1.00)
(ia|v) transformation done in     3.897 sec

  Phase 2 completed in     4.016 sec
RI-Integral transformation completed in     8.195 sec

-----------------
RI-TRANSFORMATION (AUX index driven)
-----------------

Dimension of the orbital-basis         ... 645
Dimension of the aux-basis             ... 2447
Transformation of internal/external MOs...    5- 153 to  154- 644
Number Format for Storage              ... Double (8 Byte)
Integral mode                          ... Direct

First Phase: integral generation and transformation of MO indices
  Aux angular momentum 0               ... done (    0.255 sec)
  Aux angular momentum 1               ... done (    0.616 sec)
  Aux angular momentum 2               ... done (    0.891 sec)
  Aux angular momentum 3               ... done (    0.908 sec)
  Aux angular momentum 4               ... done (    0.770 sec)
  Aux angular momentum 5               ... done (    0.665 sec)
Closing buffer VIA ( 1.33 GB; CompressionRatio= 1.00)
  Phase 1 completed in     4.215 sec
Second Phase: sorting and transformation of aux index

IA-Transformation
Memory available                       ... 157 MB 
Max. # MO pairs treated in a batch     ... 16    
# of internal orbitals                 ... 149
# batches for internal orbitals        ... 2
Closing buffer IAV ( 1.33 GB; CompressionRatio= 1.00)
(ia|v) transformation done in     3.832 sec

  Phase 2 completed in     3.953 sec
RI-Integral transformation completed in     8.167 sec
Opening buffers                              ... done

Starting loop over batches of integrals:

Operator 0  - window                       ... (  5-156)x(157-644)
Operator 0  - Memory available             ...   256 MB
Operator 0  - Memory needed per MO         ...   9.1 MB
Operator 0  - Number of orbitals per batch ... 18
Operator 0  - Number of batches            ... 2

OPERATOR  0   PASS   0:  MOs     5 ...   22 +   23 ...   40 +   41 ...   58 +   59 ...   76
                            +   77 ...   94 +   95 ...  112
  Reading integrals       ... ok
  Internal MO   7
  Internal MO  10
  Internal MO  13
  Internal MO  16
  Internal MO  19
  Internal MO  22
OPERATOR  0   PASS   1:  MOs   113 ...  120 +  121 ...  128 +  129 ...  135 +  136 ...  142
                            +  143 ...  149 +  150 ...  156
  Reading integrals       ... ok
  Internal MO 151
  Internal MO 154

Operator 1  - window                       ... (  5-153)x(154-644)
Operator 1  - Memory available             ...   256 MB
Operator 1  - Memory needed per MO         ...   9.2 MB
Operator 1  - Number of orbitals per batch ... 18
Operator 1  - Number of batches            ... 2

OPERATOR  1   PASS   0:  MOs     5 ...   22 +   23 ...   40 +   41 ...   58 +   59 ...   76
                            +   77 ...   94 +   95 ...  112
  Reading integrals       ... ok
  Internal MO   7
  Internal MO  10
  Internal MO  13
  Internal MO  16
  Internal MO  19
  Internal MO  22
OPERATOR  1   PASS   1:  MOs   113 ...  119 +  120 ...  126 +  127 ...  133 +  134 ...  140
                            +  141 ...  147 +  148 ...  153
  Reading integrals       ... ok
  Internal MO 148
  Internal MO 151
Time spent in pair loops =   378.551 sec
Deleting buffer (Ka|jb)[aa] ...done
Deleting buffer (Ka|jb)[ba] ...done
Deleting buffer (Ka|jb)[ab] ...done
Deleting buffer (Ka|jb)[bb] ...done

Correlation energy components}
 E2 and T2 for alpha/alpha pairs :     -0.462339935 Eh      0.000000000
 E2 and T2 for beta/beta   pairs :     -0.452298807 Eh      0.000000000
 E2 and T2 for alpha/beta  pairs :     -1.544394139 Eh      0.000000000


-----------------------------------------------
 RI-MP2 CORRELATION ENERGY:     -2.459032881 Eh
-----------------------------------------------


-------
TIMINGS
-------

Total time                :  401.398 sec
Integral trafo            :   16.378 sec (  4.1%)
I/O of integrals          :    0.297 sec (  0.1%)
K(i,j) Operators          :  261.462 sec ( 65.1%)
T(i,j) pair energies      :    9.319 sec (  2.3%)
V-calculation             :    0.047 sec (  0.0%)
V**(-1/2)                 :    0.465 sec (  0.1%)
Gamma(ia|P)               :    0.000 sec (  0.0%)
Gamma-Trafo               :    0.000 sec (  0.0%)
D(virtual)                :    0.000 sec (  0.0%)
D(internal)               :    0.000 sec (  0.0%)
W(virtual)                :    0.000 sec (  0.0%)
W(internal)               :    0.000 sec (  0.0%)
L(virtual)                :    0.000 sec (  0.0%)
L(internal)               :    0.000 sec (  0.0%)
G(D)                      :    0.000 sec (  0.0%)
G(Z)                      :    0.000 sec (  0.0%)
Z-Vector Solution         :    0.000 sec (  0.0%)
3-Index Derivative        :    0.000 sec (  0.0%)
2-Index Derivative        :    0.000 sec (  0.0%)
Separable Gradient (RIJ)  :    0.000 sec (  0.0%)
Separable Gradient (COSX) :    0.000 sec (  0.0%)


---------------------------------------
MP2 TOTAL ENERGY:    -3297.358277181 Eh
---------------------------------------

Maximum memory used throughout the entire MP2-calculation: 301.7 MB

-------------------------   --------------------
FINAL SINGLE POINT ENERGY     -3297.358277181348
-------------------------   --------------------


                            ***************************************
                            *     ORCA property calculations      *
                            ***************************************


  WARNING: The energy has been calculated at the MP2 level but the densities
           used in the property calculations are still SCF densities
           MP2 response densities have not been calculated 
           use %mp2 Density relaxed end
           or  %mp2 Density unrelaxed end

                                    ---------------------
                                    Active property flags
                                    ---------------------
   (+) Dipole Moment


------------------------------------------------------------------------------
                       ORCA ELECTRIC PROPERTIES CALCULATION
------------------------------------------------------------------------------

Dipole Moment Calculation                       ... on
Quadrupole Moment Calculation                   ... off
Polarizability Calculation                      ... off
GBWName                                         ... b2plyp_job2.gbw
Electron density                                ... b2plyp_job2.scfp
The origin for moment calculation is the CENTER OF MASS  = (13.826334, 14.696206 14.223081)

-------------
DIPOLE MOMENT
-------------
                                X             Y             Z
Electronic contribution:      5.15985       6.47122      -5.21113
Nuclear contribution   :     -5.16025      -6.67691       4.96324
                        -----------------------------------------
Total Dipole Moment    :     -0.00039      -0.20569      -0.24790
                        -----------------------------------------
Magnitude (a.u.)       :      0.32212
Magnitude (Debye)      :      0.81877



--------------------
Rotational spectrum 
--------------------
 
Rotational constants in cm-1:     0.001003     0.000944     0.000904 
Rotational constants in MHz :    30.082356    28.308572    27.086401 

 Dipole components along the rotational axes: 
x,y,z [a.u.] :    -0.281421    -0.133699    -0.081785 
x,y,z [Debye]:    -0.715315    -0.339835    -0.207881 

 

Timings for individual modules:

Sum of individual times         ...     5543.304 sec (=  92.388 min)
GTO integral calculation        ...       11.513 sec (=   0.192 min)   0.2 %
SCF iterations                  ...     5130.046 sec (=  85.501 min)  92.5 %
MP2 module                      ...      401.745 sec (=   6.696 min)   7.2 %



                             ****ORCA TERMINATED NORMALLY****
TOTAL RUN TIME: 0 days 2 hours 0 minutes 51 seconds 924 msec
