
                                 *****************
                                 * O   R   C   A *
                                 *****************

                                            #,                                       
                                            ###                                      
                                            ####                                     
                                            #####                                    
                                            ######                                   
                                           ########,                                 
                                     ,,################,,,,,                         
                               ,,#################################,,                 
                          ,,##########################################,,             
                       ,#########################################, ''#####,          
                    ,#############################################,,   '####,        
                  ,##################################################,,,,####,       
                ,###########''''           ''''###############################       
              ,#####''   ,,,,##########,,,,          '''####'''          '####       
            ,##' ,,,,###########################,,,                        '##       
           ' ,,###''''                  '''############,,,                           
         ,,##''                                '''############,,,,        ,,,,,,###''
      ,#''                                            '''#######################'''  
     '                                                          ''''####''''         
             ,#######,   #######,   ,#######,      ##                                
            ,#'     '#,  ##    ##  ,#'     '#,    #''#        ######   ,####,        
            ##       ##  ##   ,#'  ##            #'  '#       #        #'  '#        
            ##       ##  #######   ##           ,######,      #####,   #    #        
            '#,     ,#'  ##    ##  '#,     ,#' ,#      #,         ##   #,  ,#        
             '#######'   ##     ##  '#######'  #'      '#     #####' # '####'        



                  #######################################################
                  #                        -***-                        #
                  #          Department of theory and spectroscopy      #
                  #    Directorship and core code : Frank Neese         #
                  #        Max Planck Institute fuer Kohlenforschung    #
                  #                Kaiser Wilhelm Platz 1               #
                  #                 D-45470 Muelheim/Ruhr               #
                  #                      Germany                        #
                  #                                                     #
                  #                  All rights reserved                #
                  #                        -***-                        #
                  #######################################################


                         Program Version 5.0.3 -  RELEASE  -


 With contributions from (in alphabetic order):
   Daniel Aravena         : Magnetic Suceptibility
   Michael Atanasov       : Ab Initio Ligand Field Theory (pilot matlab implementation)
   Alexander A. Auer      : GIAO ZORA, VPT2 properties, NMR spectrum
   Ute Becker             : Parallelization
   Giovanni Bistoni       : ED, misc. LED, open-shell LED, HFLD
   Martin Brehm           : Molecular dynamics
   Dmytro Bykov           : SCF Hessian
   Vijay G. Chilkuri      : MRCI spin determinant printing, contributions to CSF-ICE
   Dipayan Datta          : RHF DLPNO-CCSD density
   Achintya Kumar Dutta   : EOM-CC, STEOM-CC
   Dmitry Ganyushin       : Spin-Orbit,Spin-Spin,Magnetic field MRCI
   Miquel Garcia          : C-PCM and meta-GGA Hessian, CC/C-PCM, Gaussian charge scheme
   Yang Guo               : DLPNO-NEVPT2, F12-NEVPT2, CIM, IAO-localization
   Andreas Hansen         : Spin unrestricted coupled pair/coupled cluster methods
   Benjamin Helmich-Paris : MC-RPA, TRAH-SCF, COSX integrals
   Lee Huntington         : MR-EOM, pCC
   Robert Izsak           : Overlap fitted RIJCOSX, COSX-SCS-MP3, EOM
   Marcus Kettner         : VPT2
   Christian Kollmar      : KDIIS, OOCD, Brueckner-CCSD(T), CCSD density, CASPT2, CASPT2-K
   Simone Kossmann        : Meta GGA functionals, TD-DFT gradient, OOMP2, MP2 Hessian
   Martin Krupicka        : Initial AUTO-CI
   Lucas Lang             : DCDCAS
   Marvin Lechner         : AUTO-CI (C++ implementation), FIC-MRCC
   Dagmar Lenk            : GEPOL surface, SMD
   Dimitrios Liakos       : Extrapolation schemes; Compound Job, initial MDCI parallelization
   Dimitrios Manganas     : Further ROCIS development; embedding schemes
   Dimitrios Pantazis     : SARC Basis sets
   Anastasios Papadopoulos: AUTO-CI, single reference methods and gradients
   Taras Petrenko         : DFT Hessian,TD-DFT gradient, ASA, ECA, R-Raman, ABS, FL, XAS/XES, NRVS
   Peter Pinski           : DLPNO-MP2, DLPNO-MP2 Gradient
   Christoph Reimann      : Effective Core Potentials
   Marius Retegan         : Local ZFS, SOC
   Christoph Riplinger    : Optimizer, TS searches, QM/MM, DLPNO-CCSD(T), (RO)-DLPNO pert. Triples
   Tobias Risthaus        : Range-separated hybrids, TD-DFT gradient, RPA, STAB
   Michael Roemelt        : Original ROCIS implementation
   Masaaki Saitow         : Open-shell DLPNO-CCSD energy and density
   Barbara Sandhoefer     : DKH picture change effects
   Avijit Sen             : IP-ROCIS
   Kantharuban Sivalingam : CASSCF convergence, NEVPT2, FIC-MRCI
   Bernardo de Souza      : ESD, SOC TD-DFT
   Georgi Stoychev        : AutoAux, RI-MP2 NMR, DLPNO-MP2 response
   Willem Van den Heuvel  : Paramagnetic NMR
   Boris Wezisla          : Elementary symmetry handling
   Frank Wennmohs         : Technical directorship


 We gratefully acknowledge several colleagues who have allowed us to
 interface, adapt or use parts of their codes:
   Stefan Grimme, W. Hujo, H. Kruse, P. Pracht,  : VdW corrections, initial TS optimization,
                  C. Bannwarth, S. Ehlert          DFT functionals, gCP, sTDA/sTD-DF
   Ed Valeev, F. Pavosevic, A. Kumar             : LibInt (2-el integral package), F12 methods
   Garnet Chan, S. Sharma, J. Yang, R. Olivares  : DMRG
   Ulf Ekstrom                                   : XCFun DFT Library
   Mihaly Kallay                                 : mrcc  (arbitrary order and MRCC methods)
   Jiri Pittner, Ondrej Demel                    : Mk-CCSD
   Frank Weinhold                                : gennbo (NPA and NBO analysis)
   Christopher J. Cramer and Donald G. Truhlar   : smd solvation model
   Lars Goerigk                                  : TD-DFT with DH, B97 family of functionals
   V. Asgeirsson, H. Jonsson                     : NEB implementation
   FAccTs GmbH                                   : IRC, NEB, NEB-TS, DLPNO-Multilevel, CI-OPT
                                                   MM, QMMM, 2- and 3-layer-ONIOM, Crystal-QMMM,
                                                   LR-CPCM, SF, NACMEs, symmetry and pop. for TD-DFT,
                                                   nearIR, NL-DFT gradient (VV10), updates on ESD,
                                                   ML-optimized integration grids
   S Lehtola, MJT Oliveira, MAL Marques          : LibXC Library
   Liviu Ungur et al                             : ANISO software


 Your calculation uses the libint2 library for the computation of 2-el integrals
 For citations please refer to: http://libint.valeyev.net

 Your ORCA version has been built with support for libXC version: 5.1.0
 For citations please refer to: https://tddft.org/programs/libxc/

 This ORCA versions uses:
   CBLAS   interface :  Fast vector & matrix operations
   LAPACKE interface :  Fast linear algebra routines
   SCALAPACK package :  Parallel linear algebra routines
   Shared memory     :  Shared parallel matrices
   BLAS/LAPACK       :  OpenBLAS 0.3.15  USE64BITINT DYNAMIC_ARCH NO_AFFINITY Haswell SINGLE_THREADED
        Core in use  :  Haswell
   Copyright (c) 2011-2014, The OpenBLAS Project




***************************************
The coordinates will be read from file: pbe.xyz
***************************************


================================================================================

cite the ECPs for Au [Def2-ECP] as follows:
Ce-Yb(ecp-28): M. Dolg, H. Stoll, H.Preuss, J. Chem. Phys., 1989, 90, 1730-1734.
Y-Cd(ecp-28), Hf-Hg(ecp-46): D. Andrae,U. Haeussermann, M. Dolg, H. Stoll, H. Preuss, Theor. Chim. Acta, 1990, 77, 123-141.
In-Sb(ecp-28), Tl-Bi(ecp-46): B. Metz, H. Stoll, M. Dolg, J. Chem. Phys., 2000, 113, 2563-2569.
Te-Xe(ecp-28), Po-Rn(ecp-46): K. A. Peterson, D. Figgen, E. Goll, H. Stoll, M. Dolg, J. Chem. Phys., 2003, 119, 11113-11123.
Rb(ecp-28), Cs(ecp-46): T. Leininger, A. Nicklass, W. Kuechle, H. Stoll, M. Dolg, A. Bergner, Chem. Phys. Lett., 1996, 255, 274-280.
Sr(ecp-28), Ba(ecp-46): M. Kaupp, P. V. Schleyer, H. Stoll and H. Preuss, J. Chem. Phys., 1991, 94, 1360-1366.
La(ecp-46): M. Dolg, H. Stoll, A. Savin, H. Preuss, Theor. Chim. Acta, 1989, 75, 173-194.
Lu(ecp-28): X. Cao, M. Dolg, J. Chem. Phys., 2001, 115, 7348-7355.

ECP parameters for Au [Def2-ECP] have been obtained from:
TURBOMOLE (7.0.2)

----- Orbital basis set information -----
Your calculation utilizes the basis: def2-TZVP
   F. Weigend and R. Ahlrichs, Phys. Chem. Chem. Phys. 7, 3297 (2005).

----- AuxJ basis set information -----
Your calculation utilizes the auxiliary basis: def2/J
   F. Weigend, Phys. Chem. Chem. Phys. 8, 1057 (2006).

================================================================================
                                        WARNINGS
                       Please study these warnings very carefully!
================================================================================


WARNING: your system is open-shell and RHF/RKS was chosen
  ===> : WILL SWITCH to UHF/UKS


INFO   : the flag for use of the SHARK integral package has been found!



***************************************
The coordinates will be read from file: pbe.xyz
***************************************


================================================================================

cite the ECPs for Au [Def2-ECP] as follows:
Ce-Yb(ecp-28): M. Dolg, H. Stoll, H.Preuss, J. Chem. Phys., 1989, 90, 1730-1734.
Y-Cd(ecp-28), Hf-Hg(ecp-46): D. Andrae,U. Haeussermann, M. Dolg, H. Stoll, H. Preuss, Theor. Chim. Acta, 1990, 77, 123-141.
In-Sb(ecp-28), Tl-Bi(ecp-46): B. Metz, H. Stoll, M. Dolg, J. Chem. Phys., 2000, 113, 2563-2569.
Te-Xe(ecp-28), Po-Rn(ecp-46): K. A. Peterson, D. Figgen, E. Goll, H. Stoll, M. Dolg, J. Chem. Phys., 2003, 119, 11113-11123.
Rb(ecp-28), Cs(ecp-46): T. Leininger, A. Nicklass, W. Kuechle, H. Stoll, M. Dolg, A. Bergner, Chem. Phys. Lett., 1996, 255, 274-280.
Sr(ecp-28), Ba(ecp-46): M. Kaupp, P. V. Schleyer, H. Stoll and H. Preuss, J. Chem. Phys., 1991, 94, 1360-1366.
La(ecp-46): M. Dolg, H. Stoll, A. Savin, H. Preuss, Theor. Chim. Acta, 1989, 75, 173-194.
Lu(ecp-28): X. Cao, M. Dolg, J. Chem. Phys., 2001, 115, 7348-7355.

ECP parameters for Au [Def2-ECP] have been obtained from:
TURBOMOLE (7.0.2)

----- Orbital basis set information -----
Your calculation utilizes the basis: def2-TZVP
   F. Weigend and R. Ahlrichs, Phys. Chem. Chem. Phys. 7, 3297 (2005).

----- AuxJ basis set information -----
Your calculation utilizes the auxiliary basis: def2/J
   F. Weigend, Phys. Chem. Chem. Phys. 8, 1057 (2006).

================================================================================
                                        WARNINGS
                       Please study these warnings very carefully!
================================================================================


INFO   : the flag for use of the SHARK integral package has been found!

================================================================================
                                       INPUT FILE
================================================================================
NAME = pbeSP.inp
|  1> !PBE def2-TZVP VERYSLOWCONV
|  2> 
|  3> %scf
|  4>   AutoTRAHIter 200
|  5>   maxiter 400
|  6> end
|  7> 
|  8> 
|  9> %pal nprocs 6 end 
| 10> 
| 11> *xyzfile 0 6 pbe.xyz
| 12> 
| 13> $new_job
| 14> 
| 15> !PBE def2-TZVP VERYSLOWCONV
| 16> 
| 17> %scf
| 18>   AutoTRAHIter 200
| 19>   maxiter 400
| 20> end
| 21>  
| 22> 
| 23> %pal nprocs 6 end 
| 24> 
| 25> *xyzfile 0 4 pbe.xyz
| 26> 
| 27> 
| 28> 
| 29> 
| 30> 
| 31>                          ****END OF INPUT****
================================================================================


                 $$$$$$$$$$$$$$$$$$$$$$$$$$$$$$$$$$$$$$$$$$$$$$ 
                 $ THERE ARE  2 JOBS TO BE PROCESSED THIS RUN $
                 $$$$$$$$$$$$$$$$$$$$$$$$$$$$$$$$$$$$$$$$$$$$$$ 




                 $$$$$$$$$$$$$$$$  JOB NUMBER  1 $$$$$$$$$$$$$$


                       ****************************
                       * Single Point Calculation *
                       ****************************

---------------------------------
CARTESIAN COORDINATES (ANGSTROEM)
---------------------------------
  Au     8.470719    9.337150   10.021746
  Au     7.653314    6.676654   10.167117
  Au    10.111173    7.458138    8.841459
  Au     9.413980    7.264270    6.104093
  Au     6.161304    4.976992    8.595005
  Au     7.680035    7.301520    3.983302
  Au     7.394008    9.498219    5.662224
  Au     8.854591    5.205872    7.960977
  Au     6.945091    5.465032    5.958641
  Au     5.261959    7.589121    5.319577
  Au     7.125374   10.832838    8.139296
  Au     4.483014    6.993255    7.918521
  Au     4.907313    9.637689    7.124549
  Au     5.770137    8.722160    9.679620
  Au     9.554262    9.743151    7.385696
  Fe     7.184104    7.605484    7.653949

----------------------------
CARTESIAN COORDINATES (A.U.)
----------------------------
  NO LB      ZA    FRAG     MASS         X           Y           Z
   0 Au   19.0000*   0   196.966   16.007338   17.644656   18.938355
   1 Au   19.0000*   0   196.966   14.462667   12.617048   19.213067
   2 Au   19.0000*   0   196.966   19.107348   14.093839   16.707936
   3 Au   19.0000*   0   196.966   17.789843   13.727480   11.535063
   4 Au   19.0000*   0   196.966   11.643177    9.405151   16.242205
   5 Au   19.0000*   0   196.966   14.513164   13.797873    7.527351
   6 Au   19.0000*   0   196.966   13.972650   17.949034   10.700052
   7 Au   19.0000*   0   196.966   16.732752    9.837673   15.044067
   8 Au   19.0000*   0   196.966   13.124320   10.327414   11.260200
   9 Au   19.0000*   0   196.966    9.943662   14.341359   10.052544
  10 Au   19.0000*   0   196.966   13.465006   20.471097   15.381040
  11 Au   19.0000*   0   196.966    8.471669   13.215336   14.963835
  12 Au   19.0000*   0   196.966    9.273477   18.212592   13.463446
  13 Au   19.0000*   0   196.966   10.903978   16.482494   18.291830
  14 Au   19.0000*   0   196.966   18.054939   18.411888   13.956942
  15 Fe   26.0000    0    55.850   13.575989   14.372281   14.463868
* core charge reduced due to ECP

--------------------------------
INTERNAL COORDINATES (ANGSTROEM)
--------------------------------
 Au     0   0   0     0.000000000000     0.00000000     0.00000000
 Au     1   0   0     2.787027130834     0.00000000     0.00000000
 Au     1   2   0     2.759502323347    63.04136024     0.00000000
 Au     3   1   2     2.831402195599   108.28563083    93.73197217
 Au     2   1   3     2.754356901905   135.90329552   271.54422393
 Au     4   3   1     2.739653524095   154.59700558   326.03516260
 Au     6   4   3     2.779582258493    66.93947433    49.00892248
 Au     3   1   2     2.725242620071   115.26649137    27.68136985
 Au     8   3   1     2.778975509933   118.19965532    62.70397700
 Au     6   4   3     2.777667660973   100.36815778   355.04804695
 Au     1   2   3     2.755114082013   114.24589338   102.90707241
 Au     5   2   1     2.709170355354    91.07938256   322.95397704
 Au    11   1   2     2.716227174352   114.52804477    12.28404645
 Au    12   5   2     2.783391611420    91.02131844   354.62480585
 Au     3   1   2     2.765986769609    62.79981798   133.90761077
 Fe    14  12   5     2.711016408031    60.82796757    60.16065586

---------------------------
INTERNAL COORDINATES (A.U.)
---------------------------
 Au     0   0   0     0.000000000000     0.00000000     0.00000000
 Au     1   0   0     5.266718005084     0.00000000     0.00000000
 Au     1   2   0     5.214703657046    63.04136024     0.00000000
 Au     3   1   2     5.350574724665   108.28563083    93.73197217
 Au     2   1   3     5.204980219676   135.90329552   271.54422393
 Au     4   3   1     5.177194862372   154.59700558   326.03516260
 Au     6   4   3     5.252649235258    66.93947433    49.00892248
 Au     3   1   2     5.149962200424   115.26649137    27.68136985
 Au     8   3   1     5.251502646647   118.19965532    62.70397700
 Au     6   4   3     5.249031170289   100.36815778   355.04804695
 Au     1   2   3     5.206411082714   114.24589338   102.90707241
 Au     5   2   1     5.119590021757    91.07938256   322.95397704
 Au    11   1   2     5.132925477040   114.52804477    12.28404645
 Au    12   5   2     5.259847869038    91.02131844   354.62480585
 Au     3   1   2     5.226957484610    62.79981798   133.90761077
 Fe    14  12   5     5.123078555745    60.82796757    60.16065586

---------------------
BASIS SET INFORMATION
---------------------
There are 2 groups of distinct atoms

 Group   1 Type Au  : 8s7p6d1f contracted to 6s4p3d1f pattern {311111/4111/411/1}
 Group   2 Type Fe  : 17s11p7d1f contracted to 6s4p4d1f pattern {842111/6311/4111/1}

Atom   0Au   basis set group =>   1
Atom   1Au   basis set group =>   1
Atom   2Au   basis set group =>   1
Atom   3Au   basis set group =>   1
Atom   4Au   basis set group =>   1
Atom   5Au   basis set group =>   1
Atom   6Au   basis set group =>   1
Atom   7Au   basis set group =>   1
Atom   8Au   basis set group =>   1
Atom   9Au   basis set group =>   1
Atom  10Au   basis set group =>   1
Atom  11Au   basis set group =>   1
Atom  12Au   basis set group =>   1
Atom  13Au   basis set group =>   1
Atom  14Au   basis set group =>   1
Atom  15Fe   basis set group =>   2
---------------------------------
AUXILIARY/J BASIS SET INFORMATION
---------------------------------
There are 2 groups of distinct atoms

 Group   1 Type Au  : 11s5p5d3f3g contracted to 8s5p5d2f3g pattern {41111111/11111/11111/21/111}
 Group   2 Type Fe  : 19s5p5d3f3g contracted to 8s5p5d2f3g pattern {121111111/11111/11111/21/111}

Atom   0Au   basis set group =>   1
Atom   1Au   basis set group =>   1
Atom   2Au   basis set group =>   1
Atom   3Au   basis set group =>   1
Atom   4Au   basis set group =>   1
Atom   5Au   basis set group =>   1
Atom   6Au   basis set group =>   1
Atom   7Au   basis set group =>   1
Atom   8Au   basis set group =>   1
Atom   9Au   basis set group =>   1
Atom  10Au   basis set group =>   1
Atom  11Au   basis set group =>   1
Atom  12Au   basis set group =>   1
Atom  13Au   basis set group =>   1
Atom  14Au   basis set group =>   1
Atom  15Fe   basis set group =>   2
-------------------------
ECP PARAMETER INFORMATION
-------------------------

 Group 1, Type Au ECP Def2-ECP (replacing 60 core electrons, lmax=3)

Atom   0Au   ECP group =>   1
Atom   1Au   ECP group =>   1
Atom   2Au   ECP group =>   1
Atom   3Au   ECP group =>   1
Atom   4Au   ECP group =>   1
Atom   5Au   ECP group =>   1
Atom   6Au   ECP group =>   1
Atom   7Au   ECP group =>   1
Atom   8Au   ECP group =>   1
Atom   9Au   ECP group =>   1
Atom  10Au   ECP group =>   1
Atom  11Au   ECP group =>   1
Atom  12Au   ECP group =>   1
Atom  13Au   ECP group =>   1
Atom  14Au   ECP group =>   1


Checking for AutoStart:
The File: pbeSP.gbw exists
Trying to determine its content:
     ... Fine, the file contains calculation information
     ... Fine, the calculation information was read
     ... Fine, the file contains a basis set
     ... Fine, the basis set was read
     ... Fine, the file contains ECP parameters
     ... Fine, ECP parameters were read
     ... Fine, the file contains a geometry
     ... Fine, the geometry was read
     ... The file does not contain orbitals - skipping AutoStart


           ************************************************************
           *        Program running with 6 parallel MPI-processes     *
           *              working on a common directory               *
           ************************************************************
------------------------------------------------------------------------------
                           ORCA GTO INTEGRAL CALCULATION
                           -- RI-GTO INTEGRALS CHOSEN --
------------------------------------------------------------------------------
------------------------------------------------------------------------------
                   ___                                                        
                  /   \      - P O W E R E D   B Y -                         
                 /     \                                                     
                 |  |  |   _    _      __       _____    __    __             
                 |  |  |  | |  | |    /  \     |  _  \  |  |  /  |          
                  \  \/   | |  | |   /    \    | | | |  |  | /  /          
                 / \  \   | |__| |  /  /\  \   | |_| |  |  |/  /          
                |  |  |   |  __  | /  /__\  \  |    /   |      \           
                |  |  |   | |  | | |   __   |  |    \   |  |\   \          
                \     /   | |  | | |  |  |  |  | |\  \  |  | \   \       
                 \___/    |_|  |_| |__|  |__|  |_| \__\ |__|  \__/        
                                                                              
                      - O R C A' S   B I G   F R I E N D -                    
                                      &                                       
                       - I N T E G R A L  F E E D E R -                       
                                                                              
 v1 FN, 2020, v2 2021                                                         
------------------------------------------------------------------------------


Reading SHARK input file pbeSP.SHARKINP.tmp ... ok
----------------------
SHARK INTEGRAL PACKAGE
----------------------

Number of atoms                             ...     16
Number of basis functions                   ...    645
Number of shells                            ...    225
Maximum angular momentum                    ...      3
Integral batch strategy                     ... SHARK/LIBINT Hybrid
RI-J (if used) integral strategy            ... SPLIT-RIJ (Revised 2003 algorithm where possible)
Printlevel                                  ...      1
Contraction scheme used                     ... SEGMENTED contraction
Coulomb Range Separation                    ... NOT USED
Exchange Range Separation                   ... NOT USED
Finite Nucleus Model                        ... NOT USED
Auxiliary Coulomb fitting basis             ... AVAILABLE
   # of basis functions in Aux-J            ...   1424
   # of shells in Aux-J                     ...    368
   Maximum angular momentum in Aux-J        ...      4
Auxiliary J/K fitting basis                 ... NOT available
Auxiliary Correlation fitting basis         ... NOT available
Auxiliary 'external' fitting basis          ... NOT available
Integral threshold                          ...     1.000000e-10
Primitive cut-off                           ...     1.000000e-11
Primitive pair pre-selection threshold      ...     1.000000e-11

Calculating pre-screening integrals         ... done (  0.1 sec) Dimension = 225
Organizing shell pair data                  ... done (  0.3 sec)
Shell pair information
Total number of shell pairs                 ...     25425
Shell pairs after pre-screening             ...     20216
Total number of primitive shell pairs       ...     67445
Primitive shell pairs kept                  ...     38581
          la=0 lb=0:   3178 shell pairs
          la=1 lb=0:   4605 shell pairs
          la=1 lb=1:   1736 shell pairs
          la=2 lb=0:   4002 shell pairs
          la=2 lb=1:   2837 shell pairs
          la=2 lb=2:   1174 shell pairs
          la=3 lb=0:   1037 shell pairs
          la=3 lb=1:    822 shell pairs
          la=3 lb=2:    714 shell pairs
          la=3 lb=3:    111 shell pairs

Calculating one electron integrals          ... done (  0.0 sec)
Calculating ECP integrals                   ... done ( 10.1 sec)
Calculating RI/J V-Matrix + Cholesky decomp.... done (  0.1 sec)
Calculating Nuclear repulsion               ... done (  0.0 sec) ENN=   6460.958704784416 Eh

SHARK setup successfully completed in  10.9 seconds

Maximum memory used throughout the entire GTOINT-calculation: 37.9 MB


           ************************************************************
           *        Program running with 6 parallel MPI-processes     *
           *              working on a common directory               *
           ************************************************************
-------------------------------------------------------------------------------
                                 ORCA SCF
-------------------------------------------------------------------------------

------------
SCF SETTINGS
------------
Hamiltonian:
 Density Functional     Method          .... DFT(GTOs)
 Exchange Functional    Exchange        .... PBE
   PBE kappa parameter   XKappa         ....  0.804000
   PBE mue parameter    XMuePBE         ....  0.219520
 Correlation Functional Correlation     .... PBE
   PBE beta parameter  CBetaPBE         ....  0.066725
 LDA part of GGA corr.  LDAOpt          .... PW91-LDA
 Gradients option       PostSCFGGA      .... off
   Density functional embedding theory  .... OFF
   NL short-range parameter             ....  6.400000
 RI-approximation to the Coulomb term is turned on
   Number of AuxJ basis functions       .... 1424


General Settings:
 Integral files         IntName         .... pbeSP
 Hartree-Fock type      HFTyp           .... UHF
 Total Charge           Charge          ....    0
 Multiplicity           Mult            ....    6
 Number of Electrons    NEL             ....  311
 Basis Dimension        Dim             ....  645
 Nuclear Repulsion      ENuc            ....   6460.9587047844 Eh

Convergence Acceleration:
 DIIS                   CNVDIIS         .... on
   Start iteration      DIISMaxIt       ....     0
   Startup error        DIISStart       ....  0.200000
   # of expansion vecs  DIISMaxEq       ....     5
   Bias factor          DIISBfac        ....   1.050
   Max. coefficient     DIISMaxC        ....  10.000
 Trust-Rad. Augm. Hess. CNVTRAH         .... auto
   Auto Start mean grad. ratio tolernc. ....  1.125000
   Auto Start start iteration           ....   200
   Auto Start num. interpolation iter.  ....    10
   Max. Number of Micro iterations      ....    16
   Max. Number of Macro iterations      .... Maxiter - #DIIS iter
   Number of Davidson start vectors     ....     2
   Converg. threshold I  (grad. norm)   ....   5.000e-05
   Converg. threshold II (energy diff.) ....   1.000e-06
   Grad. Scal. Fac. for Micro threshold ....   0.100
   Minimum threshold for Micro iter.    ....   0.010
   NR start threshold (gradient norm)   ....   0.001
   Initial trust radius                 ....   0.400
   Minimum AH scaling param. (alpha)    ....   1.000
   Maximum AH scaling param. (alpha)    .... 1000.000
   Orbital update algorithm             .... Taylor
   White noise on init. David. guess    .... on
   Maximum white noise                  ....   0.010
   Quad. conv. algorithm                .... NR
 SOSCF                  CNVSOSCF        .... off
 Level Shifting         CNVShift        .... on
   Level shift para.    LevelShift      ....    0.2500
   Turn off err/grad.   ShiftErr        ....    0.0000
 Zerner damping         CNVZerner       .... off
 Static damping         CNVDamp         .... on
   Fraction old density DampFac         ....    0.9200
   Max. Damping (<1)    DampMax         ....    0.9800
   Min. Damping (>=0)   DampMin         ....    0.0000
   Turn off err/grad.   DampErr         ....    0.0030
 Fernandez-Rico         CNVRico         .... off

SCF Procedure:
 Maximum # iterations   MaxIter         ....   400
 SCF integral mode      SCFMode         .... Direct
   Integral package                     .... SHARK and LIBINT hybrid scheme
 Reset frequency        DirectResetFreq ....    20
 Integral Threshold     Thresh          ....  1.000e-10 Eh
 Primitive CutOff       TCut            ....  1.000e-11 Eh

Convergence Tolerance:
 Convergence Check Mode ConvCheckMode   .... Total+1el-Energy
 Convergence forced     ConvForced      .... 0
 Energy Change          TolE            ....  1.000e-06 Eh
 1-El. energy change                    ....  1.000e-03 Eh
 DIIS Error             TolErr          ....  1.000e-06


Diagonalization of the overlap matrix:
Smallest eigenvalue                        ... 4.356e-04
Time for diagonalization                   ...    0.084 sec
Threshold for overlap eigenvalues          ... 1.000e-08
Number of eigenvalues below threshold      ... 0
Time for construction of square roots      ...    0.038 sec
Total time needed                          ...    0.124 sec

Time for model grid setup =    0.428 sec

------------------------------
INITIAL GUESS: MODEL POTENTIAL
------------------------------
Loading Hartree-Fock densities                     ... done
  calling /media/Programs/ORCA501/orca pbeSP_atom79.inp > pbeSP_atom79.out in order to generate an atomic fitting density for atom 0 (Au with ECP) on-the-fly... 
    atom 0 (Au), assumed electronic state with S=2: 1s2 2s2 2p6 3s2 3p6 4s2 3d10 4p6 5s2 4d10 5p6 6s1 4f14 5d10           ... done
Calculating cut-offs                               ... done
Initializing the effective Hamiltonian             ... done
Setting up the integral package (SHARK)            ... done
Starting the Coulomb interaction                   ... done (   0.4 sec)
Reading the grid                                   ... done
Mapping shells                                     ... done
Starting the XC term evaluation                    ... done (   0.5 sec)
  promolecular density results
     # of electrons  =   1211.014906641
     EX              =  -5541.483750759
     EC              =    -73.849916969
     EX+EC           =  -5615.333667727
Transforming the Hamiltonian                       ... done (   0.0 sec)
Diagonalizing the Hamiltonian                      ... done (   0.1 sec)
Back transforming the eigenvectors                 ... done (   0.0 sec)
Now organizing SCF variables                       ... done
                      ------------------
                      INITIAL GUESS DONE (   1.9 sec)
                      ------------------
-------------------
DFT GRID GENERATION
-------------------

General Integration Accuracy     IntAcc      ... 4.388
Radial Grid Type                 RadialGrid  ... OptM3 with GC (2021)
Angular Grid (max. ang.)         AngularGrid ... 4 (Lebedev-302)
Angular grid pruning method      GridPruning ... 4 (adaptive)
Weight generation scheme         WeightScheme... Becke
Basis function cutoff            BFCut       ... 1.0000e-10
Integration weight cutoff        WCut        ... 1.0000e-14
Angular grids for H and He will be reduced by one unit
Partially contracted basis set               ... off
Rotationally invariant grid construction     ... off

Total number of grid points                  ...   176151
Total number of batches                      ...     2758
Average number of points per batch           ...       63
Average number of grid points per atom       ...    11009
Time for grid setup =    1.372 sec

--------------
SCF ITERATIONS
--------------
ITER       Energy         Delta-E        Max-DP      RMS-DP      [F,P]     Damp
               ***  Starting incremental Fock matrix formation  ***
  0  -3297.2810509459   0.000000000000 0.09883841  0.00066480  0.5650478 0.9200
  1  -3298.6639938443  -1.382942898350 0.08565737  0.00061566  0.3608234 0.9200
                               ***Turning on DIIS***
  2  -3299.4183421495  -0.754348305215 0.07567794  0.00052197  0.2414601 0.9200
  3  -3299.7496879345  -0.331345785061 0.06312225  0.00044066  0.2213255 0.9200
  4  -3299.8448454427  -0.095157508137 0.06055742  0.00042857  0.2029947 0.9200
  5  -3299.8232711929   0.021574249751 0.05929055  0.00035962  0.1861682 0.9200
  6  -3299.8466480117  -0.023376818779 0.04048153  0.00028308  0.1706813 0.9200
  7  -3299.9733655398  -0.126717528089 0.03629492  0.00024530  0.1564976 0.9200
  8  -3300.0615453195  -0.088179779753 0.03473502  0.00021922  0.1439022 0.9200
  9  -3300.1141892290  -0.052643909437 0.03738354  0.00021457  0.1323790 0.9200
 10  -3300.1698683596  -0.055679130593 0.04148582  0.00021581  0.1216233 0.9200
 11  -3300.2134885130  -0.043620153403 0.01859743  0.00017583  0.1117887 0.9200
 12  -3300.2493911537  -0.035902640689 0.01948702  0.00016028  0.1028363 0.9200
 13  -3300.3012466483  -0.051855494670 0.02556272  0.00016699  0.0944712 0.9200
 14  -3300.3486124033  -0.047365754988 0.02782499  0.00015630  0.0867407 0.9200
 15  -3300.3860401323  -0.037427728989 0.02680648  0.00015106  0.0797397 0.9200
 16  -3300.4250120405  -0.038971908168 0.02456368  0.00014977  0.0732765 0.9200
 17  -3300.4619871243  -0.036975083779 0.02583020  0.00014318  0.0673569 0.9200
 18  -3300.4945236108  -0.032536486496 0.02747810  0.00013387  0.0619948 0.9200
 19  -3300.5260124308  -0.031488820076 0.02791156  0.00012673  0.0569944 0.9200
               *** Restarting incremental Fock matrix formation ***
                                   *** Resetting DIIS ***
 20  -3300.5548960900  -0.028883659171 0.02635337  0.00011791  0.0523335 0.9200
 21  -3300.5818746153  -0.026978525260 0.02461616  0.00011262  0.0480346 0.9200
 22  -3300.6076736560  -0.025799040759 0.02332585  0.00010718  0.0441191 0.9200
 23  -3300.6315598990  -0.023886243031 0.02228274  0.00010023  0.0405651 0.9200
 24  -3300.6534662757  -0.021906376641 0.02106999  0.00009391  0.0373050 0.9200
 25  -3300.6736849261  -0.020218650423 0.01974998  0.00008804  0.0343105 0.9200
 26  -3300.6925670689  -0.018882142809 0.01837996  0.00008328  0.0315480 0.9200
 27  -3300.7102262726  -0.017659203675 0.01716735  0.00007787  0.0290104 0.9200
 28  -3300.7264818759  -0.016255603264 0.01602104  0.00007194  0.0266816 0.9200
 29  -3300.7414132936  -0.014931417697 0.01487863  0.00006660  0.0245362 0.9200
 30  -3300.7552305785  -0.013817284947 0.01374850  0.00006220  0.0225645 0.9200
 31  -3300.7681424686  -0.012911890095 0.01271983  0.00005830  0.0207530 0.9200
 32  -3300.7800821004  -0.011939631806 0.01181169  0.00005379  0.0190871 0.9200
 33  -3300.7910681183  -0.010986017860 0.01094440  0.00004945  0.0175523 0.9200
 34  -3300.8011697499  -0.010101631603 0.01008983  0.00004572  0.0161390 0.9200
 35  -3300.8105515167  -0.009381766817 0.00928511  0.00004278  0.0148432 0.9200
 36  -3300.8192567009  -0.008705184233 0.00859409  0.00003970  0.0136525 0.9200
 37  -3300.8272727805  -0.008016079538 0.00795967  0.00003645  0.0125568 0.9200
 38  -3300.8346520807  -0.007379300292 0.00734949  0.00003350  0.0115461 0.9200
 39  -3300.8414497609  -0.006797680177 0.00676021  0.00003080  0.0106169 0.9200
               *** Restarting incremental Fock matrix formation ***
                                   *** Resetting DIIS ***
 40  -3300.8477535964  -0.006303835485 0.00614753  0.00002836  0.0097646 0.9200
 41  -3300.8535778891  -0.005824292663 0.00564842  0.00002607  0.0089693 0.9200
 42  -3300.8589410006  -0.005363111551 0.00523178  0.00002399  0.0082400 0.9200
 43  -3300.8638777510  -0.004936750364 0.00484413  0.00002227  0.0075729 0.9200
 44  -3300.8684294487  -0.004551697699 0.00447791  0.00002078  0.0069643 0.9200
 45  -3300.8726302412  -0.004200792507 0.00413269  0.00001939  0.0064066 0.9200
 46  -3300.8765023360  -0.003872094804 0.00382631  0.00001791  0.0058927 0.9200
 47  -3300.8800675910  -0.003565254997 0.00354198  0.00001649  0.0054188 0.9200
 48  -3300.8833492522  -0.003281661242 0.00325863  0.00001523  0.0049824 0.9200
 49  -3300.8863774099  -0.003028157689 0.00299691  0.00001418  0.0045823 0.9200
 50  -3300.8891695838  -0.002792173862 0.00276798  0.00001313  0.0042149 0.9200
 51  -3300.8917402656  -0.002570681818 0.00259770  0.00001208  0.0038769 0.9200
 52  -3300.8941067801  -0.002366514526 0.00237522  0.00001110  0.0035651 0.9200
 53  -3300.8962862436  -0.002179463449 0.00216470  0.00001027  0.0032783 0.9200
 54  -3300.8982961252  -0.002009881665 0.00199153  0.00000957  0.0030151 0.9200
 55  -3300.9001470220  -0.001850896778 0.02373909  0.00011024  0.0027734 0.0000
 56  -3300.9215606850  -0.021413662936 0.00203747  0.00000534  0.0002783 0.0000
 57  -3300.9215614550  -0.000000770021 0.00031187  0.00000189  0.0003614 0.0000
 58  -3300.9215630750  -0.000001620040 0.00014960  0.00000125  0.0002835 0.0000
 59  -3300.9215634260  -0.000000350958 0.00349110  0.00000518  0.0000987 0.0000
               *** Restarting incremental Fock matrix formation ***
                                   *** Resetting DIIS ***
 60  -3300.9215606664   0.000002759545 0.00179359  0.00000289  0.0000604 0.0000
 61  -3300.9215601125   0.000000553934 0.00035343  0.00000097  0.0002337 0.0000
 62  -3300.9215609459  -0.000000833375 0.00015591  0.00000072  0.0000922 0.0000
 63  -3300.9215613454  -0.000000399530 0.00021159  0.00000077  0.0000481 0.0000
                 **** Energy Check signals convergence ****

               *****************************************************
               *                     SUCCESS                       *
               *           SCF CONVERGED AFTER  64 CYCLES          *
               *****************************************************


----------------
TOTAL SCF ENERGY
----------------

Total Energy       :        -3300.92156161 Eh          -89822.64219 eV

Components:
Nuclear Repulsion  :         6460.95870478 Eh          175811.62445 eV
Electronic Energy  :        -9761.88026639 Eh         -265634.26663 eV
One Electron Energy:       -18233.52290837 Eh         -496159.38259 eV
Two Electron Energy:         8471.64264197 Eh          230525.11596 eV

Virial components:
Potential Energy   :        -5249.23798885 Eh         -142839.02747 eV
Kinetic Energy     :         1948.31642725 Eh           53016.38529 eV
Virial Ratio       :            2.69424305


DFT components:
N(Alpha)           :      157.999964482701 electrons
N(Beta)            :      152.999957703110 electrons
N(Total)           :      310.999922185811 electrons
E(X)               :     -235.078534052357 Eh       
E(C)               :      -13.621426195341 Eh       
E(XC)              :     -248.699960247699 Eh       
DFET-embed. en.    :        0.000000000000 Eh       

---------------
SCF CONVERGENCE
---------------

  Last Energy change         ...   -2.6178e-07  Tolerance :   1.0000e-06
  Last MAX-Density change    ...    1.4625e-04  Tolerance :   1.0000e-05
  Last RMS-Density change    ...    6.9490e-07  Tolerance :   1.0000e-06
  Last DIIS Error            ...    2.1431e-05  Tolerance :   1.0000e-06

             **** THE GBW FILE WAS UPDATED (pbeSP.gbw) ****
             **** DENSITY pbeSP.scfp WAS UPDATED ****
             **** ENERGY FILE WAS UPDATED (pbeSP.en.tmp) ****
----------------------
UHF SPIN CONTAMINATION
----------------------

Warning: in a DFT calculation there is little theoretical justification to 
         calculate <S**2> as in Hartree-Fock theory. We will do it anyways
         but you should keep in mind that the values have only limited relevance

Expectation value of <S**2>     :     8.767429
Ideal value S*(S+1) for S=2.5   :     8.750000
Deviation                       :     0.017429

             **** THE GBW FILE WAS UPDATED (pbeSP.gbw) ****
             **** DENSITY pbeSP.scfp WAS UPDATED ****
----------------
ORBITAL ENERGIES
----------------
                 SPIN UP ORBITALS
  NO   OCC          E(Eh)            E(eV) 
   0   1.0000    -254.789583     -6933.1770 
   1   1.0000     -29.629670      -806.2643 
   2   1.0000     -25.565710      -695.6783 
   3   1.0000     -25.564799      -695.6536 
   4   1.0000     -25.562453      -695.5897 
   5   1.0000      -4.039055      -109.9083 
   6   1.0000      -4.037914      -109.8772 
   7   1.0000      -4.035222      -109.8040 
   8   1.0000      -4.032889      -109.7405 
   9   1.0000      -4.032642      -109.7338 
  10   1.0000      -4.030877      -109.6857 
  11   1.0000      -4.030306      -109.6702 
  12   1.0000      -4.030148      -109.6659 
  13   1.0000      -4.028829      -109.6300 
  14   1.0000      -4.028491      -109.6208 
  15   1.0000      -4.027075      -109.5823 
  16   1.0000      -4.026777      -109.5742 
  17   1.0000      -4.026355      -109.5627 
  18   1.0000      -4.026311      -109.5615 
  19   1.0000      -4.024598      -109.5149 
  20   1.0000      -3.410624       -92.8078 
  21   1.0000      -2.253798       -61.3290 
  22   1.0000      -2.253156       -61.3115 
  23   1.0000      -2.252301       -61.2882 
  24   1.0000      -2.251178       -61.2577 
  25   1.0000      -2.251040       -61.2539 
  26   1.0000      -2.249835       -61.2211 
  27   1.0000      -2.249194       -61.2037 
  28   1.0000      -2.248479       -61.1842 
  29   1.0000      -2.248251       -61.1780 
  30   1.0000      -2.247531       -61.1584 
  31   1.0000      -2.247220       -61.1500 
  32   1.0000      -2.247166       -61.1485 
  33   1.0000      -2.246511       -61.1307 
  34   1.0000      -2.246470       -61.1296 
  35   1.0000      -2.245076       -61.0916 
  36   1.0000      -2.244823       -61.0848 
  37   1.0000      -2.244686       -61.0810 
  38   1.0000      -2.244133       -61.0660 
  39   1.0000      -2.243984       -61.0619 
  40   1.0000      -2.243554       -61.0502 
  41   1.0000      -2.243350       -61.0447 
  42   1.0000      -2.242866       -61.0315 
  43   1.0000      -2.242446       -61.0201 
  44   1.0000      -2.242185       -61.0129 
  45   1.0000      -2.241880       -61.0046 
  46   1.0000      -2.241539       -60.9954 
  47   1.0000      -2.241469       -60.9935 
  48   1.0000      -2.240714       -60.9729 
  49   1.0000      -2.240431       -60.9652 
  50   1.0000      -2.240254       -60.9604 
  51   1.0000      -2.240062       -60.9552 
  52   1.0000      -2.239823       -60.9487 
  53   1.0000      -2.239661       -60.9443 
  54   1.0000      -2.239268       -60.9336 
  55   1.0000      -2.239051       -60.9277 
  56   1.0000      -2.239026       -60.9270 
  57   1.0000      -2.238569       -60.9146 
  58   1.0000      -2.238501       -60.9127 
  59   1.0000      -2.238223       -60.9052 
  60   1.0000      -2.237905       -60.8965 
  61   1.0000      -2.237470       -60.8847 
  62   1.0000      -2.237438       -60.8838 
  63   1.0000      -2.236971       -60.8711 
  64   1.0000      -2.236626       -60.8617 
  65   1.0000      -2.236623       -60.8616 
  66   1.0000      -2.226576       -60.5882 
  67   1.0000      -2.224835       -60.5408 
  68   1.0000      -2.219801       -60.4039 
  69   1.0000      -0.441738       -12.0203 
  70   1.0000      -0.395451       -10.7608 
  71   1.0000      -0.393717       -10.7136 
  72   1.0000      -0.391007       -10.6398 
  73   1.0000      -0.384068       -10.4510 
  74   1.0000      -0.382731       -10.4146 
  75   1.0000      -0.377600       -10.2750 
  76   1.0000      -0.375794       -10.2259 
  77   1.0000      -0.373695       -10.1688 
  78   1.0000      -0.370181       -10.0731 
  79   1.0000      -0.363348        -9.8872 
  80   1.0000      -0.362169        -9.8551 
  81   1.0000      -0.358892        -9.7660 
  82   1.0000      -0.358581        -9.7575 
  83   1.0000      -0.357763        -9.7352 
  84   1.0000      -0.356323        -9.6960 
  85   1.0000      -0.354530        -9.6473 
  86   1.0000      -0.353767        -9.6265 
  87   1.0000      -0.352774        -9.5995 
  88   1.0000      -0.349823        -9.5192 
  89   1.0000      -0.348318        -9.4782 
  90   1.0000      -0.345164        -9.3924 
  91   1.0000      -0.344737        -9.3808 
  92   1.0000      -0.342645        -9.3238 
  93   1.0000      -0.341356        -9.2888 
  94   1.0000      -0.337724        -9.1899 
  95   1.0000      -0.336481        -9.1561 
  96   1.0000      -0.334867        -9.1122 
  97   1.0000      -0.333854        -9.0846 
  98   1.0000      -0.331185        -9.0120 
  99   1.0000      -0.330654        -8.9975 
 100   1.0000      -0.325572        -8.8593 
 101   1.0000      -0.322878        -8.7859 
 102   1.0000      -0.321247        -8.7416 
 103   1.0000      -0.319657        -8.6983 
 104   1.0000      -0.317808        -8.6480 
 105   1.0000      -0.315400        -8.5825 
 106   1.0000      -0.312848        -8.5130 
 107   1.0000      -0.307327        -8.3628 
 108   1.0000      -0.305690        -8.3182 
 109   1.0000      -0.304443        -8.2843 
 110   1.0000      -0.301431        -8.2024 
 111   1.0000      -0.297330        -8.0908 
 112   1.0000      -0.295313        -8.0359 
 113   1.0000      -0.290812        -7.9134 
 114   1.0000      -0.288621        -7.8538 
 115   1.0000      -0.286769        -7.8034 
 116   1.0000      -0.282496        -7.6871 
 117   1.0000      -0.281973        -7.6729 
 118   1.0000      -0.281375        -7.6566 
 119   1.0000      -0.279356        -7.6017 
 120   1.0000      -0.278394        -7.5755 
 121   1.0000      -0.276356        -7.5200 
 122   1.0000      -0.275508        -7.4970 
 123   1.0000      -0.274808        -7.4779 
 124   1.0000      -0.274184        -7.4609 
 125   1.0000      -0.273775        -7.4498 
 126   1.0000      -0.272873        -7.4252 
 127   1.0000      -0.271682        -7.3928 
 128   1.0000      -0.270088        -7.3495 
 129   1.0000      -0.267741        -7.2856 
 130   1.0000      -0.267410        -7.2766 
 131   1.0000      -0.266034        -7.2392 
 132   1.0000      -0.264681        -7.2023 
 133   1.0000      -0.263897        -7.1810 
 134   1.0000      -0.263648        -7.1742 
 135   1.0000      -0.262054        -7.1308 
 136   1.0000      -0.260945        -7.1007 
 137   1.0000      -0.260154        -7.0791 
 138   1.0000      -0.258717        -7.0400 
 139   1.0000      -0.257114        -6.9964 
 140   1.0000      -0.255612        -6.9556 
 141   1.0000      -0.254765        -6.9325 
 142   1.0000      -0.254113        -6.9148 
 143   1.0000      -0.252127        -6.8607 
 144   1.0000      -0.250996        -6.8299 
 145   1.0000      -0.250870        -6.8265 
 146   1.0000      -0.249278        -6.7832 
 147   1.0000      -0.249014        -6.7760 
 148   1.0000      -0.245809        -6.6888 
 149   1.0000      -0.242486        -6.5984 
 150   1.0000      -0.241891        -6.5822 
 151   1.0000      -0.238170        -6.4809 
 152   1.0000      -0.233404        -6.3512 
 153   1.0000      -0.220446        -5.9986 
 154   1.0000      -0.215085        -5.8527 
 155   1.0000      -0.207877        -5.6566 
 156   1.0000      -0.201373        -5.4796 
 157   1.0000      -0.199760        -5.4357 
 158   0.0000      -0.158029        -4.3002 
 159   0.0000      -0.131178        -3.5695 
 160   0.0000      -0.128699        -3.5021 
 161   0.0000      -0.126774        -3.4497 
 162   0.0000      -0.125350        -3.4109 
 163   0.0000      -0.118785        -3.2323 
 164   0.0000      -0.117834        -3.2064 
 165   0.0000      -0.083536        -2.2731 
 166   0.0000      -0.082217        -2.2373 
 167   0.0000      -0.078540        -2.1372 
 168   0.0000      -0.072008        -1.9594 
 169   0.0000      -0.042894        -1.1672 
 170   0.0000      -0.032643        -0.8883 
 171   0.0000      -0.030215        -0.8222 
 172   0.0000      -0.022215        -0.6045 
 173   0.0000      -0.020587        -0.5602 
 174   0.0000      -0.013914        -0.3786 
 175   0.0000      -0.007153        -0.1946 
 176   0.0000      -0.004731        -0.1287 
 177   0.0000      -0.002020        -0.0550 
 178   0.0000       0.005884         0.1601 
 179   0.0000       0.017594         0.4788 
 180   0.0000       0.019556         0.5321 
 181   0.0000       0.028840         0.7848 
 182   0.0000       0.031611         0.8602 
 183   0.0000       0.036766         1.0005 
 184   0.0000       0.057036         1.5520 
 185   0.0000       0.059086         1.6078 
 186   0.0000       0.062701         1.7062 
 187   0.0000       0.064787         1.7629 
 188   0.0000       0.067721         1.8428 
 189   0.0000       0.068714         1.8698 
 190   0.0000       0.069427         1.8892 
 191   0.0000       0.070564         1.9201 
 192   0.0000       0.072422         1.9707 
 193   0.0000       0.075147         2.0448 
 194   0.0000       0.077785         2.1167 
 195   0.0000       0.079442         2.1617 
 196   0.0000       0.086492         2.3536 
 197   0.0000       0.090652         2.4668 
 198   0.0000       0.097947         2.6653 
 199   0.0000       0.103562         2.8181 
 200   0.0000       0.108594         2.9550 
 201   0.0000       0.112177         3.0525 
 202   0.0000       0.116755         3.1771 
 203   0.0000       0.130865         3.5610 
 204   0.0000       0.134541         3.6610 
 205   0.0000       0.143564         3.9066 
 206   0.0000       0.146810         3.9949 
 207   0.0000       0.148537         4.0419 
 208   0.0000       0.151295         4.1169 
 209   0.0000       0.151917         4.1339 
 210   0.0000       0.153586         4.1793 
 211   0.0000       0.159101         4.3294 
 212   0.0000       0.161787         4.4025 
 213   0.0000       0.162274         4.4157 
 214   0.0000       0.165196         4.4952 
 215   0.0000       0.168415         4.5828 
 216   0.0000       0.171113         4.6562 
 217   0.0000       0.176146         4.7932 
 218   0.0000       0.184970         5.0333 
 219   0.0000       0.194784         5.3003 
 220   0.0000       0.196698         5.3524 
 221   0.0000       0.202808         5.5187 
 222   0.0000       0.205009         5.5786 
 223   0.0000       0.210266         5.7216 
 224   0.0000       0.215009         5.8507 
 225   0.0000       0.221792         6.0353 
 226   0.0000       0.228568         6.2197 
 227   0.0000       0.234027         6.3682 
 228   0.0000       0.237868         6.4727 
 229   0.0000       0.240256         6.5377 
 230   0.0000       0.247023         6.7218 
 231   0.0000       0.248678         6.7669 
 232   0.0000       0.254143         6.9156 
 233   0.0000       0.256510         6.9800 
 234   0.0000       0.260837         7.0977 
 235   0.0000       0.264221         7.1898 
 236   0.0000       0.267469         7.2782 
 237   0.0000       0.269963         7.3461 
 238   0.0000       0.272241         7.4081 
 239   0.0000       0.275394         7.4939 
 240   0.0000       0.281339         7.6556 
 241   0.0000       0.287021         7.8102 
 242   0.0000       0.291419         7.9299 
 243   0.0000       0.298187         8.1141 
 244   0.0000       0.299800         8.1580 
 245   0.0000       0.302349         8.2273 
 246   0.0000       0.305066         8.3013 
 247   0.0000       0.311653         8.4805 
 248   0.0000       0.318560         8.6685 
 249   0.0000       0.323836         8.8120 
 250   0.0000       0.325159         8.8480 
 251   0.0000       0.329775         8.9736 
 252   0.0000       0.334488         9.1019 
 253   0.0000       0.337913         9.1951 
 254   0.0000       0.341298         9.2872 
 255   0.0000       0.346487         9.4284 
 256   0.0000       0.348737         9.4896 
 257   0.0000       0.359490         9.7822 
 258   0.0000       0.369089        10.0434 
 259   0.0000       0.375334        10.2134 
 260   0.0000       0.379926        10.3383 
 261   0.0000       0.383211        10.4277 
 262   0.0000       0.389564        10.6006 
 263   0.0000       0.395352        10.7581 
 264   0.0000       0.397814        10.8251 
 265   0.0000       0.399305        10.8656 
 266   0.0000       0.401776        10.9329 
 267   0.0000       0.406811        11.0699 
 268   0.0000       0.409538        11.1441 
 269   0.0000       0.411791        11.2054 
 270   0.0000       0.417418        11.3585 
 271   0.0000       0.418108        11.3773 
 272   0.0000       0.424215        11.5435 
 273   0.0000       0.426565        11.6074 
 274   0.0000       0.435302        11.8452 
 275   0.0000       0.436274        11.8716 
 276   0.0000       0.439348        11.9553 
 277   0.0000       0.447056        12.1650 
 278   0.0000       0.450693        12.2640 
 279   0.0000       0.456006        12.4085 
 280   0.0000       0.459043        12.4912 
 281   0.0000       0.464436        12.6379 
 282   0.0000       0.470647        12.8070 
 283   0.0000       0.473272        12.8784 
 284   0.0000       0.475406        12.9365 
 285   0.0000       0.479603        13.0506 
 286   0.0000       0.484490        13.1836 
 287   0.0000       0.487630        13.2691 
 288   0.0000       0.491516        13.3748 
 289   0.0000       0.493450        13.4275 
 290   0.0000       0.496881        13.5208 
 291   0.0000       0.501439        13.6449 
 292   0.0000       0.502893        13.6844 
 293   0.0000       0.505062        13.7434 
 294   0.0000       0.507572        13.8117 
 295   0.0000       0.514561        14.0019 
 296   0.0000       0.516862        14.0645 
 297   0.0000       0.522275        14.2118 
 298   0.0000       0.522893        14.2286 
 299   0.0000       0.532852        14.4996 
 300   0.0000       0.536162        14.5897 
 301   0.0000       0.541497        14.7349 
 302   0.0000       0.548051        14.9132 
 303   0.0000       0.549472        14.9519 
 304   0.0000       0.558988        15.2108 
 305   0.0000       0.568294        15.4641 
 306   0.0000       0.576846        15.6968 
 307   0.0000       0.599491        16.3130 
 308   0.0000       0.604318        16.4443 
 309   0.0000       0.662442        18.0260 
 310   0.0000       0.675612        18.3843 
 311   0.0000       0.678734        18.4693 
 312   0.0000       0.686200        18.6725 
 313   0.0000       0.692042        18.8314 
 314   0.0000       0.694510        18.8986 
 315   0.0000       0.708510        19.2795 
 316   0.0000       0.710056        19.3216 
 317   0.0000       0.721356        19.6291 
 318   0.0000       0.726811        19.7775 
 319   0.0000       0.732030        19.9195 
 320   0.0000       0.744686        20.2639 
 321   0.0000       0.751956        20.4618 
 322   0.0000       0.753893        20.5145 
 323   0.0000       0.760784        20.7020 
 324   0.0000       0.766895        20.8683 
 325   0.0000       0.779353        21.2073 
 326   0.0000       0.787217        21.4213 
 327   0.0000       0.791467        21.5369 
 328   0.0000       0.800534        21.7836 
 329   0.0000       0.802611        21.8402 
 330   0.0000       0.807627        21.9766 
 331   0.0000       0.813579        22.1386 
 332   0.0000       0.822363        22.3776 
 333   0.0000       0.826116        22.4797 
 334   0.0000       0.832967        22.6662 
 335   0.0000       0.848122        23.0786 
 336   0.0000       0.854961        23.2647 
 337   0.0000       0.863767        23.5043 
 338   0.0000       0.874053        23.7842 
 339   0.0000       0.879562        23.9341 
 340   0.0000       0.881138        23.9770 
 341   0.0000       0.887172        24.1412 
 342   0.0000       0.892033        24.2734 
 343   0.0000       0.893653        24.3175 
 344   0.0000       0.900984        24.5170 
 345   0.0000       0.905569        24.6418 
 346   0.0000       0.915600        24.9148 
 347   0.0000       0.925643        25.1880 
 348   0.0000       0.932824        25.3834 
 349   0.0000       0.960610        26.1395 
 350   0.0000       0.966103        26.2890 
 351   0.0000       0.973276        26.4842 
 352   0.0000       0.999648        27.2018 
 353   0.0000       1.071762        29.1641 
 354   0.0000       1.113335        30.2954 
 355   0.0000       1.143442        31.1146 
 356   0.0000       1.151744        31.3405 
 357   0.0000       1.195371        32.5277 
 358   0.0000       1.204802        32.7843 
 359   0.0000       1.220533        33.2124 
 360   0.0000       1.234024        33.5795 
 361   0.0000       1.237624        33.6775 
 362   0.0000       1.248014        33.9602 
 363   0.0000       1.254557        34.1382 
 364   0.0000       1.255974        34.1768 
 365   0.0000       1.263659        34.3859 
 366   0.0000       1.272229        34.6191 
 367   0.0000       1.275631        34.7117 
 368   0.0000       1.291264        35.1371 
 369   0.0000       1.292905        35.1817 
 370   0.0000       1.299569        35.3631 
 371   0.0000       1.307821        35.5876 
 372   0.0000       1.317683        35.8560 
 373   0.0000       1.320230        35.9253 
 374   0.0000       1.325809        36.0771 
 375   0.0000       1.332343        36.2549 
 376   0.0000       1.337908        36.4063 
 377   0.0000       1.340764        36.4840 
 378   0.0000       1.348857        36.7043 
 379   0.0000       1.350325        36.7442 
 380   0.0000       1.354632        36.8614 
 381   0.0000       1.371799        37.3285 
 382   0.0000       1.375283        37.4233 
 383   0.0000       1.385503        37.7015 
 384   0.0000       1.393103        37.9083 
 385   0.0000       1.396590        38.0032 
 386   0.0000       1.399704        38.0879 
 387   0.0000       1.404072        38.2067 
 388   0.0000       1.409324        38.3497 
 389   0.0000       1.413346        38.4591 
 390   0.0000       1.415607        38.5206 
 391   0.0000       1.417821        38.5809 
 392   0.0000       1.420358        38.6499 
 393   0.0000       1.422863        38.7181 
 394   0.0000       1.427346        38.8401 
 395   0.0000       1.428879        38.8818 
 396   0.0000       1.432432        38.9784 
 397   0.0000       1.433687        39.0126 
 398   0.0000       1.435587        39.0643 
 399   0.0000       1.443044        39.2672 
 400   0.0000       1.445398        39.3313 
 401   0.0000       1.449107        39.4322 
 402   0.0000       1.450972        39.4830 
 403   0.0000       1.453204        39.5437 
 404   0.0000       1.456284        39.6275 
 405   0.0000       1.459495        39.7149 
 406   0.0000       1.461336        39.7650 
 407   0.0000       1.469380        39.9839 
 408   0.0000       1.470935        40.0262 
 409   0.0000       1.473847        40.1054 
 410   0.0000       1.474039        40.1106 
 411   0.0000       1.479348        40.2551 
 412   0.0000       1.480496        40.2863 
 413   0.0000       1.480841        40.2957 
 414   0.0000       1.482611        40.3439 
 415   0.0000       1.483888        40.3787 
 416   0.0000       1.486426        40.4477 
 417   0.0000       1.488031        40.4914 
 418   0.0000       1.491100        40.5749 
 419   0.0000       1.492431        40.6111 
 420   0.0000       1.493463        40.6392 
 421   0.0000       1.495487        40.6943 
 422   0.0000       1.497134        40.7391 
 423   0.0000       1.497929        40.7607 
 424   0.0000       1.499749        40.8102 
 425   0.0000       1.500474        40.8300 
 426   0.0000       1.501132        40.8479 
 427   0.0000       1.503525        40.9130 
 428   0.0000       1.504348        40.9354 
 429   0.0000       1.506124        40.9837 
 430   0.0000       1.506336        40.9895 
 431   0.0000       1.507886        41.0317 
 432   0.0000       1.509686        41.0806 
 433   0.0000       1.510197        41.0945 
 434   0.0000       1.511904        41.1410 
 435   0.0000       1.513145        41.1748 
 436   0.0000       1.513619        41.1877 
 437   0.0000       1.516324        41.2613 
 438   0.0000       1.517601        41.2960 
 439   0.0000       1.519748        41.3545 
 440   0.0000       1.520478        41.3743 
 441   0.0000       1.521412        41.3997 
 442   0.0000       1.521997        41.4156 
 443   0.0000       1.524083        41.4724 
 444   0.0000       1.524779        41.4913 
 445   0.0000       1.525604        41.5138 
 446   0.0000       1.528106        41.5819 
 447   0.0000       1.530252        41.6403 
 448   0.0000       1.531349        41.6701 
 449   0.0000       1.532179        41.6927 
 450   0.0000       1.536548        41.8116 
 451   0.0000       1.539255        41.8852 
 452   0.0000       1.541105        41.9356 
 453   0.0000       1.541325        41.9416 
 454   0.0000       1.546730        42.0887 
 455   0.0000       1.549880        42.1744 
 456   0.0000       1.552288        42.2399 
 457   0.0000       1.552945        42.2578 
 458   0.0000       1.555852        42.3369 
 459   0.0000       1.557936        42.3936 
 460   0.0000       1.561980        42.5036 
 461   0.0000       1.563191        42.5366 
 462   0.0000       1.564219        42.5646 
 463   0.0000       1.564988        42.5855 
 464   0.0000       1.566440        42.6250 
 465   0.0000       1.568934        42.6929 
 466   0.0000       1.569625        42.7117 
 467   0.0000       1.573777        42.8247 
 468   0.0000       1.574189        42.8359 
 469   0.0000       1.576618        42.9020 
 470   0.0000       1.578186        42.9446 
 471   0.0000       1.580558        43.0092 
 472   0.0000       1.583968        43.1020 
 473   0.0000       1.586823        43.1796 
 474   0.0000       1.588193        43.2169 
 475   0.0000       1.589594        43.2551 
 476   0.0000       1.591312        43.3018 
 477   0.0000       1.594404        43.3859 
 478   0.0000       1.598877        43.5076 
 479   0.0000       1.599140        43.5148 
 480   0.0000       1.602372        43.6028 
 481   0.0000       1.609830        43.8057 
 482   0.0000       1.611569        43.8530 
 483   0.0000       1.613452        43.9043 
 484   0.0000       1.614697        43.9381 
 485   0.0000       1.616444        43.9857 
 486   0.0000       1.620856        44.1057 
 487   0.0000       1.623076        44.1661 
 488   0.0000       1.625598        44.2348 
 489   0.0000       1.631378        44.3921 
 490   0.0000       1.632528        44.4234 
 491   0.0000       1.640329        44.6356 
 492   0.0000       1.643392        44.7190 
 493   0.0000       1.647820        44.8395 
 494   0.0000       1.649380        44.8819 
 495   0.0000       1.653055        44.9819 
 496   0.0000       1.660294        45.1789 
 497   0.0000       1.662396        45.2361 
 498   0.0000       1.666676        45.3526 
 499   0.0000       1.668160        45.3929 
 500   0.0000       1.672832        45.5201 
 501   0.0000       1.687758        45.9262 
 502   0.0000       1.697503        46.1914 
 503   0.0000       1.702601        46.3301 
 504   0.0000       1.705243        46.4020 
 505   0.0000       1.714698        46.6593 
 506   0.0000       1.727728        47.0139 
 507   0.0000       1.732484        47.1433 
 508   0.0000       1.745304        47.4921 
 509   0.0000       1.749052        47.5941 
 510   0.0000       1.753269        47.7089 
 511   0.0000       1.761956        47.9453 
 512   0.0000       1.770095        48.1667 
 513   0.0000       1.772745        48.2388 
 514   0.0000       1.780444        48.4483 
 515   0.0000       1.785626        48.5894 
 516   0.0000       1.793779        48.8112 
 517   0.0000       1.796312        48.8801 
 518   0.0000       1.803804        49.0840 
 519   0.0000       1.807208        49.1766 
 520   0.0000       1.812402        49.3180 
 521   0.0000       1.817188        49.4482 
 522   0.0000       1.821067        49.5537 
 523   0.0000       1.827032        49.7161 
 524   0.0000       1.831420        49.8355 
 525   0.0000       1.842882        50.1474 
 526   0.0000       1.846730        50.2521 
 527   0.0000       1.854110        50.4529 
 528   0.0000       1.862304        50.6759 
 529   0.0000       1.879566        51.1456 
 530   0.0000       1.889339        51.4115 
 531   0.0000       1.895554        51.5807 
 532   0.0000       1.903757        51.8039 
 533   0.0000       1.940151        52.7942 
 534   0.0000       1.958216        53.2858 
 535   0.0000       2.029153        55.2161 
 536   0.0000       2.088127        56.8208 
 537   0.0000       2.112180        57.4753 
 538   0.0000       2.141420        58.2710 
 539   0.0000       2.165640        58.9301 
 540   0.0000       2.228345        60.6363 
 541   0.0000       2.247811        61.1660 
 542   0.0000       2.278669        62.0057 
 543   0.0000       2.361709        64.2654 
 544   0.0000       2.389656        65.0259 
 545   0.0000       2.400047        65.3086 
 546   0.0000       2.430369        66.1337 
 547   0.0000       2.434245        66.2392 
 548   0.0000       2.447212        66.5920 
 549   0.0000       2.459876        66.9366 
 550   0.0000       2.493189        67.8431 
 551   0.0000       2.499666        68.0194 
 552   0.0000       2.509200        68.2788 
 553   0.0000       2.517914        68.5159 
 554   0.0000       2.531286        68.8798 
 555   0.0000       2.548626        69.3516 
 556   0.0000       2.552209        69.4491 
 557   0.0000       3.406951        92.7078 
 558   0.0000       3.612082        98.2897 
 559   0.0000       3.650628        99.3386 
 560   0.0000       3.689645       100.4004 
 561   0.0000       3.741277       101.8053 
 562   0.0000       3.768343       102.5418 
 563   0.0000       3.874555       105.4320 
 564   0.0000       3.877312       105.5070 
 565   0.0000       3.877757       105.5191 
 566   0.0000       3.880423       105.5917 
 567   0.0000       3.881731       105.6273 
 568   0.0000       3.885516       105.7303 
 569   0.0000       3.887067       105.7725 
 570   0.0000      23.985967       652.6913 
 571   0.0000      24.147715       657.0927 
 572   0.0000      24.244951       659.7387 
 573   0.0000      24.284735       660.8212 
 574   0.0000      24.427210       664.6982 
 575   0.0000      24.492704       666.4804 
 576   0.0000      24.702017       672.1761 
 577   0.0000      24.797245       674.7673 
 578   0.0000      24.958637       679.1590 
 579   0.0000      25.204259       685.8428 
 580   0.0000      25.226756       686.4549 
 581   0.0000      25.278803       687.8712 
 582   0.0000      25.407727       691.3794 
 583   0.0000      25.572176       695.8543 
 584   0.0000      25.601955       696.6646 
 585   0.0000      25.726510       700.0539 
 586   0.0000      25.756522       700.8706 
 587   0.0000      25.787547       701.7148 
 588   0.0000      25.853263       703.5031 
 589   0.0000      25.884708       704.3587 
 590   0.0000      26.053472       708.9510 
 591   0.0000      26.151985       711.6317 
 592   0.0000      26.199326       712.9199 
 593   0.0000      26.247318       714.2258 
 594   0.0000      26.300751       715.6798 
 595   0.0000      26.390138       718.1122 
 596   0.0000      26.430011       719.1972 
 597   0.0000      26.617234       724.2918 
 598   0.0000      26.654949       725.3180 
 599   0.0000      26.714524       726.9392 
 600   0.0000      26.980199       734.1685 
 601   0.0000      27.017104       735.1728 
 602   0.0000      27.212482       740.4893 
 603   0.0000      27.414313       745.9814 
 604   0.0000      27.469653       747.4873 
 605   0.0000      27.532634       749.2011 
 606   0.0000      27.648402       752.3513 
 607   0.0000      27.790032       756.2052 
 608   0.0000      28.002667       761.9913 
 609   0.0000      28.364973       771.8502 
 610   0.0000      28.628338       779.0167 
 611   0.0000      28.914642       786.8074 
 612   0.0000      29.355604       798.8066 
 613   0.0000      30.100949       819.0885 
 614   0.0000      31.252510       850.4240 
 615   0.0000      43.906014      1194.7434 
 616   0.0000      44.042346      1198.4532 
 617   0.0000      44.048137      1198.6107 
 618   0.0000      44.060081      1198.9358 
 619   0.0000      44.137373      1201.0390 
 620   0.0000      44.140698      1201.1294 
 621   0.0000      44.143741      1201.2123 
 622   0.0000      44.153613      1201.4809 
 623   0.0000      44.163872      1201.7601 
 624   0.0000      44.166038      1201.8190 
 625   0.0000      44.168026      1201.8731 
 626   0.0000      44.201986      1202.7972 
 627   0.0000      44.220257      1203.2944 
 628   0.0000      44.222218      1203.3477 
 629   0.0000      44.250946      1204.1295 
 630   0.0000     205.087968      5580.7273 
 631   0.0000     205.144297      5582.2601 
 632   0.0000     205.146591      5582.3225 
 633   0.0000     205.152014      5582.4701 
 634   0.0000     205.185919      5583.3927 
 635   0.0000     205.188941      5583.4749 
 636   0.0000     205.191630      5583.5481 
 637   0.0000     205.194583      5583.6285 
 638   0.0000     205.198835      5583.7442 
 639   0.0000     205.199291      5583.7566 
 640   0.0000     205.200362      5583.7857 
 641   0.0000     205.213477      5584.1426 
 642   0.0000     205.215683      5584.2026 
 643   0.0000     205.221617      5584.3641 
 644   0.0000     205.234023      5584.7017 

                 SPIN DOWN ORBITALS
  NO   OCC          E(Eh)            E(eV) 
   0   1.0000    -254.788834     -6933.1567 
   1   1.0000     -29.565600      -804.5209 
   2   1.0000     -25.516675      -694.3440 
   3   1.0000     -25.516146      -694.3296 
   4   1.0000     -25.514985      -694.2980 
   5   1.0000      -4.038050      -109.8809 
   6   1.0000      -4.037031      -109.8532 
   7   1.0000      -4.034113      -109.7738 
   8   1.0000      -4.031940      -109.7147 
   9   1.0000      -4.031714      -109.7085 
  10   1.0000      -4.030286      -109.6697 
  11   1.0000      -4.029638      -109.6520 
  12   1.0000      -4.029411      -109.6458 
  13   1.0000      -4.028380      -109.6178 
  14   1.0000      -4.028060      -109.6091 
  15   1.0000      -4.026647      -109.5706 
  16   1.0000      -4.026364      -109.5629 
  17   1.0000      -4.025915      -109.5507 
  18   1.0000      -4.025804      -109.5477 
  19   1.0000      -4.024248      -109.5054 
  20   1.0000      -3.266456       -88.8848 
  21   1.0000      -2.252681       -61.2986 
  22   1.0000      -2.252138       -61.2838 
  23   1.0000      -2.251011       -61.2531 
  24   1.0000      -2.249998       -61.2256 
  25   1.0000      -2.249913       -61.2232 
  26   1.0000      -2.248992       -61.1982 
  27   1.0000      -2.247836       -61.1667 
  28   1.0000      -2.247514       -61.1580 
  29   1.0000      -2.247217       -61.1499 
  30   1.0000      -2.246668       -61.1350 
  31   1.0000      -2.246334       -61.1259 
  32   1.0000      -2.246059       -61.1184 
  33   1.0000      -2.245899       -61.1140 
  34   1.0000      -2.245479       -61.1026 
  35   1.0000      -2.244348       -61.0718 
  36   1.0000      -2.244200       -61.0678 
  37   1.0000      -2.243986       -61.0620 
  38   1.0000      -2.243279       -61.0427 
  39   1.0000      -2.243044       -61.0363 
  40   1.0000      -2.242759       -61.0286 
  41   1.0000      -2.242713       -61.0273 
  42   1.0000      -2.242246       -61.0146 
  43   1.0000      -2.241871       -61.0044 
  44   1.0000      -2.241603       -60.9971 
  45   1.0000      -2.241222       -60.9868 
  46   1.0000      -2.240947       -60.9793 
  47   1.0000      -2.240892       -60.9778 
  48   1.0000      -2.240205       -60.9591 
  49   1.0000      -2.239850       -60.9494 
  50   1.0000      -2.239698       -60.9453 
  51   1.0000      -2.239576       -60.9420 
  52   1.0000      -2.239277       -60.9338 
  53   1.0000      -2.239107       -60.9292 
  54   1.0000      -2.238651       -60.9168 
  55   1.0000      -2.238564       -60.9144 
  56   1.0000      -2.238536       -60.9137 
  57   1.0000      -2.238108       -60.9020 
  58   1.0000      -2.238012       -60.8994 
  59   1.0000      -2.237761       -60.8926 
  60   1.0000      -2.237427       -60.8835 
  61   1.0000      -2.237106       -60.8747 
  62   1.0000      -2.236924       -60.8698 
  63   1.0000      -2.236476       -60.8576 
  64   1.0000      -2.236252       -60.8515 
  65   1.0000      -2.236155       -60.8489 
  66   1.0000      -2.083770       -56.7023 
  67   1.0000      -2.083044       -56.6825 
  68   1.0000      -2.081012       -56.6272 
  69   1.0000      -0.436717       -11.8837 
  70   1.0000      -0.393542       -10.7088 
  71   1.0000      -0.391832       -10.6623 
  72   1.0000      -0.388504       -10.5717 
  73   1.0000      -0.373584       -10.1657 
  74   1.0000      -0.372141       -10.1265 
  75   1.0000      -0.371705       -10.1146 
  76   1.0000      -0.366805        -9.9813 
  77   1.0000      -0.365577        -9.9479 
  78   1.0000      -0.363285        -9.8855 
  79   1.0000      -0.360196        -9.8014 
  80   1.0000      -0.358696        -9.7606 
  81   1.0000      -0.356725        -9.7070 
  82   1.0000      -0.356430        -9.6990 
  83   1.0000      -0.355017        -9.6605 
  84   1.0000      -0.353383        -9.6160 
  85   1.0000      -0.351440        -9.5632 
  86   1.0000      -0.351246        -9.5579 
  87   1.0000      -0.350237        -9.5304 
  88   1.0000      -0.348034        -9.4705 
  89   1.0000      -0.346674        -9.4335 
  90   1.0000      -0.343501        -9.3471 
  91   1.0000      -0.342458        -9.3187 
  92   1.0000      -0.340693        -9.2707 
  93   1.0000      -0.339407        -9.2357 
  94   1.0000      -0.336211        -9.1488 
  95   1.0000      -0.333703        -9.0805 
  96   1.0000      -0.330613        -8.9964 
  97   1.0000      -0.326764        -8.8917 
  98   1.0000      -0.326349        -8.8804 
  99   1.0000      -0.323457        -8.8017 
 100   1.0000      -0.320202        -8.7131 
 101   1.0000      -0.318854        -8.6765 
 102   1.0000      -0.316318        -8.6074 
 103   1.0000      -0.313033        -8.5181 
 104   1.0000      -0.310753        -8.4560 
 105   1.0000      -0.306440        -8.3386 
 106   1.0000      -0.303145        -8.2490 
 107   1.0000      -0.300144        -8.1673 
 108   1.0000      -0.298548        -8.1239 
 109   1.0000      -0.297104        -8.0846 
 110   1.0000      -0.292222        -7.9518 
 111   1.0000      -0.288908        -7.8616 
 112   1.0000      -0.288129        -7.8404 
 113   1.0000      -0.286220        -7.7885 
 114   1.0000      -0.282208        -7.6793 
 115   1.0000      -0.281002        -7.6465 
 116   1.0000      -0.278894        -7.5891 
 117   1.0000      -0.277701        -7.5566 
 118   1.0000      -0.276734        -7.5303 
 119   1.0000      -0.275177        -7.4879 
 120   1.0000      -0.274230        -7.4622 
 121   1.0000      -0.272515        -7.4155 
 122   1.0000      -0.271912        -7.3991 
 123   1.0000      -0.270870        -7.3707 
 124   1.0000      -0.269198        -7.3252 
 125   1.0000      -0.267508        -7.2793 
 126   1.0000      -0.266359        -7.2480 
 127   1.0000      -0.264946        -7.2095 
 128   1.0000      -0.263913        -7.1814 
 129   1.0000      -0.262608        -7.1459 
 130   1.0000      -0.260525        -7.0892 
 131   1.0000      -0.259756        -7.0683 
 132   1.0000      -0.259186        -7.0528 
 133   1.0000      -0.257698        -7.0123 
 134   1.0000      -0.256216        -6.9720 
 135   1.0000      -0.254853        -6.9349 
 136   1.0000      -0.253588        -6.9005 
 137   1.0000      -0.252666        -6.8754 
 138   1.0000      -0.251082        -6.8323 
 139   1.0000      -0.249681        -6.7942 
 140   1.0000      -0.249483        -6.7888 
 141   1.0000      -0.247700        -6.7403 
 142   1.0000      -0.247209        -6.7269 
 143   1.0000      -0.244564        -6.6549 
 144   1.0000      -0.242237        -6.5916 
 145   1.0000      -0.241160        -6.5623 
 146   1.0000      -0.237363        -6.4590 
 147   1.0000      -0.232679        -6.3315 
 148   1.0000      -0.224087        -6.0977 
 149   1.0000      -0.221006        -6.0139 
 150   1.0000      -0.215106        -5.8533 
 151   1.0000      -0.212072        -5.7708 
 152   1.0000      -0.209810        -5.7092 
 153   0.0000      -0.180368        -4.9081 
 154   0.0000      -0.178825        -4.8661 
 155   0.0000      -0.175565        -4.7774 
 156   0.0000      -0.175308        -4.7704 
 157   0.0000      -0.171791        -4.6747 
 158   0.0000      -0.150871        -4.1054 
 159   0.0000      -0.127714        -3.4753 
 160   0.0000      -0.125180        -3.4063 
 161   0.0000      -0.123394        -3.3577 
 162   0.0000      -0.121846        -3.3156 
 163   0.0000      -0.115659        -3.1472 
 164   0.0000      -0.112284        -3.0554 
 165   0.0000      -0.078198        -2.1279 
 166   0.0000      -0.077071        -2.0972 
 167   0.0000      -0.073583        -2.0023 
 168   0.0000      -0.067849        -1.8463 
 169   0.0000      -0.039210        -1.0669 
 170   0.0000      -0.028330        -0.7709 
 171   0.0000      -0.026639        -0.7249 
 172   0.0000      -0.019003        -0.5171 
 173   0.0000      -0.015337        -0.4173 
 174   0.0000      -0.007667        -0.2086 
 175   0.0000      -0.002061        -0.0561 
 176   0.0000       0.000916         0.0249 
 177   0.0000       0.003548         0.0965 
 178   0.0000       0.010831         0.2947 
 179   0.0000       0.022452         0.6109 
 180   0.0000       0.026230         0.7138 
 181   0.0000       0.033006         0.8981 
 182   0.0000       0.035531         0.9668 
 183   0.0000       0.039632         1.0785 
 184   0.0000       0.060898         1.6571 
 185   0.0000       0.062739         1.7072 
 186   0.0000       0.065990         1.7957 
 187   0.0000       0.067773         1.8442 
 188   0.0000       0.071597         1.9482 
 189   0.0000       0.072325         1.9681 
 190   0.0000       0.073080         1.9886 
 191   0.0000       0.073746         2.0067 
 192   0.0000       0.076141         2.0719 
 193   0.0000       0.078724         2.1422 
 194   0.0000       0.083133         2.2622 
 195   0.0000       0.084814         2.3079 
 196   0.0000       0.090426         2.4606 
 197   0.0000       0.093730         2.5505 
 198   0.0000       0.100914         2.7460 
 199   0.0000       0.107075         2.9137 
 200   0.0000       0.111402         3.0314 
 201   0.0000       0.116220         3.1625 
 202   0.0000       0.121482         3.3057 
 203   0.0000       0.137675         3.7463 
 204   0.0000       0.143319         3.8999 
 205   0.0000       0.148688         4.0460 
 206   0.0000       0.152390         4.1467 
 207   0.0000       0.154046         4.1918 
 208   0.0000       0.156702         4.2641 
 209   0.0000       0.157806         4.2941 
 210   0.0000       0.159446         4.3387 
 211   0.0000       0.162353         4.4179 
 212   0.0000       0.167162         4.5487 
 213   0.0000       0.168054         4.5730 
 214   0.0000       0.169013         4.5991 
 215   0.0000       0.172445         4.6925 
 216   0.0000       0.174909         4.7595 
 217   0.0000       0.183730         4.9996 
 218   0.0000       0.188056         5.1173 
 219   0.0000       0.197754         5.3812 
 220   0.0000       0.199509         5.4289 
 221   0.0000       0.205774         5.5994 
 222   0.0000       0.207888         5.6569 
 223   0.0000       0.213014         5.7964 
 224   0.0000       0.218749         5.9525 
 225   0.0000       0.224205         6.1009 
 226   0.0000       0.231485         6.2990 
 227   0.0000       0.236788         6.4433 
 228   0.0000       0.240680         6.5492 
 229   0.0000       0.242726         6.6049 
[...]
      py      :     2.135882
      dz2     :     1.972507  d :     9.875217
      dxz     :     1.963053
      dyz     :     1.981905
      dx2y2   :     1.995014
      dxy     :     1.962738
      f0      :     0.000680  f :     0.006455
      f+1     :     0.000908
      f-1     :     0.000787
      f+2     :     0.001148
      f-2     :     0.000961
      f+3     :     0.001182
      f-3     :     0.000790
  8 Aus       :     2.540075  s :     2.540075
      pz      :     2.222186  p :     6.560359
      px      :     2.197183
      py      :     2.140990
      dz2     :     1.986814  d :     9.877436
      dxz     :     1.980825
      dyz     :     1.948206
      dx2y2   :     1.970486
      dxy     :     1.991105
      f0      :     0.001023  f :     0.006441
      f+1     :     0.001117
      f-1     :     0.001099
      f+2     :     0.000887
      f-2     :     0.000902
      f+3     :     0.000744
      f-3     :     0.000668
  9 Aus       :     2.572705  s :     2.572705
      pz      :     2.172082  p :     6.529115
      px      :     2.171836
      py      :     2.185197
      dz2     :     1.982377  d :     9.884957
      dxz     :     1.962578
      dyz     :     1.988926
      dx2y2   :     1.984826
      dxy     :     1.966250
      f0      :     0.001081  f :     0.006474
      f+1     :     0.000916
      f-1     :     0.000930
      f+2     :     0.000992
      f-2     :     0.000813
      f+3     :     0.000914
      f-3     :     0.000827
 10 Aus       :     2.563199  s :     2.563199
      pz      :     2.182547  p :     6.510253
      px      :     2.230306
      py      :     2.097400
      dz2     :     1.961222  d :     9.892303
      dxz     :     1.972698
      dyz     :     1.993888
      dx2y2   :     1.961956
      dxy     :     2.002539
      f0      :     0.000784  f :     0.006220
      f+1     :     0.000757
      f-1     :     0.000854
      f+2     :     0.000789
      f-2     :     0.001270
      f+3     :     0.000797
      f-3     :     0.000969
 11 Aus       :     2.583144  s :     2.583144
      pz      :     2.202629  p :     6.520802
      px      :     2.097232
      py      :     2.220941
      dz2     :     1.962351  d :     9.848613
      dxz     :     1.991385
      dyz     :     1.965635
      dx2y2   :     1.946037
      dxy     :     1.983204
      f0      :     0.000881  f :     0.006158
      f+1     :     0.000822
      f-1     :     0.000870
      f+2     :     0.000652
      f-2     :     0.000989
      f+3     :     0.000956
      f-3     :     0.000988
 12 Aus       :     2.568600  s :     2.568600
      pz      :     2.178174  p :     6.506576
      px      :     2.137610
      py      :     2.190792
      dz2     :     1.965648  d :     9.884353
      dxz     :     1.980096
      dyz     :     1.977032
      dx2y2   :     1.997744
      dxy     :     1.963833
      f0      :     0.000824  f :     0.006306
      f+1     :     0.000696
      f-1     :     0.000894
      f+2     :     0.001209
      f-2     :     0.000842
      f+3     :     0.000821
      f-3     :     0.001021
 13 Aus       :     2.543030  s :     2.543030
      pz      :     2.150847  p :     6.530533
      px      :     2.190340
      py      :     2.189346
      dz2     :     1.987592  d :     9.870558
      dxz     :     1.954411
      dyz     :     1.975658
      dx2y2   :     1.984640
      dxy     :     1.968258
      f0      :     0.000862  f :     0.006174
      f+1     :     0.000896
      f-1     :     0.000894
      f+2     :     0.000600
      f-2     :     0.001134
      f+3     :     0.000982
      f-3     :     0.000806
 14 Aus       :     2.556128  s :     2.556128
      pz      :     2.205310  p :     6.526498
      px      :     2.148981
      py      :     2.172206
      dz2     :     1.978270  d :     9.891988
      dxz     :     1.972414
      dyz     :     1.977860
      dx2y2   :     1.998321
      dxy     :     1.965123
      f0      :     0.000851  f :     0.006167
      f+1     :     0.000869
      f-1     :     0.000655
      f+2     :     0.001318
      f-2     :     0.000744
      f+3     :     0.000775
      f-3     :     0.000953
 15 Fes       :     6.249553  s :     6.249553
      pz      :     4.174219  p :    12.490310
      px      :     4.163785
      py      :     4.152306
      dz2     :     1.869845  d :     7.764304
      dxz     :     1.458049
      dyz     :     1.411805
      dx2y2   :     1.511579
      dxy     :     1.513026
      f0      :     0.000061  f :     0.000440
      f+1     :     0.000068
      f-1     :     0.000075
      f+2     :     0.000075
      f-2     :     0.000050
      f+3     :     0.000062
      f-3     :     0.000048

SPIN
  0 Aus       :     0.006612  s :     0.006612
      pz      :     0.001311  p :    -0.003398
      px      :     0.003202
      py      :    -0.007911
      dz2     :     0.000488  d :    -0.001603
      dxz     :     0.001459
      dyz     :     0.003795
      dx2y2   :    -0.007607
      dxy     :     0.000262
      f0      :    -0.000009  f :    -0.000010
      f+1     :    -0.000001
      f-1     :     0.000003
      f+2     :    -0.000003
      f-2     :     0.000003
      f+3     :    -0.000002
      f-3     :    -0.000000
  1 Aus       :    -0.056222  s :    -0.056222
      pz      :     0.000708  p :    -0.007811
      px      :     0.003439
      py      :    -0.011958
      dz2     :     0.012519  d :     0.012012
      dxz     :     0.003148
      dyz     :     0.001567
      dx2y2   :    -0.000910
      dxy     :    -0.004312
      f0      :     0.000080  f :     0.000106
      f+1     :     0.000042
      f-1     :    -0.000008
      f+2     :    -0.000001
      f-2     :     0.000001
      f+3     :    -0.000005
      f-3     :    -0.000004
  2 Aus       :     0.015948  s :     0.015948
      pz      :    -0.005550  p :     0.003866
      px      :     0.003196
      py      :     0.006220
      dz2     :    -0.000650  d :    -0.004537
      dxz     :    -0.002399
      dyz     :    -0.003332
      dx2y2   :     0.004443
      dxy     :    -0.002598
      f0      :     0.000008  f :     0.000000
      f+1     :    -0.000004
      f-1     :    -0.000020
      f+2     :     0.000013
      f-2     :    -0.000014
      f+3     :     0.000013
      f-3     :     0.000003
  3 Aus       :    -0.003122  s :    -0.003122
      pz      :     0.005703  p :     0.000733
      px      :     0.006842
      py      :    -0.011812
      dz2     :     0.002681  d :     0.021775
      dxz     :     0.014191
      dyz     :    -0.000051
      dx2y2   :     0.008165
      dxy     :    -0.003211
      f0      :     0.000002  f :     0.000140
      f+1     :     0.000040
      f-1     :    -0.000008
      f+2     :     0.000056
      f-2     :     0.000015
      f+3     :     0.000020
      f-3     :     0.000015
  4 Aus       :     0.000454  s :     0.000454
      pz      :    -0.022168  p :    -0.010642
      px      :     0.006465
      py      :     0.005061
      dz2     :    -0.000250  d :    -0.018679
      dxz     :    -0.019785
      dyz     :    -0.000766
      dx2y2   :     0.003042
      dxy     :    -0.000920
      f0      :     0.000000  f :    -0.000019
      f+1     :    -0.000010
      f-1     :    -0.000010
      f+2     :    -0.000000
      f-2     :    -0.000019
      f+3     :     0.000007
      f-3     :     0.000012
  5 Aus       :    -0.004343  s :    -0.004343
      pz      :    -0.005259  p :    -0.029659
      px      :     0.007100
      py      :    -0.031500
      dz2     :    -0.003266  d :    -0.040792
      dxz     :    -0.003112
      dyz     :    -0.031965
      dx2y2   :     0.000260
      dxy     :    -0.002709
      f0      :    -0.000005  f :    -0.000070
      f+1     :    -0.000004
      f-1     :    -0.000016
      f+2     :    -0.000007
      f-2     :    -0.000013
      f+3     :    -0.000014
      f-3     :    -0.000011
  6 Aus       :    -0.058223  s :    -0.058223
      pz      :    -0.005128  p :     0.002286
      px      :     0.006082
      py      :     0.001332
      dz2     :     0.000389  d :     0.021493
      dxz     :     0.000801
      dyz     :     0.017048
      dx2y2   :     0.001754
      dxy     :     0.001500
      f0      :    -0.000008  f :     0.000119
      f+1     :     0.000000
      f-1     :     0.000036
      f+2     :     0.000049
      f-2     :     0.000037
      f+3     :     0.000005
      f-3     :    -0.000001
  7 Aus       :     0.012488  s :     0.012488
      pz      :    -0.041712  p :    -0.035023
      px      :     0.003413
      py      :     0.003275
      dz2     :     0.002259  d :    -0.013661
      dxz     :    -0.009272
      dyz     :    -0.009538
      dx2y2   :    -0.000289
      dxy     :     0.003178
      f0      :    -0.000003  f :    -0.000029
      f+1     :    -0.000005
      f-1     :     0.000004
      f+2     :    -0.000016
      f-2     :    -0.000009
      f+3     :     0.000000
      f-3     :    -0.000001
  8 Aus       :    -0.028606  s :    -0.028606
      pz      :     0.000151  p :     0.000477
      px      :    -0.002390
      py      :     0.002716
      dz2     :    -0.005364  d :     0.010688
      dxz     :     0.001903
      dyz     :     0.015907
      dx2y2   :    -0.002619
      dxy     :     0.000862
      f0      :    -0.000035  f :     0.000089
      f+1     :    -0.000012
      f-1     :     0.000031
      f+2     :     0.000061
      f-2     :     0.000040
      f+3     :     0.000005
      f-3     :    -0.000002
  9 Aus       :     0.010349  s :     0.010349
      pz      :    -0.000912  p :    -0.009496
      px      :     0.004679
      py      :    -0.013262
      dz2     :    -0.000257  d :    -0.013714
      dxz     :     0.000244
      dyz     :     0.000130
      dx2y2   :     0.001428
      dxy     :    -0.015260
      f0      :    -0.000015  f :    -0.000043
      f+1     :     0.000022
      f-1     :    -0.000024
      f+2     :    -0.000004
      f-2     :    -0.000004
      f+3     :    -0.000000
      f-3     :    -0.000018
 10 Aus       :     0.012646  s :     0.012646
      pz      :    -0.026212  p :    -0.015807
      px      :     0.006389
      py      :     0.004016
      dz2     :    -0.002147  d :    -0.010470
      dxz     :     0.002373
      dyz     :    -0.011499
      dx2y2   :     0.003482
      dxy     :    -0.002680
      f0      :    -0.000006  f :    -0.000016
      f+1     :    -0.000006
      f-1     :    -0.000001
      f+2     :    -0.000006
      f-2     :     0.000002
      f+3     :    -0.000001
      f-3     :     0.000003
 11 Aus       :     0.019833  s :     0.019833
      pz      :     0.006324  p :     0.015282
      px      :     0.006628
      py      :     0.002330
      dz2     :     0.006099  d :     0.010132
      dxz     :     0.001569
      dyz     :    -0.014057
      dx2y2   :     0.013788
      dxy     :     0.002733
      f0      :     0.000029  f :     0.000161
      f+1     :     0.000037
      f-1     :     0.000003
      f+2     :     0.000025
      f-2     :    -0.000019
      f+3     :     0.000053
      f-3     :     0.000034
 12 Aus       :     0.013474  s :     0.013474
      pz      :    -0.027091  p :    -0.018974
      px      :     0.001561
      py      :     0.006556
      dz2     :     0.001068  d :    -0.010956
      dxz     :    -0.011842
      dyz     :    -0.000532
      dx2y2   :    -0.003430
      dxy     :     0.003779
      f0      :    -0.000008  f :    -0.000018
      f+1     :     0.000004
      f-1     :    -0.000004
      f+2     :    -0.000003
      f-2     :    -0.000006
      f+3     :     0.000006
      f-3     :    -0.000007
 13 Aus       :    -0.014536  s :    -0.014536
      pz      :     0.003606  p :    -0.006397
      px      :     0.001768
      py      :    -0.011772
      dz2     :     0.003360  d :     0.017112
      dxz     :     0.011855
      dyz     :     0.006453
      dx2y2   :     0.002317
      dxy     :    -0.006872
      f0      :    -0.000024  f :     0.000130
      f+1     :     0.000060
      f-1     :     0.000026
      f+2     :     0.000045
      f-2     :     0.000028
      f+3     :    -0.000002
      f-3     :    -0.000003
 14 Aus       :     0.026508  s :     0.026508
      pz      :     0.002656  p :     0.015448
      px      :     0.005396
      py      :     0.007396
      dz2     :     0.001352  d :    -0.004557
      dxz     :    -0.008824
      dyz     :    -0.000327
      dx2y2   :    -0.001773
      dxy     :     0.005014
      f0      :    -0.000002  f :    -0.000005
      f+1     :     0.000005
      f-1     :     0.000003
      f+2     :    -0.000024
      f-2     :     0.000004
      f+3     :     0.000003
      f-3     :     0.000006
 15 Fes       :     0.013650  s :     0.013650
      pz      :     0.005236  p :     0.017341
      px      :     0.006395
      py      :     0.005710
      dz2     :     0.311030  d :     3.140043
      dxz     :     0.744258
      dyz     :     0.677689
      dx2y2   :     0.711109
      dxy     :     0.695958
      f0      :     0.000009  f :     0.000044
      f+1     :     0.000009
      f-1     :     0.000003
      f+2     :     0.000001
      f-2     :     0.000002
      f+3     :     0.000014
      f-3     :     0.000006


                      *****************************
                      * MAYER POPULATION ANALYSIS *
                      *****************************

  NA   - Mulliken gross atomic population
  ZA   - Total nuclear charge
  QA   - Mulliken gross atomic charge
  VA   - Mayer's total valence
  BVA  - Mayer's bonded valence
  FA   - Mayer's free valence

  ATOM       NA         ZA         QA         VA         BVA        FA
  0 Au    18.8487    19.0000     0.1513     1.7468     1.7456     0.0011
  1 Au    18.8163    19.0000     0.1837     1.7746     1.7583     0.0163
  2 Au    18.7886    19.0000     0.2114     1.7245     1.7218     0.0027
  3 Au    19.0644    19.0000    -0.0644     1.9873     1.9823     0.0050
  4 Au    18.6819    19.0000     0.3181     1.6553     1.6515     0.0038
  5 Au    18.6019    19.0000     0.3981     1.5453     1.5417     0.0035
  6 Au    19.0590    19.0000    -0.0590     2.0946     2.0742     0.0204
  7 Au    18.8220    19.0000     0.1780     1.7218     1.7190     0.0028
  8 Au    18.9161    19.0000     0.0839     1.8736     1.8661     0.0075
  9 Au    18.9023    19.0000     0.0977     1.8024     1.8006     0.0017
 10 Au    18.7956    19.0000     0.2044     1.7208     1.7180     0.0029
 11 Au    18.7723    19.0000     0.2277     1.7260     1.7182     0.0078
 12 Au    18.8260    19.0000     0.1740     1.7456     1.7434     0.0022
 13 Au    18.8496    19.0000     0.1504     1.7270     1.7243     0.0027
 14 Au    18.8361    19.0000     0.1639     1.6979     1.6924     0.0055
 15 Fe    28.4190    26.0000    -2.4190     7.6973     5.0929     2.6044

  Mayer bond orders larger than 0.100000
B(  0-Au,  1-Au) :   0.2406 B(  0-Au,  2-Au) :   0.3057 B(  0-Au, 10-Au) :   0.2889 
B(  0-Au, 13-Au) :   0.2111 B(  0-Au, 14-Au) :   0.1980 B(  0-Au, 15-Fe) :   0.2404 
B(  1-Au,  2-Au) :   0.1690 B(  1-Au,  4-Au) :   0.2466 B(  1-Au,  7-Au) :   0.1677 
B(  1-Au, 13-Au) :   0.2326 B(  1-Au, 15-Fe) :   0.4251 B(  2-Au,  3-Au) :   0.2113 
B(  2-Au,  7-Au) :   0.2913 B(  2-Au, 14-Au) :   0.2443 B(  2-Au, 15-Fe) :   0.2628 
B(  3-Au,  5-Au) :   0.3396 B(  3-Au,  6-Au) :   0.2035 B(  3-Au,  7-Au) :   0.1815 
B(  3-Au,  8-Au) :   0.1184 B(  3-Au, 14-Au) :   0.2377 B(  3-Au, 15-Fe) :   0.5034 
B(  4-Au,  7-Au) :   0.2087 B(  4-Au,  8-Au) :   0.2523 B(  4-Au, 11-Au) :   0.3011 
B(  4-Au, 15-Fe) :   0.3338 B(  5-Au,  6-Au) :   0.3188 B(  5-Au,  8-Au) :   0.2507 
B(  5-Au,  9-Au) :   0.2475 B(  6-Au,  9-Au) :   0.2003 B(  6-Au, 10-Au) :   0.2685 
B(  6-Au, 12-Au) :   0.2105 B(  6-Au, 14-Au) :   0.2593 B(  6-Au, 15-Fe) :   0.4325 
B(  7-Au,  8-Au) :   0.2571 B(  7-Au, 15-Fe) :   0.3307 B(  8-Au,  9-Au) :   0.2865 
B(  8-Au, 15-Fe) :   0.4119 B(  9-Au, 11-Au) :   0.2151 B(  9-Au, 12-Au) :   0.2862 
B(  9-Au, 15-Fe) :   0.2941 B( 10-Au, 12-Au) :   0.3133 B( 10-Au, 13-Au) :   0.1329 
B( 10-Au, 14-Au) :   0.2387 B( 10-Au, 15-Fe) :   0.2283 B( 11-Au, 12-Au) :   0.1932 
B( 11-Au, 13-Au) :   0.2040 B( 11-Au, 15-Fe) :   0.4548 B( 12-Au, 13-Au) :   0.1808 
B( 12-Au, 15-Fe) :   0.2899 B( 13-Au, 15-Fe) :   0.4842 B( 14-Au, 15-Fe) :   0.3052 


-------
TIMINGS
-------

Total SCF time: 0 days 0 hours 11 min 43 sec 

Total time                  ....     703.761 sec
Sum of individual times     ....     696.024 sec  ( 98.9%)

Fock matrix formation       ....     636.122 sec  ( 90.4%)
  Split-RI-J                ....     218.534 sec  ( 34.4% of F)
  XC integration            ....     411.588 sec  ( 64.7% of F)
    Basis function eval.    ....      44.503 sec  ( 10.8% of XC)
    Density eval.           ....     189.247 sec  ( 46.0% of XC)
    XC-Functional eval.     ....       6.020 sec  (  1.5% of XC)
    XC-Potential eval.      ....     144.156 sec  ( 35.0% of XC)
Diagonalization             ....      34.788 sec  (  4.9%)
Density matrix formation    ....       2.972 sec  (  0.4%)
Population analysis         ....       0.167 sec  (  0.0%)
Initial guess               ....       0.241 sec  (  0.0%)
Orbital Transformation      ....       5.045 sec  (  0.7%)
Orbital Orthonormalization  ....       0.207 sec  (  0.0%)
DIIS solution               ....      15.304 sec  (  2.2%)
Grid generation             ....       1.371 sec  (  0.2%)

Maximum memory used throughout the entire SCF-calculation: 122.5 MB

-------------------------   --------------------
FINAL SINGLE POINT ENERGY     -3300.902529487514
-------------------------   --------------------


                            ***************************************
                            *     ORCA property calculations      *
                            ***************************************

                                    ---------------------
                                    Active property flags
                                    ---------------------
   (+) Dipole Moment


------------------------------------------------------------------------------
                       ORCA ELECTRIC PROPERTIES CALCULATION
------------------------------------------------------------------------------

Dipole Moment Calculation                       ... on
Quadrupole Moment Calculation                   ... off
Polarizability Calculation                      ... off
GBWName                                         ... pbeSP_job2.gbw
Electron density                                ... pbeSP_job2.scfp
The origin for moment calculation is the CENTER OF MASS  = (13.826334, 14.696206 14.223081)

-------------
DIPOLE MOMENT
-------------
                                X             Y             Z
Electronic contribution:      5.12415       6.52399      -5.15225
Nuclear contribution   :     -5.16025      -6.67691       4.96324
                        -----------------------------------------
Total Dipole Moment    :     -0.03610      -0.15292      -0.18902
                        -----------------------------------------
Magnitude (a.u.)       :      0.24579
Magnitude (Debye)      :      0.62476



--------------------
Rotational spectrum 
--------------------
 
Rotational constants in cm-1:     0.001003     0.000944     0.000904 
Rotational constants in MHz :    30.082356    28.308572    27.086401 

 Dipole components along the rotational axes: 
x,y,z [a.u.] :    -0.228615    -0.083224    -0.034986 
x,y,z [Debye]:    -0.581094    -0.211537    -0.088926 

 

Timings for individual modules:

Sum of individual times         ...      715.026 sec (=  11.917 min)
GTO integral calculation        ...       11.127 sec (=   0.185 min)   1.6 %
SCF iterations                  ...      703.899 sec (=  11.732 min)  98.4 %



                             ****ORCA TERMINATED NORMALLY****
TOTAL RUN TIME: 0 days 0 hours 15 minutes 17 seconds 188 msec
