
                                 *****************
                                 * O   R   C   A *
                                 *****************

                                            #,                                       
                                            ###                                      
                                            ####                                     
                                            #####                                    
                                            ######                                   
                                           ########,                                 
                                     ,,################,,,,,                         
                               ,,#################################,,                 
                          ,,##########################################,,             
                       ,#########################################, ''#####,          
                    ,#############################################,,   '####,        
                  ,##################################################,,,,####,       
                ,###########''''           ''''###############################       
              ,#####''   ,,,,##########,,,,          '''####'''          '####       
            ,##' ,,,,###########################,,,                        '##       
           ' ,,###''''                  '''############,,,                           
         ,,##''                                '''############,,,,        ,,,,,,###''
      ,#''                                            '''#######################'''  
     '                                                          ''''####''''         
             ,#######,   #######,   ,#######,      ##                                
            ,#'     '#,  ##    ##  ,#'     '#,    #''#        ######   ,####,        
            ##       ##  ##   ,#'  ##            #'  '#       #        #'  '#        
            ##       ##  #######   ##           ,######,      #####,   #    #        
            '#,     ,#'  ##    ##  '#,     ,#' ,#      #,         ##   #,  ,#        
             '#######'   ##     ##  '#######'  #'      '#     #####' # '####'        



                  #######################################################
                  #                        -***-                        #
                  #          Department of theory and spectroscopy      #
                  #    Directorship and core code : Frank Neese         #
                  #        Max Planck Institute fuer Kohlenforschung    #
                  #                Kaiser Wilhelm Platz 1               #
                  #                 D-45470 Muelheim/Ruhr               #
                  #                      Germany                        #
                  #                                                     #
                  #                  All rights reserved                #
                  #                        -***-                        #
                  #######################################################


                         Program Version 5.0.3 -  RELEASE  -


 With contributions from (in alphabetic order):
   Daniel Aravena         : Magnetic Suceptibility
   Michael Atanasov       : Ab Initio Ligand Field Theory (pilot matlab implementation)
   Alexander A. Auer      : GIAO ZORA, VPT2 properties, NMR spectrum
   Ute Becker             : Parallelization
   Giovanni Bistoni       : ED, misc. LED, open-shell LED, HFLD
   Martin Brehm           : Molecular dynamics
   Dmytro Bykov           : SCF Hessian
   Vijay G. Chilkuri      : MRCI spin determinant printing, contributions to CSF-ICE
   Dipayan Datta          : RHF DLPNO-CCSD density
   Achintya Kumar Dutta   : EOM-CC, STEOM-CC
   Dmitry Ganyushin       : Spin-Orbit,Spin-Spin,Magnetic field MRCI
   Miquel Garcia          : C-PCM and meta-GGA Hessian, CC/C-PCM, Gaussian charge scheme
   Yang Guo               : DLPNO-NEVPT2, F12-NEVPT2, CIM, IAO-localization
   Andreas Hansen         : Spin unrestricted coupled pair/coupled cluster methods
   Benjamin Helmich-Paris : MC-RPA, TRAH-SCF, COSX integrals
   Lee Huntington         : MR-EOM, pCC
   Robert Izsak           : Overlap fitted RIJCOSX, COSX-SCS-MP3, EOM
   Marcus Kettner         : VPT2
   Christian Kollmar      : KDIIS, OOCD, Brueckner-CCSD(T), CCSD density, CASPT2, CASPT2-K
   Simone Kossmann        : Meta GGA functionals, TD-DFT gradient, OOMP2, MP2 Hessian
   Martin Krupicka        : Initial AUTO-CI
   Lucas Lang             : DCDCAS
   Marvin Lechner         : AUTO-CI (C++ implementation), FIC-MRCC
   Dagmar Lenk            : GEPOL surface, SMD
   Dimitrios Liakos       : Extrapolation schemes; Compound Job, initial MDCI parallelization
   Dimitrios Manganas     : Further ROCIS development; embedding schemes
   Dimitrios Pantazis     : SARC Basis sets
   Anastasios Papadopoulos: AUTO-CI, single reference methods and gradients
   Taras Petrenko         : DFT Hessian,TD-DFT gradient, ASA, ECA, R-Raman, ABS, FL, XAS/XES, NRVS
   Peter Pinski           : DLPNO-MP2, DLPNO-MP2 Gradient
   Christoph Reimann      : Effective Core Potentials
   Marius Retegan         : Local ZFS, SOC
   Christoph Riplinger    : Optimizer, TS searches, QM/MM, DLPNO-CCSD(T), (RO)-DLPNO pert. Triples
   Tobias Risthaus        : Range-separated hybrids, TD-DFT gradient, RPA, STAB
   Michael Roemelt        : Original ROCIS implementation
   Masaaki Saitow         : Open-shell DLPNO-CCSD energy and density
   Barbara Sandhoefer     : DKH picture change effects
   Avijit Sen             : IP-ROCIS
   Kantharuban Sivalingam : CASSCF convergence, NEVPT2, FIC-MRCI
   Bernardo de Souza      : ESD, SOC TD-DFT
   Georgi Stoychev        : AutoAux, RI-MP2 NMR, DLPNO-MP2 response
   Willem Van den Heuvel  : Paramagnetic NMR
   Boris Wezisla          : Elementary symmetry handling
   Frank Wennmohs         : Technical directorship


 We gratefully acknowledge several colleagues who have allowed us to
 interface, adapt or use parts of their codes:
   Stefan Grimme, W. Hujo, H. Kruse, P. Pracht,  : VdW corrections, initial TS optimization,
                  C. Bannwarth, S. Ehlert          DFT functionals, gCP, sTDA/sTD-DF
   Ed Valeev, F. Pavosevic, A. Kumar             : LibInt (2-el integral package), F12 methods
   Garnet Chan, S. Sharma, J. Yang, R. Olivares  : DMRG
   Ulf Ekstrom                                   : XCFun DFT Library
   Mihaly Kallay                                 : mrcc  (arbitrary order and MRCC methods)
   Jiri Pittner, Ondrej Demel                    : Mk-CCSD
   Frank Weinhold                                : gennbo (NPA and NBO analysis)
   Christopher J. Cramer and Donald G. Truhlar   : smd solvation model
   Lars Goerigk                                  : TD-DFT with DH, B97 family of functionals
   V. Asgeirsson, H. Jonsson                     : NEB implementation
   FAccTs GmbH                                   : IRC, NEB, NEB-TS, DLPNO-Multilevel, CI-OPT
                                                   MM, QMMM, 2- and 3-layer-ONIOM, Crystal-QMMM,
                                                   LR-CPCM, SF, NACMEs, symmetry and pop. for TD-DFT,
                                                   nearIR, NL-DFT gradient (VV10), updates on ESD,
                                                   ML-optimized integration grids
   S Lehtola, MJT Oliveira, MAL Marques          : LibXC Library
   Liviu Ungur et al                             : ANISO software


 Your calculation uses the libint2 library for the computation of 2-el integrals
 For citations please refer to: http://libint.valeyev.net

 Your ORCA version has been built with support for libXC version: 5.1.0
 For citations please refer to: https://tddft.org/programs/libxc/

 This ORCA versions uses:
   CBLAS   interface :  Fast vector & matrix operations
   LAPACKE interface :  Fast linear algebra routines
   SCALAPACK package :  Parallel linear algebra routines
   Shared memory     :  Shared parallel matrices
   BLAS/LAPACK       :  OpenBLAS 0.3.15  USE64BITINT DYNAMIC_ARCH NO_AFFINITY Sandybridge SINGLE_THREADED
        Core in use  :  Sandybridge
   Copyright (c) 2011-2014, The OpenBLAS Project




***************************************
The coordinates will be read from file: pbe.xyz
***************************************


================================================================================

cite the ECPs for Au [Def2-ECP] as follows:
Ce-Yb(ecp-28): M. Dolg, H. Stoll, H.Preuss, J. Chem. Phys., 1989, 90, 1730-1734.
Y-Cd(ecp-28), Hf-Hg(ecp-46): D. Andrae,U. Haeussermann, M. Dolg, H. Stoll, H. Preuss, Theor. Chim. Acta, 1990, 77, 123-141.
In-Sb(ecp-28), Tl-Bi(ecp-46): B. Metz, H. Stoll, M. Dolg, J. Chem. Phys., 2000, 113, 2563-2569.
Te-Xe(ecp-28), Po-Rn(ecp-46): K. A. Peterson, D. Figgen, E. Goll, H. Stoll, M. Dolg, J. Chem. Phys., 2003, 119, 11113-11123.
Rb(ecp-28), Cs(ecp-46): T. Leininger, A. Nicklass, W. Kuechle, H. Stoll, M. Dolg, A. Bergner, Chem. Phys. Lett., 1996, 255, 274-280.
Sr(ecp-28), Ba(ecp-46): M. Kaupp, P. V. Schleyer, H. Stoll and H. Preuss, J. Chem. Phys., 1991, 94, 1360-1366.
La(ecp-46): M. Dolg, H. Stoll, A. Savin, H. Preuss, Theor. Chim. Acta, 1989, 75, 173-194.
Lu(ecp-28): X. Cao, M. Dolg, J. Chem. Phys., 2001, 115, 7348-7355.

ECP parameters for Au [Def2-ECP] have been obtained from:
TURBOMOLE (7.0.2)

----- Orbital basis set information -----
Your calculation utilizes the basis: def2-TZVP
   F. Weigend and R. Ahlrichs, Phys. Chem. Chem. Phys. 7, 3297 (2005).

----- AuxJ basis set information -----
Your calculation utilizes the auxiliary basis: def2/J
   F. Weigend, Phys. Chem. Chem. Phys. 8, 1057 (2006).

================================================================================
                                        WARNINGS
                       Please study these warnings very carefully!
================================================================================

Using LibXC functional ID 497 : Re-regularized SCAN exchange by Furness et al
[ 1]  J. W. Furness, A. D. Kaplan, J. Ning, J. P. Perdew, and J. Sun, J. Phys. Chem. Lett. 11, 8208 (2020)
[ 2]  J. W. Furness, A. D. Kaplan, J. Ning, J. P. Perdew, and J. Sun, J. Phys. Chem. Lett. 11, 9248 (2020)
Using LibXC functional ID 498 : Re-regularized SCAN correlation by Furness et al
[ 1]  J. W. Furness, A. D. Kaplan, J. Ning, J. P. Perdew, and J. Sun, J. Phys. Chem. Lett. 11, 8208 (2020)
[ 2]  J. W. Furness, A. D. Kaplan, J. Ning, J. P. Perdew, and J. Sun, J. Phys. Chem. Lett. 11, 9248 (2020)
Using LibXC functional ID 497 : Re-regularized SCAN exchange by Furness et al
[ 1]  J. W. Furness, A. D. Kaplan, J. Ning, J. P. Perdew, and J. Sun, J. Phys. Chem. Lett. 11, 8208 (2020)
[ 2]  J. W. Furness, A. D. Kaplan, J. Ning, J. P. Perdew, and J. Sun, J. Phys. Chem. Lett. 11, 9248 (2020)
Using LibXC functional ID 498 : Re-regularized SCAN correlation by Furness et al
[ 1]  J. W. Furness, A. D. Kaplan, J. Ning, J. P. Perdew, and J. Sun, J. Phys. Chem. Lett. 11, 8208 (2020)
[ 2]  J. W. Furness, A. D. Kaplan, J. Ning, J. P. Perdew, and J. Sun, J. Phys. Chem. Lett. 11, 9248 (2020)

WARNING: your system is open-shell and RHF/RKS was chosen
  ===> : WILL SWITCH to UHF/UKS


INFO   : the flag for use of the SHARK integral package has been found!



***************************************
The coordinates will be read from file: pbe.xyz
***************************************


================================================================================

cite the ECPs for Au [Def2-ECP] as follows:
Ce-Yb(ecp-28): M. Dolg, H. Stoll, H.Preuss, J. Chem. Phys., 1989, 90, 1730-1734.
Y-Cd(ecp-28), Hf-Hg(ecp-46): D. Andrae,U. Haeussermann, M. Dolg, H. Stoll, H. Preuss, Theor. Chim. Acta, 1990, 77, 123-141.
In-Sb(ecp-28), Tl-Bi(ecp-46): B. Metz, H. Stoll, M. Dolg, J. Chem. Phys., 2000, 113, 2563-2569.
Te-Xe(ecp-28), Po-Rn(ecp-46): K. A. Peterson, D. Figgen, E. Goll, H. Stoll, M. Dolg, J. Chem. Phys., 2003, 119, 11113-11123.
Rb(ecp-28), Cs(ecp-46): T. Leininger, A. Nicklass, W. Kuechle, H. Stoll, M. Dolg, A. Bergner, Chem. Phys. Lett., 1996, 255, 274-280.
Sr(ecp-28), Ba(ecp-46): M. Kaupp, P. V. Schleyer, H. Stoll and H. Preuss, J. Chem. Phys., 1991, 94, 1360-1366.
La(ecp-46): M. Dolg, H. Stoll, A. Savin, H. Preuss, Theor. Chim. Acta, 1989, 75, 173-194.
Lu(ecp-28): X. Cao, M. Dolg, J. Chem. Phys., 2001, 115, 7348-7355.

ECP parameters for Au [Def2-ECP] have been obtained from:
TURBOMOLE (7.0.2)

----- Orbital basis set information -----
Your calculation utilizes the basis: def2-TZVP
   F. Weigend and R. Ahlrichs, Phys. Chem. Chem. Phys. 7, 3297 (2005).

----- AuxJ basis set information -----
Your calculation utilizes the auxiliary basis: def2/J
   F. Weigend, Phys. Chem. Chem. Phys. 8, 1057 (2006).

================================================================================
                                        WARNINGS
                       Please study these warnings very carefully!
================================================================================

Using LibXC functional ID 497 : Re-regularized SCAN exchange by Furness et al
[ 1]  J. W. Furness, A. D. Kaplan, J. Ning, J. P. Perdew, and J. Sun, J. Phys. Chem. Lett. 11, 8208 (2020)
[ 2]  J. W. Furness, A. D. Kaplan, J. Ning, J. P. Perdew, and J. Sun, J. Phys. Chem. Lett. 11, 9248 (2020)
Using LibXC functional ID 498 : Re-regularized SCAN correlation by Furness et al
[ 1]  J. W. Furness, A. D. Kaplan, J. Ning, J. P. Perdew, and J. Sun, J. Phys. Chem. Lett. 11, 8208 (2020)
[ 2]  J. W. Furness, A. D. Kaplan, J. Ning, J. P. Perdew, and J. Sun, J. Phys. Chem. Lett. 11, 9248 (2020)
Using LibXC functional ID 497 : Re-regularized SCAN exchange by Furness et al
[ 1]  J. W. Furness, A. D. Kaplan, J. Ning, J. P. Perdew, and J. Sun, J. Phys. Chem. Lett. 11, 8208 (2020)
[ 2]  J. W. Furness, A. D. Kaplan, J. Ning, J. P. Perdew, and J. Sun, J. Phys. Chem. Lett. 11, 9248 (2020)
Using LibXC functional ID 498 : Re-regularized SCAN correlation by Furness et al
[ 1]  J. W. Furness, A. D. Kaplan, J. Ning, J. P. Perdew, and J. Sun, J. Phys. Chem. Lett. 11, 8208 (2020)
[ 2]  J. W. Furness, A. D. Kaplan, J. Ning, J. P. Perdew, and J. Sun, J. Phys. Chem. Lett. 11, 9248 (2020)

INFO   : the flag for use of the SHARK integral package has been found!

================================================================================
                                       INPUT FILE
================================================================================
NAME = scan.inp
|  1> !R2SCAN def2-TZVP VERYSLOWCONV
|  2> !KDIIS
|  3> %scf
|  4>   AutoTRAHIter 200
|  5>   maxiter 400
|  6> end
|  7> 
|  8> %pal nprocs 6 end 
|  9> 
| 10> *xyzfile 0 5 pbe.xyz
| 11> 
| 12> $new_job
| 13> 
| 14> !R2SCAN def2-TZVP VERYSLOWCONV
| 15> !KDIIS
| 16> %scf
| 17>   AutoTRAHIter 200
| 18>   maxiter 400
| 19> end
| 20> 
| 21> 
| 22> %pal nprocs 6 end 
| 23> 
| 24> *xyzfile 0 3 pbe.xyz
| 25> 
| 26> 
| 27> 
| 28> 
| 29> 
| 30>                          ****END OF INPUT****
================================================================================


                 $$$$$$$$$$$$$$$$$$$$$$$$$$$$$$$$$$$$$$$$$$$$$$ 
                 $ THERE ARE  2 JOBS TO BE PROCESSED THIS RUN $
                 $$$$$$$$$$$$$$$$$$$$$$$$$$$$$$$$$$$$$$$$$$$$$$ 




                 $$$$$$$$$$$$$$$$  JOB NUMBER  1 $$$$$$$$$$$$$$


                       ****************************
                       * Single Point Calculation *
                       ****************************

---------------------------------
CARTESIAN COORDINATES (ANGSTROEM)
---------------------------------
  Au     6.513322    8.842332    3.910751
  Au     8.236344    6.749745    4.132713
  Au     7.563026    4.798717    5.794669
  Au     6.230482    3.520495    7.820631
  Au     4.808190    5.594234    6.808095
  Au     4.528511   10.509245    4.726152
  Au     4.296739    8.006768    5.768552
  Au     5.362129    7.848761    8.444327
  Au     7.367239    5.900811    8.595750
  Au     8.175991    8.448817    8.218433
  Au     8.676341    9.240011    5.596556
  Au     6.302923   10.035504    6.803983
  Fe     6.827670    7.307423    6.247159

----------------------------
CARTESIAN COORDINATES (A.U.)
----------------------------
  NO LB      ZA    FRAG     MASS         X           Y           Z
   0 Au   19.0000*   0   196.966   12.308396   16.709586    7.390248
   1 Au   19.0000*   0   196.966   15.564434   12.755170    7.809696
   2 Au   19.0000*   0   196.966   14.292049    9.068260   10.950337
   3 Au   19.0000*   0   196.966   11.773905    6.652771   14.778851
   4 Au   19.0000*   0   196.966    9.086162   10.571571   12.865435
   5 Au   19.0000*   0   196.966    8.557645   19.859596    8.931132
   6 Au   19.0000*   0   196.966    8.119660   15.130599   10.900984
   7 Au   19.0000*   0   196.966   10.132956   14.832010   15.957466
   8 Au   19.0000*   0   196.966   13.922065   11.150917   16.243613
   9 Au   19.0000*   0   196.966   15.450384   15.965950   15.530588
  10 Au   19.0000*   0   196.966   16.395908   17.461090   10.575958
  11 Au   19.0000*   0   196.966   11.910798   18.964354   12.857665
  12 Fe   26.0000    0    55.850   12.902426   13.809028   11.805420
* core charge reduced due to ECP

--------------------------------
INTERNAL COORDINATES (ANGSTROEM)
--------------------------------
 Au     0   0   0     0.000000000000     0.00000000     0.00000000
 Au     1   0   0     2.719741063581     0.00000000     0.00000000
 Au     2   1   0     2.649898929839   117.17431514     0.00000000
 Au     3   2   1     2.741176801435   158.49410946   344.17899345
 Au     4   3   2     2.710818957265    67.80732340    22.87074180
 Au     1   2   3     2.717159511196   155.54601391    23.44435537
 Au     5   4   3     2.676294387150   159.21916500   322.71636075
 Au     5   4   3     2.840246022766   106.84139467   265.45260644
 Au     4   3   2     2.749350841795    66.65050056   305.81074643
 Au     9   4   3     2.699773978066   154.36399599    33.38271471
 Au     1   2   3     2.771053331396    64.29456878    98.64886877
 Au     6   1   2     2.773149038440    69.67483236    43.46102994
 Fe     2   1   3     2.601201182261    63.78770314   330.01229384

---------------------------
INTERNAL COORDINATES (A.U.)
---------------------------
 Au     0   0   0     0.000000000000     0.00000000     0.00000000
 Au     1   0   0     5.139565765348     0.00000000     0.00000000
 Au     2   1   0     5.007583259966   117.17431514     0.00000000
 Au     3   2   1     5.180073439371   158.49410946   344.17899345
 Au     4   3   2     5.122705427874    67.80732340    22.87074180
 Au     1   2   3     5.134687338341   155.54601391    23.44435537
 Au     5   4   3     5.057463445463   159.21916500   322.71636075
 Au     5   4   3     5.367287135987   106.84139467   265.45260644
 Au     4   3   2     5.195520137058    66.65050056   305.81074643
 Au     9   4   3     5.101833442031   154.36399599    33.38271471
 Au     1   2   3     5.236531898828    64.29456878    98.64886877
 Au     6   1   2     5.240492211198    69.67483236    43.46102994
 Fe     2   1   3     4.915557853706    63.78770314   330.01229384

---------------------
BASIS SET INFORMATION
---------------------
There are 2 groups of distinct atoms

 Group   1 Type Au  : 8s7p6d1f contracted to 6s4p3d1f pattern {311111/4111/411/1}
 Group   2 Type Fe  : 17s11p7d1f contracted to 6s4p4d1f pattern {842111/6311/4111/1}

Atom   0Au   basis set group =>   1
Atom   1Au   basis set group =>   1
Atom   2Au   basis set group =>   1
Atom   3Au   basis set group =>   1
Atom   4Au   basis set group =>   1
Atom   5Au   basis set group =>   1
Atom   6Au   basis set group =>   1
Atom   7Au   basis set group =>   1
Atom   8Au   basis set group =>   1
Atom   9Au   basis set group =>   1
Atom  10Au   basis set group =>   1
Atom  11Au   basis set group =>   1
Atom  12Fe   basis set group =>   2
---------------------------------
AUXILIARY/J BASIS SET INFORMATION
---------------------------------
There are 2 groups of distinct atoms

 Group   1 Type Au  : 11s5p5d3f3g contracted to 8s5p5d2f3g pattern {41111111/11111/11111/21/111}
 Group   2 Type Fe  : 19s5p5d3f3g contracted to 8s5p5d2f3g pattern {121111111/11111/11111/21/111}

Atom   0Au   basis set group =>   1
Atom   1Au   basis set group =>   1
Atom   2Au   basis set group =>   1
Atom   3Au   basis set group =>   1
Atom   4Au   basis set group =>   1
Atom   5Au   basis set group =>   1
Atom   6Au   basis set group =>   1
Atom   7Au   basis set group =>   1
Atom   8Au   basis set group =>   1
Atom   9Au   basis set group =>   1
Atom  10Au   basis set group =>   1
Atom  11Au   basis set group =>   1
Atom  12Fe   basis set group =>   2
-------------------------
ECP PARAMETER INFORMATION
-------------------------

 Group 1, Type Au ECP Def2-ECP (replacing 60 core electrons, lmax=3)

Atom   0Au   ECP group =>   1
Atom   1Au   ECP group =>   1
Atom   2Au   ECP group =>   1
Atom   3Au   ECP group =>   1
Atom   4Au   ECP group =>   1
Atom   5Au   ECP group =>   1
Atom   6Au   ECP group =>   1
Atom   7Au   ECP group =>   1
Atom   8Au   ECP group =>   1
Atom   9Au   ECP group =>   1
Atom  10Au   ECP group =>   1
Atom  11Au   ECP group =>   1



           ************************************************************
           *        Program running with 6 parallel MPI-processes     *
           *              working on a common directory               *
           ************************************************************
------------------------------------------------------------------------------
                           ORCA GTO INTEGRAL CALCULATION
                           -- RI-GTO INTEGRALS CHOSEN --
------------------------------------------------------------------------------
------------------------------------------------------------------------------
                   ___                                                        
                  /   \      - P O W E R E D   B Y -                         
                 /     \                                                     
                 |  |  |   _    _      __       _____    __    __             
                 |  |  |  | |  | |    /  \     |  _  \  |  |  /  |          
                  \  \/   | |  | |   /    \    | | | |  |  | /  /          
                 / \  \   | |__| |  /  /\  \   | |_| |  |  |/  /          
                |  |  |   |  __  | /  /__\  \  |    /   |      \           
                |  |  |   | |  | | |   __   |  |    \   |  |\   \          
                \     /   | |  | | |  |  |  |  | |\  \  |  | \   \       
                 \___/    |_|  |_| |__|  |__|  |_| \__\ |__|  \__/        
                                                                              
                      - O R C A' S   B I G   F R I E N D -                    
                                      &                                       
                       - I N T E G R A L  F E E D E R -                       
                                                                              
 v1 FN, 2020, v2 2021                                                         
------------------------------------------------------------------------------


Reading SHARK input file scan.SHARKINP.tmp ... ok
----------------------
SHARK INTEGRAL PACKAGE
----------------------

Number of atoms                             ...     13
Number of basis functions                   ...    525
Number of shells                            ...    183
Maximum angular momentum                    ...      3
Integral batch strategy                     ... SHARK/LIBINT Hybrid
RI-J (if used) integral strategy            ... SPLIT-RIJ (Revised 2003 algorithm where possible)
Printlevel                                  ...      1
Contraction scheme used                     ... SEGMENTED contraction
Coulomb Range Separation                    ... NOT USED
Exchange Range Separation                   ... NOT USED
Finite Nucleus Model                        ... NOT USED
Auxiliary Coulomb fitting basis             ... AVAILABLE
   # of basis functions in Aux-J            ...   1157
   # of shells in Aux-J                     ...    299
   Maximum angular momentum in Aux-J        ...      4
Auxiliary J/K fitting basis                 ... NOT available
Auxiliary Correlation fitting basis         ... NOT available
Auxiliary 'external' fitting basis          ... NOT available
Integral threshold                          ...     1.000000e-10
Primitive cut-off                           ...     1.000000e-11
Primitive pair pre-selection threshold      ...     1.000000e-11

Calculating pre-screening integrals         ... done (  0.2 sec) Dimension = 183
Organizing shell pair data                  ... done (  0.5 sec)
Shell pair information
Total number of shell pairs                 ...     16836
Shell pairs after pre-screening             ...     13596
Total number of primitive shell pairs       ...     45389
Primitive shell pairs kept                  ...     26757
          la=0 lb=0:   2138 shell pairs
          la=1 lb=0:   3110 shell pairs
          la=1 lb=1:   1161 shell pairs
          la=2 lb=0:   2712 shell pairs
          la=2 lb=1:   1890 shell pairs
          la=2 lb=2:    783 shell pairs
          la=3 lb=0:    710 shell pairs
          la=3 lb=1:    545 shell pairs
          la=3 lb=2:    472 shell pairs
          la=3 lb=3:     75 shell pairs

Calculating one electron integrals          ... done (  0.1 sec)
Calculating ECP integrals                   ... done ( 14.0 sec)
Calculating RI/J V-Matrix + Cholesky decomp.... done (  0.1 sec)
Calculating Nuclear repulsion               ... done (  0.0 sec) ENN=   4362.866747077052 Eh

SHARK setup successfully completed in  15.6 seconds

Maximum memory used throughout the entire GTOINT-calculation: 30.6 MB


           ************************************************************
           *        Program running with 6 parallel MPI-processes     *
           *              working on a common directory               *
           ************************************************************
-------------------------------------------------------------------------------
                                 ORCA SCF
-------------------------------------------------------------------------------

------------
SCF SETTINGS
------------
Hamiltonian:
 Density Functional     Method          .... DFT(GTOs)
  Functional kind                       .... Exchange
  Functional name                       .... Re-regularized SCAN exchange by Furness et al
  Functional family                     .... MGGA
  Functional refs                              
    [ 0] J. W. Furness, A. D. Kaplan, J. Ning, J. P. Perdew, and J. Sun, J. Phys. Chem. Lett. 11, 8208 (2020)
    [ 1] J. W. Furness, A. D. Kaplan, J. Ning, J. P. Perdew, and J. Sun, J. Phys. Chem. Lett. 11, 9248 (2020)
  Functional external parameters         .... 8
 Parameter  0 :         c1 parameter
 Parameter  1 :         c2 parameter
 Parameter  2 :          d parameter
 Parameter  3 :         k1 parameter
 Parameter  4 :       taur parameter
 Parameter  5 :     alphar parameter
 Parameter  6 :        eta parameter
 Parameter  7 :        dp2 parameter
  Functional kind                       .... Correlation
  Functional name                       .... Re-regularized SCAN correlation by Furness et al
  Functional family                     .... MGGA
  Functional refs                              
    [ 0] J. W. Furness, A. D. Kaplan, J. Ning, J. P. Perdew, and J. Sun, J. Phys. Chem. Lett. 11, 8208 (2020)
    [ 1] J. W. Furness, A. D. Kaplan, J. Ning, J. P. Perdew, and J. Sun, J. Phys. Chem. Lett. 11, 9248 (2020)
  Functional external parameters         .... 0
 Gradients option       PostSCFGGA      .... off
   Density functional embedding theory  .... OFF
   NL short-range parameter             .... 12.300000
 RI-approximation to the Coulomb term is turned on
   Number of AuxJ basis functions       .... 1157


General Settings:
 Integral files         IntName         .... scan
 Hartree-Fock type      HFTyp           .... UHF
 Total Charge           Charge          ....    0
 Multiplicity           Mult            ....    5
 Number of Electrons    NEL             ....  254
 Basis Dimension        Dim             ....  525
 Nuclear Repulsion      ENuc            ....   4362.8667470771 Eh

Convergence Acceleration:
 DIIS                   CNVDIIS         .... off
 Trust-Rad. Augm. Hess. CNVTRAH         .... auto
   Auto Start mean grad. ratio tolernc. ....  1.125000
   Auto Start start iteration           ....   200
   Auto Start num. interpolation iter.  ....    10
   Max. Number of Micro iterations      ....    16
   Max. Number of Macro iterations      .... Maxiter - #DIIS iter
   Number of Davidson start vectors     ....     2
   Converg. threshold I  (grad. norm)   ....   5.000e-05
   Converg. threshold II (energy diff.) ....   1.000e-06
   Grad. Scal. Fac. for Micro threshold ....   0.100
   Minimum threshold for Micro iter.    ....   0.010
   NR start threshold (gradient norm)   ....   0.001
   Initial trust radius                 ....   0.400
   Minimum AH scaling param. (alpha)    ....   1.000
   Maximum AH scaling param. (alpha)    .... 1000.000
   Orbital update algorithm             .... Taylor
   White noise on init. David. guess    .... on
   Maximum white noise                  ....   0.010
   Quad. conv. algorithm                .... NR
 SOSCF                  CNVSOSCF        .... off
 Level Shifting         CNVShift        .... off
 Zerner damping         CNVZerner       .... off
 Static damping         CNVDamp         .... off
 Fernandez-Rico         CNVRico         .... off

SCF Procedure:
 Maximum # iterations   MaxIter         ....   400
 SCF integral mode      SCFMode         .... Direct
   Integral package                     .... SHARK and LIBINT hybrid scheme
 Reset frequency        DirectResetFreq ....    20
 Integral Threshold     Thresh          ....  1.000e-10 Eh
 Primitive CutOff       TCut            ....  1.000e-11 Eh

Convergence Tolerance:
 Convergence Check Mode ConvCheckMode   .... All-Criteria
 Convergence forced     ConvForced      .... 0
 Energy Change          TolE            ....  1.000e-06 Eh
 Max Density Change     TolMaxP         ....  1.000e-05
 RMS Density Change     TolRMSP         ....  1.000e-06


Diagonalization of the overlap matrix:
Smallest eigenvalue                        ... 4.776e-04
Time for diagonalization                   ...    0.109 sec
Threshold for overlap eigenvalues          ... 1.000e-08
Number of eigenvalues below threshold      ... 0
Time for construction of square roots      ...    0.078 sec
Total time needed                          ...    0.189 sec

Time for model grid setup =    0.777 sec

------------------------------
INITIAL GUESS: MODEL POTENTIAL
------------------------------
Loading Hartree-Fock densities                     ... done
  calling /home/ehlert/src/miniconda3/envs/orca500/Programs/ORCA501/orca scan_atom79.inp > scan_atom79.out in order to generate an atomic fitting density for atom 0 (Au with ECP) on-the-fly... 
    atom 0 (Au), assumed electronic state with S=2: 1s2 2s2 2p6 3s2 3p6 4s2 3d10 4p6 5s2 4d10 5p6 6s1 4f14 5d10           ... done
Calculating cut-offs                               ... done
Initializing the effective Hamiltonian             ... done
Setting up the integral package (SHARK)            ... done
Starting the Coulomb interaction                   ... done (   0.7 sec)
Reading the grid                                   ... done
Mapping shells                                     ... done
Starting the XC term evaluation                    ... done (   0.7 sec)
  promolecular density results
     # of electrons  =    974.013530809
     EX              =  -4443.964108952
     EC              =    -59.270758968
     EX+EC           =  -4503.234867919
Transforming the Hamiltonian                       ... done (   0.1 sec)
Diagonalizing the Hamiltonian                      ... done (   0.1 sec)
Back transforming the eigenvectors                 ... done (   0.0 sec)
Now organizing SCF variables                       ... done
                      ------------------
                      INITIAL GUESS DONE (   3.5 sec)
                      ------------------
-------------------
DFT GRID GENERATION
-------------------

General Integration Accuracy     IntAcc      ... 4.388
Radial Grid Type                 RadialGrid  ... OptM3 with GC (2021)
Angular Grid (max. ang.)         AngularGrid ... 4 (Lebedev-302)
Angular grid pruning method      GridPruning ... 4 (adaptive)
Weight generation scheme         WeightScheme... Becke
Basis function cutoff            BFCut       ... 1.0000e-10
Integration weight cutoff        WCut        ... 1.0000e-14
Angular grids for H and He will be reduced by one unit
Partially contracted basis set               ... off
Rotationally invariant grid construction     ... off

Total number of grid points                  ...   144871
Total number of batches                      ...     2271
Average number of points per batch           ...       63
Average number of grid points per atom       ...    11144
Time for grid setup =    2.489 sec

--------------
SCF ITERATIONS
--------------
ITER       Energy         Delta-E        Max-DP      RMS-DP      [F,P]   Gradient Norm
               ***  Starting incremental Fock matrix formation  ***
                             ****Resetting KDIIS****
                             ****Turning on KDIIS(Cayley)****
  0  -2890.7257936678   0.000000000000 0.32858908  0.00192183  0.3231783   0.253778709
  1  -2892.7211641936  -1.995370525784 0.51700145  0.00186331  0.2806837   0.171319577
  2  -2893.3147606993  -0.593596505710 0.14204610  0.00128441  0.2220730   0.128008674
  3  -2893.5847617308  -0.270001031482 0.15610303  0.00163242  0.1300276   0.075966251
  4  -2893.6827317612  -0.097970030421 0.04311786  0.00056807  0.0276185   0.024096218
  5  -2893.7382097908  -0.055478029565 0.25216507  0.00091791  0.0205548   0.011767977
  6  -2893.7761112720  -0.037901481295 0.06460032  0.00067382  0.0295123   0.012538094
  7  -2893.8068473489  -0.030736076854 0.02117931  0.00029551  0.0103935   0.006971891
  8  -2893.8152567495  -0.008409400567 0.02315620  0.00024983  0.0093965   0.006822289
  9  -2893.8246182518  -0.009361502292 0.01683709  0.00024395  0.0085534   0.003802645
 10  -2893.8314293641  -0.006811112317 0.01710545  0.00026790  0.0054136   0.003545761
 11  -2893.8369774984  -0.005548134276 0.00705414  0.00011043  0.0041156   0.002484638
 12  -2893.8384745326  -0.001497034221 0.01850283  0.00007936  0.0040761   0.001834337
 13  -2893.8388299073  -0.000355374735 0.01124014  0.00008677  0.0043631   0.002195209
 14  -2893.8400895558  -0.001259648510 0.00411226  0.00006627  0.0039859   0.001176376
 15  -2893.8406777359  -0.000588180084 0.00643026  0.00004532  0.0039264   0.001237912
 16  -2893.8409350578  -0.000257321885 0.00746007  0.00004354  0.0040102   0.001215461
 17  -2893.8412806378  -0.000345580016 0.00263989  0.00003749  0.0039219   0.000973959
 18  -2893.8416772607  -0.000396622887 0.00632319  0.00003839  0.0039243   0.000808585
 19  -2893.8420184660  -0.000341205283 0.00450071  0.00002700  0.0037872   0.000870769
               *** Restarting incremental Fock matrix formation ***
                             ****Resetting KDIIS****
 20  -2893.8422080558  -0.000189589862 0.00039192  0.00000554  0.0037959   0.000727597
 21  -2893.8422849465  -0.000076890680 0.00070639  0.00000977  0.0037919   0.000585009
 22  -2893.8423911131  -0.000106166616 0.00150121  0.00002229  0.0037722   0.000563277
 23  -2893.8426373528  -0.000246239689 0.02503314  0.00034755  0.0037355   0.000545718
 24  -2893.8457388195  -0.003101466690 0.00343588  0.00004060  0.0023633   0.000928401
 25  -2893.8460788569  -0.000340037411 0.00297618  0.00003643  0.0024003   0.000704718
 26  -2893.8463437213  -0.000264864334 0.00350371  0.00003359  0.0022939   0.000522817
 27  -2893.8466256108  -0.000281889569 0.00502965  0.00005302  0.0023717   0.000463507
 28  -2893.8469858104  -0.000360199555 0.02293773  0.00023811  0.0020016   0.000473968
 29  -2893.8483092879  -0.001323477562 0.00431038  0.00004127  0.0017480   0.000839887
 30  -2893.8485204245  -0.000211136544 0.00636697  0.00008114  0.0015055   0.000603064
 31  -2893.8482982966   0.000222127931 0.01043615  0.00012157  0.0016076   0.000696937
 32  -2893.8487431721  -0.000444875499 0.00744454  0.00006637  0.0010392   0.000445362
 33  -2893.8488798815  -0.000136709472 0.00223824  0.00003439  0.0010474   0.000573642
 34  -2893.8488941020  -0.000014220497 0.00239132  0.00002058  0.0006238   0.000309268
 35  -2893.8489396423  -0.000045540277 0.00210950  0.00001747  0.0011270   0.000680755
 36  -2893.8489103455   0.000029296848 0.00213774  0.00001868  0.0005141   0.000239335
 37  -2893.8489541441  -0.000043798675 0.00064325  0.00000731  0.0005149   0.000214282
 38  -2893.8489571525  -0.000003008364 0.00158489  0.00001573  0.0006896   0.000209037
 39  -2893.8489848495  -0.000027697010 0.00059970  0.00000585  0.0005131   0.000199903
               *** Restarting incremental Fock matrix formation ***
                             ****Resetting KDIIS****
 40  -2893.8489869241  -0.000002074558 0.00011373  0.00000127  0.0005122   0.000158072
 41  -2893.8489897030  -0.000002778895 0.00016625  0.00000171  0.0005194   0.000123239
 42  -2893.8489928879  -0.000003184924 0.00065232  0.00000577  0.0005108   0.000113382
 43  -2893.8490066453  -0.000013757386 0.00443172  0.00004281  0.0005767   0.000121839
 44  -2893.8490548168  -0.000048171516 0.00238453  0.00002132  0.0002784   0.000187500
 45  -2893.8490784926  -0.000023675856 0.00039861  0.00000562  0.0003039   0.000066484
 46  -2893.8490816964  -0.000003203741 0.00066677  0.00000580  0.0002947   0.000089645
 47  -2893.8490861057  -0.000004409372 0.00144525  0.00001234  0.0002778   0.000044261
 48  -2893.8490917021  -0.000005596343 0.00275890  0.00002285  0.0001633   0.000072529
 49  -2893.8490998689  -0.000008166806 0.00052283  0.00000453  0.0000905   0.000035056
 50  -2893.8491023012  -0.000002432326 0.00026262  0.00000212  0.0001005   0.000037006
 51  -2893.8491005039   0.000001797284 0.00043758  0.00000362  0.0000666   0.000041442
 52  -2893.8491028452  -0.000002341290 0.00032601  0.00000422  0.0000719   0.000024057
                          ***Energy convergence achieved***
 53  -2893.8491031627  -0.000000317472 0.00052821  0.00000540  0.0000510   0.000031531

            ***Energy convergence in two consecutive cycles with***
                    ***'reasonable' density convergence***
                       *** signaling convergence ***

                    *** KDIIS BlockDiag ( 0.176 sec) ***

               *****************************************************
               *                     SUCCESS                       *
               *           SCF CONVERGED AFTER  54 CYCLES          *
               *****************************************************


----------------
TOTAL SCF ENERGY
----------------

Total Energy       :        -2893.84910370 Eh          -78745.63746 eV

Components:
Nuclear Repulsion  :         4362.86674708 Eh          118719.63978 eV
Electronic Energy  :        -7256.71585077 Eh         -197465.27724 eV
One Electron Energy:       -13328.64778538 Eh         -362690.94509 eV
Two Electron Energy:         6071.93193460 Eh          165225.66785 eV

Virial components:
Potential Energy   :        -4706.09778647 Eh         -128059.43119 eV
Kinetic Energy     :         1812.24868277 Eh           49313.79372 eV
Virial Ratio       :            2.59682781


DFT components:
N(Alpha)           :      129.000034886810 electrons
N(Beta)            :      125.000039214467 electrons
N(Total)           :      254.000074101277 electrons
E(X)               :     -200.205989253410 Eh       
E(C)               :      -10.559291624071 Eh       
E(XC)              :     -210.765280877481 Eh       
DFET-embed. en.    :        0.000000000000 Eh       

---------------
SCF CONVERGENCE
---------------

  Last Energy change         ...   -5.3411e-07  Tolerance :   1.0000e-06
  Last MAX-Density change    ...    9.3568e-05  Tolerance :   1.0000e-05
  Last RMS-Density change    ...    1.3225e-06  Tolerance :   1.0000e-06

             **** THE GBW FILE WAS UPDATED (scan.gbw) ****
             **** DENSITY scan.scfp WAS UPDATED ****
             **** ENERGY FILE WAS UPDATED (scan.en.tmp) ****
----------------------
UHF SPIN CONTAMINATION
----------------------

Warning: in a DFT calculation there is little theoretical justification to 
         calculate <S**2> as in Hartree-Fock theory. We will do it anyways
         but you should keep in mind that the values have only limited relevance

Expectation value of <S**2>     :     6.291773
Ideal value S*(S+1) for S=2.0   :     6.000000
Deviation                       :     0.291773

             **** THE GBW FILE WAS UPDATED (scan.gbw) ****
             **** DENSITY scan.scfp WAS UPDATED ****
----------------
ORBITAL ENERGIES
----------------
                 SPIN UP ORBITALS
  NO   OCC          E(Eh)            E(eV) 
   0   1.0000    -255.651169     -6956.6220 
   1   1.0000     -29.954163      -815.0942 
   2   1.0000     -25.788360      -701.7369 
   3   1.0000     -25.783001      -701.5911 
   4   1.0000     -25.780152      -701.5136 
   5   1.0000      -4.126490      -112.2875 
   6   1.0000      -4.120959      -112.1370 
   7   1.0000      -4.118828      -112.0790 
   8   1.0000      -4.118163      -112.0609 
   9   1.0000      -4.117083      -112.0315 
  10   1.0000      -4.115274      -111.9823 
  11   1.0000      -4.115046      -111.9761 
  12   1.0000      -4.112472      -111.9061 
  13   1.0000      -4.112055      -111.8947 
  14   1.0000      -4.111324      -111.8748 
  15   1.0000      -4.109955      -111.8376 
  16   1.0000      -4.107814      -111.7793 
  17   1.0000      -3.535151       -96.1964 
  18   1.0000      -2.318026       -63.0767 
  19   1.0000      -2.312721       -62.9323 
  20   1.0000      -2.310726       -62.8780 
  21   1.0000      -2.310034       -62.8592 
  22   1.0000      -2.308704       -62.8230 
  23   1.0000      -2.308448       -62.8161 
  24   1.0000      -2.308152       -62.8080 
  25   1.0000      -2.307261       -62.7838 
  26   1.0000      -2.306929       -62.7747 
  27   1.0000      -2.305650       -62.7399 
  28   1.0000      -2.305467       -62.7349 
  29   1.0000      -2.304220       -62.7010 
  30   1.0000      -2.303748       -62.6882 
  31   1.0000      -2.303499       -62.6814 
  32   1.0000      -2.303117       -62.6710 
  33   1.0000      -2.302641       -62.6581 
  34   1.0000      -2.302312       -62.6491 
  35   1.0000      -2.301466       -62.6261 
  36   1.0000      -2.300673       -62.6045 
  37   1.0000      -2.300406       -62.5972 
  38   1.0000      -2.299915       -62.5839 
  39   1.0000      -2.299613       -62.5756 
  40   1.0000      -2.298556       -62.5469 
  41   1.0000      -2.298381       -62.5421 
  42   1.0000      -2.298051       -62.5332 
  43   1.0000      -2.297709       -62.5238 
  44   1.0000      -2.297246       -62.5112 
  45   1.0000      -2.296215       -62.4832 
  46   1.0000      -2.295783       -62.4714 
  47   1.0000      -2.295679       -62.4686 
  48   1.0000      -2.295618       -62.4670 
  49   1.0000      -2.295329       -62.4591 
  50   1.0000      -2.294892       -62.4472 
  51   1.0000      -2.294643       -62.4404 
  52   1.0000      -2.292492       -62.3819 
  53   1.0000      -2.292266       -62.3757 
  54   1.0000      -2.291149       -62.3453 
  55   1.0000      -2.290326       -62.3229 
  56   1.0000      -2.288079       -62.2618 
  57   1.0000      -0.436079       -11.8663 
  58   1.0000      -0.399388       -10.8679 
  59   1.0000      -0.394791       -10.7428 
  60   1.0000      -0.391408       -10.6508 
  61   1.0000      -0.387387       -10.5413 
  62   1.0000      -0.385052       -10.4778 
  63   1.0000      -0.379817       -10.3354 
  64   1.0000      -0.375801       -10.2261 
  65   1.0000      -0.365063        -9.9339 
  66   1.0000      -0.363943        -9.9034 
  67   1.0000      -0.357614        -9.7312 
  68   1.0000      -0.356329        -9.6962 
  69   1.0000      -0.355089        -9.6625 
  70   1.0000      -0.348688        -9.4883 
  71   1.0000      -0.346428        -9.4268 
  72   1.0000      -0.346049        -9.4165 
  73   1.0000      -0.345379        -9.3982 
  74   1.0000      -0.342401        -9.3172 
  75   1.0000      -0.341064        -9.2808 
  76   1.0000      -0.340168        -9.2564 
  77   1.0000      -0.337818        -9.1925 
  78   1.0000      -0.336499        -9.1566 
  79   1.0000      -0.331384        -9.0174 
  80   1.0000      -0.329339        -8.9618 
  81   1.0000      -0.328509        -8.9392 
  82   1.0000      -0.324433        -8.8283 
  83   1.0000      -0.319326        -8.6893 
  84   1.0000      -0.316698        -8.6178 
  85   1.0000      -0.312741        -8.5101 
  86   1.0000      -0.308113        -8.3842 
  87   1.0000      -0.303592        -8.2612 
  88   1.0000      -0.301640        -8.2080 
  89   1.0000      -0.300904        -8.1880 
  90   1.0000      -0.297470        -8.0946 
  91   1.0000      -0.295620        -8.0442 
  92   1.0000      -0.294955        -8.0261 
  93   1.0000      -0.293600        -7.9893 
  94   1.0000      -0.291288        -7.9264 
  95   1.0000      -0.290347        -7.9007 
  96   1.0000      -0.287385        -7.8201 
  97   1.0000      -0.285986        -7.7821 
  98   1.0000      -0.283982        -7.7275 
  99   1.0000      -0.281433        -7.6582 
 100   1.0000      -0.279877        -7.6158 
 101   1.0000      -0.278473        -7.5776 
 102   1.0000      -0.277379        -7.5479 
 103   1.0000      -0.276563        -7.5257 
 104   1.0000      -0.275537        -7.4978 
 105   1.0000      -0.274696        -7.4749 
 106   1.0000      -0.272799        -7.4232 
 107   1.0000      -0.270681        -7.3656 
 108   1.0000      -0.270157        -7.3513 
 109   1.0000      -0.268191        -7.2978 
 110   1.0000      -0.266969        -7.2646 
 111   1.0000      -0.265898        -7.2355 
 112   1.0000      -0.265303        -7.2193 
 113   1.0000      -0.263883        -7.1806 
 114   1.0000      -0.263570        -7.1721 
 115   1.0000      -0.261754        -7.1227 
 116   1.0000      -0.260515        -7.0890 
 117   1.0000      -0.259027        -7.0485 
 118   1.0000      -0.258729        -7.0404 
 119   1.0000      -0.255241        -6.9455 
 120   1.0000      -0.254531        -6.9261 
 121   1.0000      -0.247897        -6.7456 
 122   1.0000      -0.245612        -6.6834 
 123   1.0000      -0.244288        -6.6474 
 124   1.0000      -0.241909        -6.5827 
 125   1.0000      -0.239310        -6.5119 
 126   1.0000      -0.223410        -6.0793 
 127   1.0000      -0.196394        -5.3441 
 128   1.0000      -0.186030        -5.0621 
 129   0.0000      -0.165181        -4.4948 
 130   0.0000      -0.141841        -3.8597 
 131   0.0000      -0.132146        -3.5959 
 132   0.0000      -0.130651        -3.5552 
 133   0.0000      -0.111349        -3.0300 
 134   0.0000      -0.100132        -2.7247 
 135   0.0000      -0.058546        -1.5931 
 136   0.0000      -0.054214        -1.4752 
 137   0.0000      -0.052005        -1.4151 
 138   0.0000      -0.046471        -1.2645 
 139   0.0000      -0.044870        -1.2210 
 140   0.0000      -0.034196        -0.9305 
 141   0.0000      -0.024212        -0.6588 
 142   0.0000      -0.018996        -0.5169 
 143   0.0000      -0.009807        -0.2668 
 144   0.0000      -0.000871        -0.0237 
 145   0.0000       0.010927         0.2974 
 146   0.0000       0.022069         0.6005 
 147   0.0000       0.039385         1.0717 
 148   0.0000       0.047467         1.2917 
 149   0.0000       0.050342         1.3699 
 150   0.0000       0.057975         1.5776 
 151   0.0000       0.059269         1.6128 
 152   0.0000       0.064257         1.7485 
 153   0.0000       0.064727         1.7613 
 154   0.0000       0.071375         1.9422 
 155   0.0000       0.073928         2.0117 
 156   0.0000       0.077999         2.1225 
 157   0.0000       0.081902         2.2287 
 158   0.0000       0.086759         2.3608 
 159   0.0000       0.089281         2.4295 
 160   0.0000       0.092808         2.5254 
 161   0.0000       0.101281         2.7560 
 162   0.0000       0.106829         2.9070 
 163   0.0000       0.113068         3.0767 
 164   0.0000       0.115514         3.1433 
 165   0.0000       0.132277         3.5994 
 166   0.0000       0.134791         3.6678 
 167   0.0000       0.143684         3.9098 
 168   0.0000       0.152411         4.1473 
 169   0.0000       0.157554         4.2873 
 170   0.0000       0.162304         4.4165 
 171   0.0000       0.165278         4.4974 
 172   0.0000       0.167670         4.5625 
 173   0.0000       0.174611         4.7514 
 174   0.0000       0.184678         5.0253 
 175   0.0000       0.187165         5.0930 
 176   0.0000       0.193017         5.2523 
 177   0.0000       0.197030         5.3615 
 178   0.0000       0.198195         5.3932 
 179   0.0000       0.212193         5.7741 
 180   0.0000       0.214226         5.8294 
 181   0.0000       0.223003         6.0682 
 182   0.0000       0.230555         6.2737 
 183   0.0000       0.233874         6.3640 
 184   0.0000       0.235986         6.4215 
 185   0.0000       0.250158         6.8071 
 186   0.0000       0.251516         6.8441 
 187   0.0000       0.254074         6.9137 
 188   0.0000       0.259181         7.0527 
 189   0.0000       0.265520         7.2252 
 190   0.0000       0.270002         7.3471 
 191   0.0000       0.275962         7.5093 
 192   0.0000       0.279248         7.5987 
 193   0.0000       0.292194         7.9510 
 194   0.0000       0.292306         7.9540 
 195   0.0000       0.298466         8.1217 
 196   0.0000       0.302796         8.2395 
 197   0.0000       0.304881         8.2962 
 198   0.0000       0.309120         8.4116 
 199   0.0000       0.314020         8.5449 
 200   0.0000       0.317173         8.6307 
 201   0.0000       0.322199         8.7675 
 202   0.0000       0.327106         8.9010 
 203   0.0000       0.333913         9.0862 
 204   0.0000       0.341562         9.2944 
 205   0.0000       0.345126         9.3913 
 206   0.0000       0.346667         9.4333 
 207   0.0000       0.350517         9.5381 
 208   0.0000       0.356202         9.6928 
 209   0.0000       0.362925         9.8757 
 210   0.0000       0.369064        10.0427 
 211   0.0000       0.371323        10.1042 
 212   0.0000       0.375353        10.2139 
 213   0.0000       0.384463        10.4618 
 214   0.0000       0.386767        10.5245 
 215   0.0000       0.396808        10.7977 
 216   0.0000       0.398511        10.8440 
 217   0.0000       0.408010        11.1025 
 218   0.0000       0.410895        11.1810 
 219   0.0000       0.413458        11.2508 
 220   0.0000       0.426810        11.6141 
 221   0.0000       0.428056        11.6480 
 222   0.0000       0.435829        11.8595 
 223   0.0000       0.443474        12.0675 
 224   0.0000       0.446872        12.1600 
 225   0.0000       0.454377        12.3642 
 226   0.0000       0.455993        12.4082 
 227   0.0000       0.464912        12.6509 
 228   0.0000       0.465506        12.6671 
 229   0.0000       0.468639        12.7523 
 230   0.0000       0.473039        12.8720 
 231   0.0000       0.476379        12.9629 
 232   0.0000       0.490624        13.3506 
 233   0.0000       0.502685        13.6788 
 234   0.0000       0.507022        13.7968 
 235   0.0000       0.508798        13.8451 
 236   0.0000       0.513864        13.9830 
 237   0.0000       0.517257        14.0753 
 238   0.0000       0.519429        14.1344 
 239   0.0000       0.522498        14.2179 
 240   0.0000       0.524029        14.2596 
 241   0.0000       0.526645        14.3307 
 242   0.0000       0.531571        14.4648 
 243   0.0000       0.539887        14.6911 
 244   0.0000       0.542295        14.7566 
 245   0.0000       0.552180        15.0256 
 246   0.0000       0.557282        15.1644 
 247   0.0000       0.564560        15.3625 
 248   0.0000       0.571792        15.5592 
 249   0.0000       0.582466        15.8497 
 250   0.0000       0.587209        15.9788 
 251   0.0000       0.601219        16.3600 
 252   0.0000       0.617394        16.8002 
 253   0.0000       0.622669        16.9437 
 254   0.0000       0.651236        17.7210 
 255   0.0000       0.672708        18.3053 
 256   0.0000       0.692793        18.8519 
 257   0.0000       0.707502        19.2521 
 258   0.0000       0.711599        19.3636 
 259   0.0000       0.715406        19.4672 
 260   0.0000       0.721729        19.6392 
 261   0.0000       0.734835        19.9959 
 262   0.0000       0.749566        20.3967 
 263   0.0000       0.753717        20.5097 
 264   0.0000       0.764961        20.8157 
 265   0.0000       0.784132        21.3373 
 266   0.0000       0.792784        21.5727 
 267   0.0000       0.804512        21.8919 
 268   0.0000       0.817060        22.2333 
 269   0.0000       0.825241        22.4560 
 270   0.0000       0.837980        22.8026 
 271   0.0000       0.848851        23.0984 
 272   0.0000       0.873210        23.7612 
 273   0.0000       0.881971        23.9997 
 274   0.0000       0.899070        24.4649 
 275   0.0000       0.916911        24.9504 
 276   0.0000       0.921142        25.0656 
 277   0.0000       0.939123        25.5548 
 278   0.0000       0.954373        25.9698 
 279   0.0000       0.957086        26.0436 
 280   0.0000       0.961796        26.1718 
 281   0.0000       0.972204        26.4550 
 282   0.0000       0.983445        26.7609 
 283   0.0000       0.987266        26.8649 
 284   0.0000       0.995015        27.0757 
 285   0.0000       1.025691        27.9105 
 286   0.0000       1.040452        28.3121 
 287   0.0000       1.083705        29.4891 
 288   0.0000       1.128432        30.7062 
 289   0.0000       1.143581        31.1184 
 290   0.0000       1.165651        31.7190 
 291   0.0000       1.223777        33.3007 
 292   0.0000       1.237326        33.6693 
 293   0.0000       1.252419        34.0801 
 294   0.0000       1.270566        34.5739 
 295   0.0000       1.280227        34.8367 
 296   0.0000       1.307452        35.5776 
 297   0.0000       1.313656        35.7464 
 298   0.0000       1.327663        36.1276 
 299   0.0000       1.337245        36.3883 
 300   0.0000       1.347853        36.6769 
 301   0.0000       1.364709        37.1356 
 302   0.0000       1.377591        37.4862 
 303   0.0000       1.385409        37.6989 
 304   0.0000       1.388744        37.7896 
 305   0.0000       1.402955        38.1764 
 306   0.0000       1.407516        38.3005 
 307   0.0000       1.411733        38.4152 
 308   0.0000       1.421867        38.6910 
 309   0.0000       1.425448        38.7884 
 310   0.0000       1.440235        39.1908 
 311   0.0000       1.443737        39.2861 
 312   0.0000       1.450049        39.4578 
 313   0.0000       1.455280        39.6002 
 314   0.0000       1.456698        39.6388 
 315   0.0000       1.461402        39.7668 
 316   0.0000       1.463209        39.8159 
 317   0.0000       1.467474        39.9320 
 318   0.0000       1.471948        40.0537 
 319   0.0000       1.476280        40.1716 
 320   0.0000       1.482979        40.3539 
 321   0.0000       1.489010        40.5180 
 322   0.0000       1.495360        40.6908 
 323   0.0000       1.498487        40.7759 
 324   0.0000       1.501665        40.8624 
 325   0.0000       1.507467        41.0203 
 326   0.0000       1.508162        41.0392 
 327   0.0000       1.512228        41.1498 
 328   0.0000       1.519619        41.3509 
 329   0.0000       1.522361        41.4255 
 330   0.0000       1.522912        41.4405 
 331   0.0000       1.528368        41.5890 
 332   0.0000       1.533474        41.7279 
 333   0.0000       1.535878        41.7934 
 334   0.0000       1.538532        41.8656 
 335   0.0000       1.541627        41.9498 
 336   0.0000       1.543334        41.9962 
 337   0.0000       1.544690        42.0332 
 338   0.0000       1.546170        42.0734 
 339   0.0000       1.547846        42.1190 
 340   0.0000       1.549255        42.1574 
 341   0.0000       1.550196        42.1830 
 342   0.0000       1.553615        42.2760 
 343   0.0000       1.555461        42.3263 
 344   0.0000       1.556008        42.3411 
 345   0.0000       1.558314        42.4039 
 346   0.0000       1.561395        42.4877 
 347   0.0000       1.562979        42.5308 
 348   0.0000       1.563666        42.5495 
 349   0.0000       1.564598        42.5749 
 350   0.0000       1.565619        42.6027 
 351   0.0000       1.568472        42.6803 
 352   0.0000       1.570155        42.7261 
 353   0.0000       1.570869        42.7455 
 354   0.0000       1.573353        42.8131 
 355   0.0000       1.574536        42.8453 
 356   0.0000       1.578259        42.9466 
 357   0.0000       1.579790        42.9883 
 358   0.0000       1.580275        43.0015 
 359   0.0000       1.581605        43.0376 
 360   0.0000       1.583860        43.0990 
 361   0.0000       1.585011        43.1303 
 362   0.0000       1.588238        43.2182 
 363   0.0000       1.590158        43.2704 
 364   0.0000       1.592355        43.3302 
 365   0.0000       1.593921        43.3728 
 366   0.0000       1.594303        43.3832 
 367   0.0000       1.598734        43.5038 
 368   0.0000       1.600120        43.5415 
 369   0.0000       1.602799        43.6144 
 370   0.0000       1.603907        43.6445 
 371   0.0000       1.605232        43.6806 
 372   0.0000       1.607559        43.7439 
 373   0.0000       1.610764        43.8311 
 374   0.0000       1.612763        43.8855 
 375   0.0000       1.614195        43.9245 
 376   0.0000       1.616102        43.9764 
 377   0.0000       1.616899        43.9980 
 378   0.0000       1.618104        44.0308 
 379   0.0000       1.619272        44.0626 
 380   0.0000       1.623366        44.1740 
 381   0.0000       1.626046        44.2470 
 382   0.0000       1.630535        44.3691 
 383   0.0000       1.632362        44.4188 
 384   0.0000       1.633974        44.4627 
 385   0.0000       1.635223        44.4967 
 386   0.0000       1.638280        44.5799 
 387   0.0000       1.644670        44.7537 
 388   0.0000       1.647300        44.8253 
 389   0.0000       1.651943        44.9517 
 390   0.0000       1.653146        44.9844 
 391   0.0000       1.655428        45.0465 
 392   0.0000       1.658090        45.1189 
 393   0.0000       1.663395        45.2633 
 394   0.0000       1.667219        45.3673 
 395   0.0000       1.670293        45.4510 
 396   0.0000       1.670752        45.4635 
 397   0.0000       1.675797        45.6007 
 398   0.0000       1.678724        45.6804 
 399   0.0000       1.680301        45.7233 
 400   0.0000       1.680518        45.7292 
 401   0.0000       1.682870        45.7932 
 402   0.0000       1.691832        46.0371 
 403   0.0000       1.694718        46.1156 
 404   0.0000       1.700749        46.2797 
 405   0.0000       1.707303        46.4581 
 406   0.0000       1.713306        46.6214 
 407   0.0000       1.720734        46.8235 
 408   0.0000       1.730149        47.0797 
 409   0.0000       1.736038        47.2400 
 410   0.0000       1.741611        47.3916 
 411   0.0000       1.744275        47.4641 
 412   0.0000       1.754421        47.7402 
 413   0.0000       1.761562        47.9345 
 414   0.0000       1.768353        48.1193 
 415   0.0000       1.786877        48.6234 
 416   0.0000       1.796398        48.8825 
 417   0.0000       1.802986        49.0618 
 418   0.0000       1.810571        49.2681 
 419   0.0000       1.820845        49.5477 
 420   0.0000       1.840395        50.0797 
 421   0.0000       1.851041        50.3694 
 422   0.0000       1.866457        50.7889 
 423   0.0000       1.871492        50.9259 
 424   0.0000       1.878501        51.1166 
 425   0.0000       1.893579        51.5269 
 426   0.0000       1.899638        51.6918 
 427   0.0000       1.907808        51.9141 
 428   0.0000       1.931725        52.5649 
 429   0.0000       1.952553        53.1317 
 430   0.0000       1.955046        53.1995 
 431   0.0000       1.992614        54.2218 
 432   0.0000       1.998716        54.3878 
 433   0.0000       2.016136        54.8618 
 434   0.0000       2.036139        55.4061 
 435   0.0000       2.070652        56.3453 
 436   0.0000       2.143311        58.3225 
 437   0.0000       2.220084        60.4115 
 438   0.0000       2.328505        63.3618 
 439   0.0000       2.359978        64.2183 
 440   0.0000       2.372113        64.5485 
 441   0.0000       2.417385        65.7804 
 442   0.0000       2.478922        67.4549 
 443   0.0000       2.505912        68.1893 
 444   0.0000       2.543137        69.2023 
 445   0.0000       2.548058        69.3362 
 446   0.0000       2.552045        69.4447 
 447   0.0000       2.584203        70.3197 
 448   0.0000       2.591629        70.5218 
 449   0.0000       2.611663        71.0669 
 450   0.0000       2.642268        71.8998 
 451   0.0000       2.654118        72.2222 
 452   0.0000       3.284071        89.3641 
 453   0.0000       3.617501        98.4372 
 454   0.0000       3.687585       100.3443 
 455   0.0000       3.718776       101.1930 
 456   0.0000       3.757792       102.2547 
 457   0.0000       3.804907       103.5368 
 458   0.0000       3.971601       108.0728 
 459   0.0000       3.975312       108.1738 
 460   0.0000       3.979087       108.2765 
 461   0.0000       3.985674       108.4557 
 462   0.0000       3.992048       108.6292 
 463   0.0000       3.995496       108.7230 
 464   0.0000       4.001086       108.8751 
 465   0.0000      23.947338       651.6402 
 466   0.0000      24.005629       653.2264 
 467   0.0000      24.158392       657.3833 
 468   0.0000      24.298867       661.2058 
 469   0.0000      24.695441       671.9971 
 470   0.0000      24.769796       674.0204 
 471   0.0000      24.841278       675.9655 
 472   0.0000      25.039551       681.3608 
 473   0.0000      25.205640       685.8803 
 474   0.0000      25.430842       692.0084 
 475   0.0000      25.596389       696.5131 
 476   0.0000      25.604597       696.7365 
 477   0.0000      25.794046       701.8917 
 478   0.0000      25.838865       703.1113 
 479   0.0000      26.200551       712.9532 
 480   0.0000      26.288205       715.3384 
 481   0.0000      26.514650       721.5003 
 482   0.0000      26.614014       724.2041 
 483   0.0000      26.675196       725.8690 
 484   0.0000      26.704459       726.6653 
 485   0.0000      26.805850       729.4243 
 486   0.0000      26.922235       732.5913 
 487   0.0000      26.972809       733.9675 
 488   0.0000      27.215855       740.5811 
 489   0.0000      27.367291       744.7018 
 490   0.0000      27.520364       748.8672 
 491   0.0000      27.670645       752.9565 
 492   0.0000      28.083974       764.2038 
 493   0.0000      28.194846       767.2208 
 494   0.0000      28.230083       768.1796 
 495   0.0000      28.403227       772.8911 
 496   0.0000      28.545098       776.7516 
 497   0.0000      28.853702       785.1491 
 498   0.0000      29.064295       790.8797 
 499   0.0000      29.634653       806.3999 
 500   0.0000      30.805945       838.2724 
 501   0.0000      44.344356      1206.6713 
 502   0.0000      44.486560      1210.5408 
 503   0.0000      44.509501      1211.1651 
 504   0.0000      44.531523      1211.7643 
 505   0.0000      44.569422      1212.7956 
 506   0.0000      44.614804      1214.0305 
 507   0.0000      44.627517      1214.3765 
 508   0.0000      44.641467      1214.7561 
 509   0.0000      44.643700      1214.8168 
 510   0.0000      44.656828      1215.1741 
 511   0.0000      44.696903      1216.2646 
 512   0.0000      44.727641      1217.1010 
 513   0.0000     205.236395      5584.7662 
 514   0.0000     205.293326      5586.3154 
 515   0.0000     205.300884      5586.5211 
 516   0.0000     205.308627      5586.7318 
 517   0.0000     205.325442      5587.1893 
 518   0.0000     205.346915      5587.7736 
 519   0.0000     205.353244      5587.9459 
 520   0.0000     205.357416      5588.0594 
 521   0.0000     205.360688      5588.1484 
 522   0.0000     205.362551      5588.1991 
 523   0.0000     205.379034      5588.6476 
 524   0.0000     205.388552      5588.9066 

                 SPIN DOWN ORBITALS
  NO   OCC          E(Eh)            E(eV) 
   0   1.0000    -255.650117     -6956.5933 
   1   1.0000     -29.871670      -812.8495 
   2   1.0000     -25.722342      -699.9405 
   3   1.0000     -25.720848      -699.8998 
   4   1.0000     -25.719566      -699.8650 
   5   1.0000      -4.125777      -112.2681 
   6   1.0000      -4.120652      -112.1287 
   7   1.0000      -4.118833      -112.0791 
   8   1.0000      -4.117094      -112.0318 
   9   1.0000      -4.116679      -112.0205 
  10   1.0000      -4.114138      -111.9514 
  11   1.0000      -4.113836      -111.9432 
  12   1.0000      -4.111964      -111.8922 
  13   1.0000      -4.111837      -111.8888 
  14   1.0000      -4.110529      -111.8532 
  15   1.0000      -4.108179      -111.7892 
  16   1.0000      -4.107617      -111.7739 
  17   1.0000      -3.356022       -91.3220 
  18   1.0000      -2.316838       -63.0444 
  19   1.0000      -2.311122       -62.8888 
  20   1.0000      -2.309361       -62.8409 
  21   1.0000      -2.308188       -62.8090 
  22   1.0000      -2.307782       -62.7979 
  23   1.0000      -2.307312       -62.7852 
  24   1.0000      -2.306607       -62.7660 
  25   1.0000      -2.305822       -62.7446 
  26   1.0000      -2.305158       -62.7265 
  27   1.0000      -2.304179       -62.6999 
  28   1.0000      -2.303691       -62.6866 
  29   1.0000      -2.303315       -62.6764 
  30   1.0000      -2.303171       -62.6725 
  31   1.0000      -2.302030       -62.6414 
  32   1.0000      -2.301739       -62.6335 
  33   1.0000      -2.301051       -62.6148 
  34   1.0000      -2.300890       -62.6104 
  35   1.0000      -2.299935       -62.5844 
  36   1.0000      -2.299712       -62.5783 
  37   1.0000      -2.299102       -62.5617 
  38   1.0000      -2.298612       -62.5484 
  39   1.0000      -2.297916       -62.5295 
  40   1.0000      -2.297621       -62.5214 
  41   1.0000      -2.297177       -62.5094 
  42   1.0000      -2.295922       -62.4752 
  43   1.0000      -2.295733       -62.4701 
  44   1.0000      -2.295549       -62.4651 
  45   1.0000      -2.295074       -62.4521 
  46   1.0000      -2.294718       -62.4424 
  47   1.0000      -2.294381       -62.4333 
  48   1.0000      -2.293990       -62.4226 
  49   1.0000      -2.293672       -62.4140 
  50   1.0000      -2.292175       -62.3733 
  51   1.0000      -2.291933       -62.3667 
  52   1.0000      -2.290146       -62.3180 
  53   1.0000      -2.286779       -62.2264 
  54   1.0000      -2.124932       -57.8223 
  55   1.0000      -2.122632       -57.7598 
  56   1.0000      -2.120553       -57.7032 
  57   1.0000      -0.432198       -11.7607 
  58   1.0000      -0.393542       -10.7088 
  59   1.0000      -0.390544       -10.6272 
  60   1.0000      -0.383466       -10.4347 
  61   1.0000      -0.380243       -10.3469 
  62   1.0000      -0.373679       -10.1683 
  63   1.0000      -0.368480       -10.0268 
  64   1.0000      -0.364027        -9.9057 
  65   1.0000      -0.359979        -9.7955 
  66   1.0000      -0.357714        -9.7339 
  67   1.0000      -0.354470        -9.6456 
  68   1.0000      -0.352241        -9.5850 
  69   1.0000      -0.349517        -9.5108 
  70   1.0000      -0.346449        -9.4274 
  71   1.0000      -0.343715        -9.3530 
  72   1.0000      -0.340181        -9.2568 
  73   1.0000      -0.339898        -9.2491 
  74   1.0000      -0.338064        -9.1992 
  75   1.0000      -0.334798        -9.1103 
  76   1.0000      -0.332713        -9.0536 
  77   1.0000      -0.331177        -9.0118 
  78   1.0000      -0.329906        -8.9772 
  79   1.0000      -0.324854        -8.8397 
  80   1.0000      -0.321238        -8.7413 
  81   1.0000      -0.317565        -8.6414 
  82   1.0000      -0.314973        -8.5708 
  83   1.0000      -0.314122        -8.5477 
  84   1.0000      -0.311170        -8.4674 
  85   1.0000      -0.306338        -8.3359 
  86   1.0000      -0.301042        -8.1918 
  87   1.0000      -0.300335        -8.1725 
  88   1.0000      -0.299194        -8.1415 
  89   1.0000      -0.296969        -8.0809 
  90   1.0000      -0.295125        -8.0308 
  91   1.0000      -0.291049        -7.9199 
  92   1.0000      -0.289513        -7.8781 
  93   1.0000      -0.289165        -7.8686 
  94   1.0000      -0.284939        -7.7536 
  95   1.0000      -0.284139        -7.7318 
  96   1.0000      -0.282155        -7.6778 
  97   1.0000      -0.279851        -7.6151 
  98   1.0000      -0.278573        -7.5804 
  99   1.0000      -0.277406        -7.5486 
 100   1.0000      -0.276781        -7.5316 
 101   1.0000      -0.275524        -7.4974 
 102   1.0000      -0.273804        -7.4506 
 103   1.0000      -0.273445        -7.4408 
 104   1.0000      -0.270904        -7.3717 
 105   1.0000      -0.269188        -7.3250 
 106   1.0000      -0.267631        -7.2826 
 107   1.0000      -0.265646        -7.2286 
 108   1.0000      -0.264615        -7.2005 
 109   1.0000      -0.263262        -7.1637 
 110   1.0000      -0.261713        -7.1216 
 111   1.0000      -0.260270        -7.0823 
 112   1.0000      -0.259937        -7.0733 
 113   1.0000      -0.259461        -7.0603 
 114   1.0000      -0.256773        -6.9872 
 115   1.0000      -0.254438        -6.9236 
 116   1.0000      -0.248946        -6.7742 
 117   1.0000      -0.246735        -6.7140 
 118   1.0000      -0.244062        -6.6413 
 119   1.0000      -0.241720        -6.5775 
 120   1.0000      -0.239410        -6.5147 
 121   1.0000      -0.226830        -6.1724 
 122   1.0000      -0.205028        -5.5791 
 123   1.0000      -0.199801        -5.4369 
 124   1.0000      -0.193138        -5.2556 
 125   0.0000      -0.158113        -4.3025 
 126   0.0000      -0.156967        -4.2713 
 127   0.0000      -0.152186        -4.1412 
 128   0.0000      -0.150809        -4.1037 
 129   0.0000      -0.147631        -4.0172 
 130   0.0000      -0.127290        -3.4637 
 131   0.0000      -0.125190        -3.4066 
 132   0.0000      -0.119577        -3.2539 
 133   0.0000      -0.108314        -2.9474 
 134   0.0000      -0.091167        -2.4808 
 135   0.0000      -0.055051        -1.4980 
 136   0.0000      -0.050031        -1.3614 
 137   0.0000      -0.048603        -1.3226 
 138   0.0000      -0.042802        -1.1647 
 139   0.0000      -0.040667        -1.1066 
 140   0.0000      -0.031855        -0.8668 
 141   0.0000      -0.019331        -0.5260 
 142   0.0000      -0.015910        -0.4329 
 143   0.0000      -0.006973        -0.1897 
 144   0.0000       0.003494         0.0951 
 145   0.0000       0.015612         0.4248 
 146   0.0000       0.027400         0.7456 
 147   0.0000       0.041761         1.1364 
 148   0.0000       0.049578         1.3491 
 149   0.0000       0.053370         1.4523 
 150   0.0000       0.058918         1.6033 
 151   0.0000       0.060965         1.6590 
 152   0.0000       0.065780         1.7900 
 153   0.0000       0.066485         1.8092 
 154   0.0000       0.072660         1.9772 
 155   0.0000       0.075177         2.0457 
 156   0.0000       0.080906         2.2016 
 157   0.0000       0.082952         2.2573 
 158   0.0000       0.087654         2.3852 
 159   0.0000       0.090852         2.4722 
 160   0.0000       0.093946         2.5564 
 161   0.0000       0.102848         2.7986 
 162   0.0000       0.107981         2.9383 
 163   0.0000       0.115508         3.1431 
 164   0.0000       0.117659         3.2017 
 165   0.0000       0.134112         3.6494 
 166   0.0000       0.135881         3.6975 
 167   0.0000       0.145317         3.9543 
 168   0.0000       0.152949         4.1620 
 169   0.0000       0.162475         4.4212 
 170   0.0000       0.164216         4.4686 
 171   0.0000       0.168664         4.5896 
 172   0.0000       0.170353         4.6355 
 173   0.0000       0.178864         4.8671 
 174   0.0000       0.190758         5.1908 
 175   0.0000       0.193535         5.2663 
 176   0.0000       0.199242         5.4216 
 177   0.0000       0.201875         5.4933 
 178   0.0000       0.205326         5.5872 
 179   0.0000       0.215565         5.8658 
 180   0.0000       0.218873         5.9558 
 181   0.0000       0.228872         6.2279 
 182   0.0000       0.231921         6.3109 
 183   0.0000       0.235398         6.4055 
 184   0.0000       0.242089         6.5876 
 185   0.0000       0.250696         6.8218 
 186   0.0000       0.252452         6.8696 
 187   0.0000       0.255823         6.9613 
 188   0.0000       0.260029         7.0757 
 189   0.0000       0.266336         7.2474 
 190   0.0000       0.270697         7.3660 
 191   0.0000       0.276913         7.5352 
 192   0.0000       0.279616         7.6087 
 193   0.0000       0.292722         7.9654 
 194   0.0000       0.292996         7.9728 
 195   0.0000       0.299634         8.1535 
 196   0.0000       0.304192         8.2775 
 197   0.0000       0.306229         8.3329 
 198   0.0000       0.310306         8.4439 
 199   0.0000       0.315151         8.5757 
 200   0.0000       0.318693         8.6721 
 201   0.0000       0.323525         8.8036 
 202   0.0000       0.328299         8.9335 
 203   0.0000       0.334354         9.0982 
 204   0.0000       0.343046         9.3348 
 205   0.0000       0.346314         9.4237 
 206   0.0000       0.348012         9.4699 
 207   0.0000       0.351373         9.5613 
 208   0.0000       0.357401         9.7254 
 209   0.0000       0.364340         9.9142 
 210   0.0000       0.370379        10.0785 
 211   0.0000       0.372462        10.1352 
 212   0.0000       0.377277        10.2662 
 213   0.0000       0.386325        10.5124 
 214   0.0000       0.388206        10.5636 
 215   0.0000       0.397799        10.8246 
 216   0.0000       0.400241        10.8911 
 217   0.0000       0.410541        11.1714 
 218   0.0000       0.412168        11.2157 
 219   0.0000       0.415544        11.3075 
 220   0.0000       0.429128        11.6772 
 221   0.0000       0.429471        11.6865 
 222   0.0000       0.438199        11.9240 
 223   0.0000       0.445530        12.1235 
 224   0.0000       0.448945        12.2164 
 225   0.0000       0.456148        12.4124 
 226   0.0000       0.457878        12.4595 
 227   0.0000       0.465936        12.6788 
 228   0.0000       0.466915        12.7054 
 229   0.0000       0.470039        12.7904 
 230   0.0000       0.474318        12.9068 
 231   0.0000       0.478702        13.0262 
 232   0.0000       0.492507        13.4018 
 233   0.0000       0.504130        13.7181 
 234   0.0000       0.510816        13.9000 
 235   0.0000       0.511658        13.9229 
 236   0.0000       0.516221        14.0471 
 237   0.0000       0.519983        14.1494 
 238   0.0000       0.522621        14.2212 
 239   0.0000       0.524718        14.2783 
 240   0.0000       0.525501        14.2996 
 241   0.0000       0.529370        14.4049 
 242   0.0000       0.533174        14.5084 
 243   0.0000       0.541840        14.7442 
 244   0.0000       0.544083        14.8053 
 245   0.0000       0.553754        15.0684 
 246   0.0000       0.560504        15.2521 
 247   0.0000       0.568216        15.4619 
 248   0.0000       0.574086        15.6217 
 249   0.0000       0.586133        15.9495 
 250   0.0000       0.589484        16.0407 
 251   0.0000       0.602600        16.3976 
 252   0.0000       0.621211        16.9040 
 253   0.0000       0.631590        17.1864 
 254   0.0000       0.655832        17.8461 
 255   0.0000       0.679690        18.4953 
 256   0.0000       0.696823        18.9615 
 257   0.0000       0.712772        19.3955 
 258   0.0000       0.715911        19.4809 
 259   0.0000       0.719678        19.5834 
 260   0.0000       0.725924        19.7534 
 261   0.0000       0.736806        20.0495 
 262   0.0000       0.751832        20.4584 
 263   0.0000       0.755683        20.5632 
 264   0.0000       0.768109        20.9013 
 265   0.0000       0.789861        21.4932 
 266   0.0000       0.795948        21.6588 
 267   0.0000       0.807681        21.9781 
 268   0.0000       0.820387        22.3239 
 269   0.0000       0.826529        22.4910 
 270   0.0000       0.841142        22.8886 
 271   0.0000       0.849571        23.1180 
 272   0.0000       0.876870        23.8609 
 273   0.0000       0.885595        24.0983 
 274   0.0000       0.900786        24.5116 
 275   0.0000       0.921437        25.0736 
 276   0.0000       0.925374        25.1807 
 277   0.0000       0.948357        25.8061 
 278   0.0000       0.959582        26.1116 
 279   0.0000       0.967667        26.3316 
 280   0.0000       0.973962        26.5029 
 281   0.0000       0.987777        26.8788 
 282   0.0000       0.998128        27.1604 
 283   0.0000       1.002533        27.2803 
 284   0.0000       1.012799        27.5597 
 285   0.0000       1.040246        28.3065 
 286   0.0000       1.051555        28.6143 
 287   0.0000       1.090649        29.6781 
 288   0.0000       1.132600        30.8196 
 289   0.0000       1.144379        31.1401 
 290   0.0000       1.167081        31.7579 
 291   0.0000       1.227021        33.3889 
 292   0.0000       1.239217        33.7208 
 293   0.0000       1.253958        34.1219 
 294   0.0000       1.271992        34.6127 
 295   0.0000       1.281282        34.8655 
 296   0.0000       1.309105        35.6225 
 297   0.0000       1.314898        35.7802 
 298   0.0000       1.329316        36.1725 
 299   0.0000       1.338355        36.4185 
 300   0.0000       1.350068        36.7372 
 301   0.0000       1.365908        37.1683 
 302   0.0000       1.378900        37.5218 
 303   0.0000       1.387152        37.7463 
 304   0.0000       1.390672        37.8421 
 305   0.0000       1.404123        38.2081 
 306   0.0000       1.409026        38.3415 
 307   0.0000       1.413366        38.4596 
 308   0.0000       1.422609        38.7112 
 309   0.0000       1.426185        38.8085 
 310   0.0000       1.442459        39.2513 
 311   0.0000       1.445031        39.3213 
 312   0.0000       1.451585        39.4996 
 313   0.0000       1.456042        39.6209 
 314   0.0000       1.460922        39.7537 
 315   0.0000       1.462814        39.8052 
 316   0.0000       1.466989        39.9188 
 317   0.0000       1.468522        39.9605 
 318   0.0000       1.472884        40.0792 
 319   0.0000       1.477424        40.2027 
 320   0.0000       1.484319        40.3904 
 321   0.0000       1.492881        40.6234 
 322   0.0000       1.497273        40.7429 
 323   0.0000       1.499968        40.8162 
 324   0.0000       1.503051        40.9001 
 325   0.0000       1.508671        41.0530 
 326   0.0000       1.511373        41.1265 
 327   0.0000       1.515184        41.2303 
 328   0.0000       1.521449        41.4007 
[...]
----------------------------------------------------
CHARGE
  0 Aus       :     2.546541  s :     2.546541
      pz      :     2.106192  p :     6.540356
      px      :     2.256957
      py      :     2.177206
      dz2     :     1.972745  d :     9.910492
      dxz     :     2.003986
      dyz     :     1.975945
      dx2y2   :     1.971843
      dxy     :     1.985972
      f0      :     0.000676  f :     0.006130
      f+1     :     0.000888
      f-1     :     0.000703
      f+2     :     0.000718
      f-2     :     0.001042
      f+3     :     0.001106
      f-3     :     0.000996
  1 Aus       :     2.676113  s :     2.676113
      pz      :     2.082354  p :     6.385560
      px      :     2.056325
      py      :     2.246881
      dz2     :     1.959193  d :     9.820277
      dxz     :     1.957833
      dyz     :     1.968797
      dx2y2   :     1.973691
      dxy     :     1.960763
      f0      :     0.000575  f :     0.005342
      f+1     :     0.000612
      f-1     :     0.000918
      f+2     :     0.000904
      f-2     :     0.000850
      f+3     :     0.000749
      f-3     :     0.000735
  2 Aus       :     2.639888  s :     2.639888
      pz      :     2.207662  p :     6.478057
      px      :     2.122164
      py      :     2.148231
      dz2     :     1.976408  d :     9.858782
      dxz     :     1.988852
      dyz     :     1.962678
      dx2y2   :     1.968507
      dxy     :     1.962337
      f0      :     0.000677  f :     0.005759
      f+1     :     0.000597
      f-1     :     0.001183
      f+2     :     0.000944
      f-2     :     0.001100
      f+3     :     0.000622
      f-3     :     0.000636
  3 Aus       :     2.816004  s :     2.816004
      pz      :     2.071926  p :     6.255911
      px      :     2.086039
      py      :     2.097946
      dz2     :     1.978920  d :     9.857807
      dxz     :     1.964962
      dyz     :     1.967117
      dx2y2   :     1.983970
      dxy     :     1.962838
      f0      :     0.000467  f :     0.004318
      f+1     :     0.000413
      f-1     :     0.000667
      f+2     :     0.000511
      f-2     :     0.000874
      f+3     :     0.000797
      f-3     :     0.000589
  4 Aus       :     2.591807  s :     2.591807
      pz      :     2.122980  p :     6.533001
      px      :     2.152066
      py      :     2.257955
      dz2     :     1.976560  d :     9.875203
      dxz     :     1.981381
      dyz     :     1.965974
      dx2y2   :     1.991779
      dxy     :     1.959509
      f0      :     0.000817  f :     0.006398
      f+1     :     0.000345
      f-1     :     0.000743
      f+2     :     0.001123
      f-2     :     0.000993
      f+3     :     0.001230
      f-3     :     0.001148
  5 Aus       :     2.783984  s :     2.783984
      pz      :     2.072298  p :     6.239578
      px      :     2.083549
      py      :     2.083731
      dz2     :     1.981538  d :     9.867351
      dxz     :     1.960658
      dyz     :     1.974417
      dx2y2   :     1.980115
      dxy     :     1.970623
      f0      :     0.000473  f :     0.004361
      f+1     :     0.000605
      f-1     :     0.000506
      f+2     :     0.000721
      f-2     :     0.000647
      f+3     :     0.000604
      f-3     :     0.000805
  6 Aus       :     2.565922  s :     2.565922
      pz      :     2.168824  p :     6.543520
      px      :     2.089251
      py      :     2.285445
      dz2     :     1.972834  d :     9.867911
      dxz     :     1.986209
      dyz     :     1.976790
      dx2y2   :     1.948882
      dxy     :     1.983196
      f0      :     0.000866  f :     0.006550
      f+1     :     0.000707
      f-1     :     0.000758
      f+2     :     0.001297
      f-2     :     0.000664
      f+3     :     0.001015
      f-3     :     0.001243
  7 Aus       :     2.523636  s :     2.523636
      pz      :     2.129534  p :     6.473348
      px      :     2.177828
      py      :     2.165986
      dz2     :     1.984878  d :     9.918435
      dxz     :     1.963685
      dyz     :     1.990643
      dx2y2   :     1.989266
      dxy     :     1.989964
      f0      :     0.000779  f :     0.005585
      f+1     :     0.001021
      f-1     :     0.000720
      f+2     :     0.000754
      f-2     :     0.000698
      f+3     :     0.000829
      f-3     :     0.000784
  8 Aus       :     2.576893  s :     2.576893
      pz      :     2.105645  p :     6.530477
      px      :     2.149417
      py      :     2.275415
      dz2     :     1.969302  d :     9.893903
      dxz     :     1.989656
      dyz     :     1.972992
      dx2y2   :     1.986193
      dxy     :     1.975760
      f0      :     0.000780  f :     0.005968
      f+1     :     0.000452
      f-1     :     0.001000
      f+2     :     0.000644
      f-2     :     0.000648
      f+3     :     0.001418
      f-3     :     0.001024
  9 Aus       :     2.584327  s :     2.584327
      pz      :     2.145810  p :     6.463400
      px      :     2.134335
      py      :     2.183256
      dz2     :     1.988088  d :     9.855323
      dxz     :     1.952900
      dyz     :     1.970394
      dx2y2   :     1.974125
      dxy     :     1.969816
      f0      :     0.000979  f :     0.005644
      f+1     :     0.000715
      f-1     :     0.000860
      f+2     :     0.000611
      f-2     :     0.000756
      f+3     :     0.000932
      f-3     :     0.000791
 10 Aus       :     2.614844  s :     2.614844
      pz      :     2.198799  p :     6.424710
      px      :     2.099741
      py      :     2.126169
      dz2     :     1.968998  d :     9.888404
      dxz     :     1.982889
      dyz     :     1.984080
      dx2y2   :     1.983177
      dxy     :     1.969260
      f0      :     0.000862  f :     0.005295
      f+1     :     0.000824
      f-1     :     0.000623
      f+2     :     0.000986
      f-2     :     0.000674
      f+3     :     0.000628
      f-3     :     0.000698
 11 Aus       :     2.524318  s :     2.524318
      pz      :     2.203081  p :     6.573441
      px      :     2.247174
      py      :     2.123185
      dz2     :     1.985987  d :     9.934537
      dxz     :     1.998586
      dyz     :     1.987816
      dx2y2   :     1.964267
      dxy     :     1.997880
      f0      :     0.000746  f :     0.005720
      f+1     :     0.000840
      f-1     :     0.000578
      f+2     :     0.000902
      f-2     :     0.001103
      f+3     :     0.000755
      f-3     :     0.000797
 12 Fes       :     6.294303  s :     6.294303
      pz      :     4.209889  p :    12.615704
      px      :     4.204509
      py      :     4.201307
      dz2     :     1.422468  d :     7.588259
      dxz     :     1.645978
      dyz     :     1.383644
      dx2y2   :     1.548215
      dxy     :     1.587954
      f0      :     0.000061  f :     0.000604
      f+1     :     0.000104
      f-1     :     0.000094
      f+2     :     0.000086
      f-2     :     0.000089
      f+3     :     0.000088
      f-3     :     0.000082

SPIN
  0 Aus       :    -0.094960  s :    -0.094960
      pz      :    -0.017051  p :    -0.030292
      px      :    -0.015724
      py      :     0.002483
      dz2     :     0.007013  d :     0.011880
      dxz     :    -0.000691
      dyz     :     0.004364
      dx2y2   :     0.000159
      dxy     :     0.001035
      f0      :     0.000012  f :     0.000047
      f+1     :    -0.000033
      f-1     :     0.000075
      f+2     :     0.000027
      f-2     :    -0.000019
      f+3     :    -0.000001
      f-3     :    -0.000014
  1 Aus       :    -0.004232  s :    -0.004232
      pz      :    -0.016126  p :    -0.060206
      px      :     0.000378
      py      :    -0.044458
      dz2     :     0.013594  d :     0.021753
      dxz     :     0.008460
      dyz     :     0.007883
      dx2y2   :     0.003614
      dxy     :    -0.011799
      f0      :     0.000045  f :     0.000212
      f+1     :     0.000086
      f-1     :     0.000042
      f+2     :    -0.000012
      f-2     :     0.000039
      f+3     :     0.000018
      f-3     :    -0.000006
  2 Aus       :    -0.072766  s :    -0.072766
      pz      :    -0.007654  p :    -0.006634
      px      :     0.002158
      py      :    -0.001139
      dz2     :    -0.001333  d :     0.016985
      dxz     :    -0.002362
      dyz     :     0.001017
      dx2y2   :     0.009770
      dxy     :     0.009893
      f0      :     0.000027  f :     0.000158
      f+1     :    -0.000021
      f-1     :     0.000047
      f+2     :     0.000018
      f-2     :    -0.000013
      f+3     :     0.000062
      f-3     :     0.000038
  3 Aus       :    -0.047456  s :    -0.047456
      pz      :    -0.022538  p :    -0.031931
      px      :     0.003764
      py      :    -0.013157
      dz2     :    -0.003529  d :    -0.028783
      dxz     :    -0.008744
      dyz     :    -0.011726
      dx2y2   :    -0.004492
      dxy     :    -0.000292
      f0      :    -0.000006  f :    -0.000080
      f+1     :    -0.000009
      f-1     :    -0.000009
      f+2     :     0.000004
      f-2     :    -0.000050
      f+3     :    -0.000001
      f-3     :    -0.000010
  4 Aus       :     0.005601  s :     0.005601
      pz      :    -0.030581  p :    -0.031789
      px      :     0.002271
      py      :    -0.003479
      dz2     :    -0.002320  d :    -0.018697
      dxz     :    -0.003251
      dyz     :    -0.008932
      dx2y2   :    -0.005842
      dxy     :     0.001648
      f0      :    -0.000021  f :    -0.000055
      f+1     :     0.000003
      f-1     :    -0.000009
      f+2     :    -0.000047
      f-2     :     0.000036
      f+3     :     0.000025
      f-3     :    -0.000042
  5 Aus       :     0.005790  s :     0.005790
      pz      :    -0.024741  p :    -0.036370
      px      :    -0.007137
      py      :    -0.004492
      dz2     :    -0.008340  d :    -0.032454
      dxz     :    -0.016434
      dyz     :    -0.001332
      dx2y2   :    -0.003194
      dxy     :    -0.003153
      f0      :    -0.000014  f :    -0.000127
      f+1     :    -0.000044
      f-1     :    -0.000011
      f+2     :    -0.000022
      f-2     :    -0.000011
      f+3     :    -0.000003
      f-3     :    -0.000022
  6 Aus       :    -0.041681  s :    -0.041681
      pz      :    -0.024402  p :    -0.034605
      px      :    -0.006035
      py      :    -0.004167
      dz2     :    -0.008458  d :    -0.011773
      dxz     :     0.001581
      dyz     :    -0.011526
      dx2y2   :     0.004435
      dxy     :     0.002196
      f0      :    -0.000004  f :     0.000067
      f+1     :    -0.000031
      f-1     :    -0.000002
      f+2     :     0.000044
      f-2     :    -0.000004
      f+3     :     0.000019
      f-3     :     0.000044
  7 Aus       :    -0.088222  s :    -0.088222
      pz      :    -0.016070  p :    -0.051065
      px      :    -0.004538
      py      :    -0.030457
      dz2     :     0.005649  d :    -0.008349
      dxz     :     0.004026
      dyz     :    -0.001728
      dx2y2   :    -0.006146
      dxy     :    -0.010150
      f0      :    -0.000004  f :     0.000006
      f+1     :    -0.000020
      f-1     :     0.000002
      f+2     :     0.000019
      f-2     :     0.000028
      f+3     :    -0.000007
      f-3     :    -0.000012
  8 Aus       :    -0.071730  s :    -0.071730
      pz      :    -0.019203  p :    -0.047622
      px      :    -0.023058
      py      :    -0.005360
      dz2     :     0.002130  d :    -0.003048
      dxz     :     0.002459
      dyz     :     0.004119
      dx2y2   :    -0.002844
      dxy     :    -0.008911
      f0      :     0.000015  f :    -0.000043
      f+1     :    -0.000027
      f-1     :     0.000079
      f+2     :    -0.000008
      f-2     :     0.000008
      f+3     :    -0.000093
      f-3     :    -0.000017
  9 Aus       :    -0.044336  s :    -0.044336
      pz      :    -0.011154  p :    -0.088369
      px      :    -0.038687
      py      :    -0.038529
      dz2     :     0.000298  d :    -0.002186
      dxz     :     0.011562
      dyz     :     0.005740
      dx2y2   :    -0.008557
      dxy     :    -0.011229
      f0      :    -0.000038  f :     0.000111
      f+1     :     0.000069
      f-1     :     0.000019
      f+2     :     0.000007
      f-2     :     0.000037
      f+3     :    -0.000011
      f-3     :     0.000027
 10 Aus       :     0.016236  s :     0.016236
      pz      :    -0.046108  p :    -0.048563
      px      :    -0.004358
      py      :     0.001903
      dz2     :     0.001882  d :    -0.016113
      dxz     :    -0.015469
      dyz     :    -0.009116
      dx2y2   :     0.005945
      dxy     :     0.000646
      f0      :    -0.000007  f :    -0.000116
      f+1     :    -0.000050
      f-1     :    -0.000017
      f+2     :    -0.000033
      f-2     :    -0.000006
      f+3     :     0.000028
      f-3     :    -0.000032
 11 Aus       :    -0.094554  s :    -0.094554
      pz      :    -0.013633  p :    -0.016848
      px      :    -0.003419
      py      :     0.000205
      dz2     :    -0.006310  d :    -0.007973
      dxz     :    -0.005653
      dyz     :     0.002812
      dx2y2   :     0.003811
      dxy     :    -0.002632
      f0      :     0.000001  f :     0.000002
      f+1     :    -0.000000
      f-1     :     0.000008
      f+2     :     0.000009
      f-2     :    -0.000041
      f+3     :     0.000003
      f-3     :     0.000023
 12 Fes       :     0.011964  s :     0.011964
      pz      :     0.007306  p :     0.018730
      px      :     0.007116
      py      :     0.004307
      dz2     :     0.687099  d :     3.064476
      dxz     :     0.456102
      dyz     :     0.742433
      dx2y2   :     0.576635
      dxy     :     0.602207
      f0      :     0.000008  f :     0.000009
      f+1     :    -0.000002
      f-1     :     0.000005
      f+2     :     0.000003
      f-2     :    -0.000005
      f+3     :     0.000004
      f-3     :    -0.000003


                      *****************************
                      * MAYER POPULATION ANALYSIS *
                      *****************************

  NA   - Mulliken gross atomic population
  ZA   - Total nuclear charge
  QA   - Mulliken gross atomic charge
  VA   - Mayer's total valence
  BVA  - Mayer's bonded valence
  FA   - Mayer's free valence

  ATOM       NA         ZA         QA         VA         BVA        FA
  0 Au    18.9206    19.0000     0.0794     1.7526     1.7107     0.0419
  1 Au    18.7600    19.0000     0.2400     1.5640     1.5592     0.0049
  2 Au    18.9344    19.0000     0.0656     1.6584     1.6298     0.0286
  3 Au    18.6946    19.0000     0.3054     1.4285     1.4176     0.0108
  4 Au    18.9536    19.0000     0.0464     1.8189     1.8146     0.0043
  5 Au    18.6535    19.0000     0.3465     1.3906     1.3887     0.0019
  6 Au    18.9756    19.0000     0.0244     1.9479     1.9343     0.0136
  7 Au    18.7559    19.0000     0.2441     1.4915     1.4546     0.0369
  8 Au    18.9437    19.0000     0.0563     1.7493     1.7200     0.0293
  9 Au    18.6967    19.0000     0.3033     1.5825     1.5626     0.0199
 10 Au    18.8038    19.0000     0.1962     1.4520     1.4473     0.0047
 11 Au    19.0057    19.0000    -0.0057     1.8335     1.7836     0.0499
 12 Fe    27.9019    26.0000    -1.9019     7.4798     4.8113     2.6684

  Mayer bond orders larger than 0.100000
B(  0-Au,  1-Au) :   0.2954 B(  0-Au,  5-Au) :   0.3664 B(  0-Au,  6-Au) :   0.1474 
B(  0-Au, 10-Au) :   0.2290 B(  0-Au, 11-Au) :   0.1426 B(  0-Au, 12-Fe) :   0.3701 
B(  1-Au,  2-Au) :   0.3538 B(  1-Au, 12-Fe) :   0.5905 B(  2-Au,  3-Au) :   0.2969 
B(  2-Au,  8-Au) :   0.1709 B(  2-Au, 12-Fe) :   0.5304 B(  3-Au,  4-Au) :   0.4020 
B(  3-Au,  8-Au) :   0.3202 B(  4-Au,  6-Au) :   0.4920 B(  4-Au,  7-Au) :   0.1256 
B(  4-Au,  8-Au) :   0.1257 B(  4-Au, 12-Fe) :   0.4246 B(  5-Au,  6-Au) :   0.3926 
B(  5-Au, 11-Au) :   0.2961 B(  6-Au,  7-Au) :   0.1184 B(  6-Au, 11-Au) :   0.1429 
B(  6-Au, 12-Fe) :   0.4880 B(  7-Au,  8-Au) :   0.1701 B(  7-Au,  9-Au) :   0.1029 
B(  7-Au, 11-Au) :   0.1941 B(  7-Au, 12-Fe) :   0.5896 B(  8-Au,  9-Au) :   0.3666 
B(  8-Au, 12-Fe) :   0.3941 B(  9-Au, 10-Au) :   0.1999 B(  9-Au, 11-Au) :   0.2033 
B(  9-Au, 12-Fe) :   0.4582 B( 10-Au, 11-Au) :   0.2595 B( 10-Au, 12-Fe) :   0.4452 
B( 11-Au, 12-Fe) :   0.3854 

-------
TIMINGS
-------

Total SCF time: 0 days 0 hours 14 min 21 sec 

Total time                  ....     861.439 sec
Sum of individual times     ....     855.411 sec  ( 99.3%)

Fock matrix formation       ....     820.233 sec  ( 95.2%)
  Split-RI-J                ....     154.620 sec  ( 18.9% of F)
  XC integration            ....     662.154 sec  ( 80.7% of F)
    Basis function eval.    ....      33.196 sec  (  5.0% of XC)
    Density eval.           ....     270.508 sec  ( 40.9% of XC)
    XC-Functional eval.     ....      18.795 sec  (  2.8% of XC)
    XC-Potential eval.      ....     176.024 sec  ( 26.6% of XC)
Diagonalization             ....      30.491 sec  (  3.5%)
Density matrix formation    ....       1.393 sec  (  0.2%)
Population analysis         ....       0.333 sec  (  0.0%)
Initial guess               ....       0.460 sec  (  0.1%)
Orbital Transformation      ....       0.000 sec  (  0.0%)
Orbital Orthonormalization  ....       0.413 sec  (  0.0%)
DIIS solution               ....       0.000 sec  (  0.0%)
Grid generation             ....       2.501 sec  (  0.3%)

Maximum memory used throughout the entire SCF-calculation: 81.8 MB

-------------------------   --------------------
FINAL SINGLE POINT ENERGY     -2893.829519946298
-------------------------   --------------------


                            ***************************************
                            *     ORCA property calculations      *
                            ***************************************

                                    ---------------------
                                    Active property flags
                                    ---------------------
   (+) Dipole Moment


------------------------------------------------------------------------------
                       ORCA ELECTRIC PROPERTIES CALCULATION
------------------------------------------------------------------------------

Dipole Moment Calculation                       ... on
Quadrupole Moment Calculation                   ... off
Polarizability Calculation                      ... off
GBWName                                         ... scan_job2.gbw
Electron density                                ... scan_job2.scfp
The origin for moment calculation is the CENTER OF MASS  = (12.306935, 14.086923 12.059983)

-------------
DIPOLE MOMENT
-------------
                                X             Y             Z
Electronic contribution:    -12.23946       6.10068       5.21362
Nuclear contribution   :     12.27459      -5.72813      -5.24719
                        -----------------------------------------
Total Dipole Moment    :      0.03513       0.37255      -0.03357
                        -----------------------------------------
Magnitude (a.u.)       :      0.37571
Magnitude (Debye)      :      0.95497



--------------------
Rotational spectrum 
--------------------
 
Rotational constants in cm-1:     0.001747     0.001060     0.001012 
Rotational constants in MHz :    52.374164    31.789072    30.329337 

 Dipole components along the rotational axes: 
x,y,z [a.u.] :    -0.345691     0.016856    -0.146182 
x,y,z [Debye]:    -0.878676     0.042845    -0.371564 

 

Timings for individual modules:

Sum of individual times         ...      877.264 sec (=  14.621 min)
GTO integral calculation        ...       15.541 sec (=   0.259 min)   1.8 %
SCF iterations                  ...      861.723 sec (=  14.362 min)  98.2 %



                             ****ORCA TERMINATED NORMALLY****
TOTAL RUN TIME: 0 days 0 hours 21 minutes 33 seconds 996 msec
