
                                 *****************
                                 * O   R   C   A *
                                 *****************

                                            #,                                       
                                            ###                                      
                                            ####                                     
                                            #####                                    
                                            ######                                   
                                           ########,                                 
                                     ,,################,,,,,                         
                               ,,#################################,,                 
                          ,,##########################################,,             
                       ,#########################################, ''#####,          
                    ,#############################################,,   '####,        
                  ,##################################################,,,,####,       
                ,###########''''           ''''###############################       
              ,#####''   ,,,,##########,,,,          '''####'''          '####       
            ,##' ,,,,###########################,,,                        '##       
           ' ,,###''''                  '''############,,,                           
         ,,##''                                '''############,,,,        ,,,,,,###''
      ,#''                                            '''#######################'''  
     '                                                          ''''####''''         
             ,#######,   #######,   ,#######,      ##                                
            ,#'     '#,  ##    ##  ,#'     '#,    #''#        ######   ,####,        
            ##       ##  ##   ,#'  ##            #'  '#       #        #'  '#        
            ##       ##  #######   ##           ,######,      #####,   #    #        
            '#,     ,#'  ##    ##  '#,     ,#' ,#      #,         ##   #,  ,#        
             '#######'   ##     ##  '#######'  #'      '#     #####' # '####'        



                  #######################################################
                  #                        -***-                        #
                  #          Department of theory and spectroscopy      #
                  #    Directorship and core code : Frank Neese         #
                  #        Max Planck Institute fuer Kohlenforschung    #
                  #                Kaiser Wilhelm Platz 1               #
                  #                 D-45470 Muelheim/Ruhr               #
                  #                      Germany                        #
                  #                                                     #
                  #                  All rights reserved                #
                  #                        -***-                        #
                  #######################################################


                         Program Version 5.0.3 -  RELEASE  -


 With contributions from (in alphabetic order):
   Daniel Aravena         : Magnetic Suceptibility
   Michael Atanasov       : Ab Initio Ligand Field Theory (pilot matlab implementation)
   Alexander A. Auer      : GIAO ZORA, VPT2 properties, NMR spectrum
   Ute Becker             : Parallelization
   Giovanni Bistoni       : ED, misc. LED, open-shell LED, HFLD
   Martin Brehm           : Molecular dynamics
   Dmytro Bykov           : SCF Hessian
   Vijay G. Chilkuri      : MRCI spin determinant printing, contributions to CSF-ICE
   Dipayan Datta          : RHF DLPNO-CCSD density
   Achintya Kumar Dutta   : EOM-CC, STEOM-CC
   Dmitry Ganyushin       : Spin-Orbit,Spin-Spin,Magnetic field MRCI
   Miquel Garcia          : C-PCM and meta-GGA Hessian, CC/C-PCM, Gaussian charge scheme
   Yang Guo               : DLPNO-NEVPT2, F12-NEVPT2, CIM, IAO-localization
   Andreas Hansen         : Spin unrestricted coupled pair/coupled cluster methods
   Benjamin Helmich-Paris : MC-RPA, TRAH-SCF, COSX integrals
   Lee Huntington         : MR-EOM, pCC
   Robert Izsak           : Overlap fitted RIJCOSX, COSX-SCS-MP3, EOM
   Marcus Kettner         : VPT2
   Christian Kollmar      : KDIIS, OOCD, Brueckner-CCSD(T), CCSD density, CASPT2, CASPT2-K
   Simone Kossmann        : Meta GGA functionals, TD-DFT gradient, OOMP2, MP2 Hessian
   Martin Krupicka        : Initial AUTO-CI
   Lucas Lang             : DCDCAS
   Marvin Lechner         : AUTO-CI (C++ implementation), FIC-MRCC
   Dagmar Lenk            : GEPOL surface, SMD
   Dimitrios Liakos       : Extrapolation schemes; Compound Job, initial MDCI parallelization
   Dimitrios Manganas     : Further ROCIS development; embedding schemes
   Dimitrios Pantazis     : SARC Basis sets
   Anastasios Papadopoulos: AUTO-CI, single reference methods and gradients
   Taras Petrenko         : DFT Hessian,TD-DFT gradient, ASA, ECA, R-Raman, ABS, FL, XAS/XES, NRVS
   Peter Pinski           : DLPNO-MP2, DLPNO-MP2 Gradient
   Christoph Reimann      : Effective Core Potentials
   Marius Retegan         : Local ZFS, SOC
   Christoph Riplinger    : Optimizer, TS searches, QM/MM, DLPNO-CCSD(T), (RO)-DLPNO pert. Triples
   Tobias Risthaus        : Range-separated hybrids, TD-DFT gradient, RPA, STAB
   Michael Roemelt        : Original ROCIS implementation
   Masaaki Saitow         : Open-shell DLPNO-CCSD energy and density
   Barbara Sandhoefer     : DKH picture change effects
   Avijit Sen             : IP-ROCIS
   Kantharuban Sivalingam : CASSCF convergence, NEVPT2, FIC-MRCI
   Bernardo de Souza      : ESD, SOC TD-DFT
   Georgi Stoychev        : AutoAux, RI-MP2 NMR, DLPNO-MP2 response
   Willem Van den Heuvel  : Paramagnetic NMR
   Boris Wezisla          : Elementary symmetry handling
   Frank Wennmohs         : Technical directorship


 We gratefully acknowledge several colleagues who have allowed us to
 interface, adapt or use parts of their codes:
   Stefan Grimme, W. Hujo, H. Kruse, P. Pracht,  : VdW corrections, initial TS optimization,
                  C. Bannwarth, S. Ehlert          DFT functionals, gCP, sTDA/sTD-DF
   Ed Valeev, F. Pavosevic, A. Kumar             : LibInt (2-el integral package), F12 methods
   Garnet Chan, S. Sharma, J. Yang, R. Olivares  : DMRG
   Ulf Ekstrom                                   : XCFun DFT Library
   Mihaly Kallay                                 : mrcc  (arbitrary order and MRCC methods)
   Jiri Pittner, Ondrej Demel                    : Mk-CCSD
   Frank Weinhold                                : gennbo (NPA and NBO analysis)
   Christopher J. Cramer and Donald G. Truhlar   : smd solvation model
   Lars Goerigk                                  : TD-DFT with DH, B97 family of functionals
   V. Asgeirsson, H. Jonsson                     : NEB implementation
   FAccTs GmbH                                   : IRC, NEB, NEB-TS, DLPNO-Multilevel, CI-OPT
                                                   MM, QMMM, 2- and 3-layer-ONIOM, Crystal-QMMM,
                                                   LR-CPCM, SF, NACMEs, symmetry and pop. for TD-DFT,
                                                   nearIR, NL-DFT gradient (VV10), updates on ESD,
                                                   ML-optimized integration grids
   S Lehtola, MJT Oliveira, MAL Marques          : LibXC Library
   Liviu Ungur et al                             : ANISO software


 Your calculation uses the libint2 library for the computation of 2-el integrals
 For citations please refer to: http://libint.valeyev.net

 Your ORCA version has been built with support for libXC version: 5.1.0
 For citations please refer to: https://tddft.org/programs/libxc/

 This ORCA versions uses:
   CBLAS   interface :  Fast vector & matrix operations
   LAPACKE interface :  Fast linear algebra routines
   SCALAPACK package :  Parallel linear algebra routines
   Shared memory     :  Shared parallel matrices
   BLAS/LAPACK       :  OpenBLAS 0.3.15  USE64BITINT DYNAMIC_ARCH NO_AFFINITY Sandybridge SINGLE_THREADED
        Core in use  :  Sandybridge
   Copyright (c) 2011-2014, The OpenBLAS Project




***************************************
The coordinates will be read from file: pbe.xyz
***************************************


================================================================================

cite the ECPs for Au [Def2-ECP] as follows:
Ce-Yb(ecp-28): M. Dolg, H. Stoll, H.Preuss, J. Chem. Phys., 1989, 90, 1730-1734.
Y-Cd(ecp-28), Hf-Hg(ecp-46): D. Andrae,U. Haeussermann, M. Dolg, H. Stoll, H. Preuss, Theor. Chim. Acta, 1990, 77, 123-141.
In-Sb(ecp-28), Tl-Bi(ecp-46): B. Metz, H. Stoll, M. Dolg, J. Chem. Phys., 2000, 113, 2563-2569.
Te-Xe(ecp-28), Po-Rn(ecp-46): K. A. Peterson, D. Figgen, E. Goll, H. Stoll, M. Dolg, J. Chem. Phys., 2003, 119, 11113-11123.
Rb(ecp-28), Cs(ecp-46): T. Leininger, A. Nicklass, W. Kuechle, H. Stoll, M. Dolg, A. Bergner, Chem. Phys. Lett., 1996, 255, 274-280.
Sr(ecp-28), Ba(ecp-46): M. Kaupp, P. V. Schleyer, H. Stoll and H. Preuss, J. Chem. Phys., 1991, 94, 1360-1366.
La(ecp-46): M. Dolg, H. Stoll, A. Savin, H. Preuss, Theor. Chim. Acta, 1989, 75, 173-194.
Lu(ecp-28): X. Cao, M. Dolg, J. Chem. Phys., 2001, 115, 7348-7355.

ECP parameters for Au [Def2-ECP] have been obtained from:
TURBOMOLE (7.0.2)

----- Orbital basis set information -----
Your calculation utilizes the basis: def2-TZVP
   F. Weigend and R. Ahlrichs, Phys. Chem. Chem. Phys. 7, 3297 (2005).

----- AuxJ basis set information -----
Your calculation utilizes the auxiliary basis: def2/J
   F. Weigend, Phys. Chem. Chem. Phys. 8, 1057 (2006).

================================================================================
                                        WARNINGS
                       Please study these warnings very carefully!
================================================================================

Using LibXC functional ID 497 : Re-regularized SCAN exchange by Furness et al
[ 1]  J. W. Furness, A. D. Kaplan, J. Ning, J. P. Perdew, and J. Sun, J. Phys. Chem. Lett. 11, 8208 (2020)
[ 2]  J. W. Furness, A. D. Kaplan, J. Ning, J. P. Perdew, and J. Sun, J. Phys. Chem. Lett. 11, 9248 (2020)
Using LibXC functional ID 498 : Re-regularized SCAN correlation by Furness et al
[ 1]  J. W. Furness, A. D. Kaplan, J. Ning, J. P. Perdew, and J. Sun, J. Phys. Chem. Lett. 11, 8208 (2020)
[ 2]  J. W. Furness, A. D. Kaplan, J. Ning, J. P. Perdew, and J. Sun, J. Phys. Chem. Lett. 11, 9248 (2020)
Using LibXC functional ID 497 : Re-regularized SCAN exchange by Furness et al
[ 1]  J. W. Furness, A. D. Kaplan, J. Ning, J. P. Perdew, and J. Sun, J. Phys. Chem. Lett. 11, 8208 (2020)
[ 2]  J. W. Furness, A. D. Kaplan, J. Ning, J. P. Perdew, and J. Sun, J. Phys. Chem. Lett. 11, 9248 (2020)
Using LibXC functional ID 498 : Re-regularized SCAN correlation by Furness et al
[ 1]  J. W. Furness, A. D. Kaplan, J. Ning, J. P. Perdew, and J. Sun, J. Phys. Chem. Lett. 11, 8208 (2020)
[ 2]  J. W. Furness, A. D. Kaplan, J. Ning, J. P. Perdew, and J. Sun, J. Phys. Chem. Lett. 11, 9248 (2020)

WARNING: your system is open-shell and RHF/RKS was chosen
  ===> : WILL SWITCH to UHF/UKS


INFO   : the flag for use of the SHARK integral package has been found!



***************************************
The coordinates will be read from file: pbe.xyz
***************************************


================================================================================

cite the ECPs for Au [Def2-ECP] as follows:
Ce-Yb(ecp-28): M. Dolg, H. Stoll, H.Preuss, J. Chem. Phys., 1989, 90, 1730-1734.
Y-Cd(ecp-28), Hf-Hg(ecp-46): D. Andrae,U. Haeussermann, M. Dolg, H. Stoll, H. Preuss, Theor. Chim. Acta, 1990, 77, 123-141.
In-Sb(ecp-28), Tl-Bi(ecp-46): B. Metz, H. Stoll, M. Dolg, J. Chem. Phys., 2000, 113, 2563-2569.
Te-Xe(ecp-28), Po-Rn(ecp-46): K. A. Peterson, D. Figgen, E. Goll, H. Stoll, M. Dolg, J. Chem. Phys., 2003, 119, 11113-11123.
Rb(ecp-28), Cs(ecp-46): T. Leininger, A. Nicklass, W. Kuechle, H. Stoll, M. Dolg, A. Bergner, Chem. Phys. Lett., 1996, 255, 274-280.
Sr(ecp-28), Ba(ecp-46): M. Kaupp, P. V. Schleyer, H. Stoll and H. Preuss, J. Chem. Phys., 1991, 94, 1360-1366.
La(ecp-46): M. Dolg, H. Stoll, A. Savin, H. Preuss, Theor. Chim. Acta, 1989, 75, 173-194.
Lu(ecp-28): X. Cao, M. Dolg, J. Chem. Phys., 2001, 115, 7348-7355.

ECP parameters for Au [Def2-ECP] have been obtained from:
TURBOMOLE (7.0.2)

----- Orbital basis set information -----
Your calculation utilizes the basis: def2-TZVP
   F. Weigend and R. Ahlrichs, Phys. Chem. Chem. Phys. 7, 3297 (2005).

----- AuxJ basis set information -----
Your calculation utilizes the auxiliary basis: def2/J
   F. Weigend, Phys. Chem. Chem. Phys. 8, 1057 (2006).

================================================================================
                                        WARNINGS
                       Please study these warnings very carefully!
================================================================================

Using LibXC functional ID 497 : Re-regularized SCAN exchange by Furness et al
[ 1]  J. W. Furness, A. D. Kaplan, J. Ning, J. P. Perdew, and J. Sun, J. Phys. Chem. Lett. 11, 8208 (2020)
[ 2]  J. W. Furness, A. D. Kaplan, J. Ning, J. P. Perdew, and J. Sun, J. Phys. Chem. Lett. 11, 9248 (2020)
Using LibXC functional ID 498 : Re-regularized SCAN correlation by Furness et al
[ 1]  J. W. Furness, A. D. Kaplan, J. Ning, J. P. Perdew, and J. Sun, J. Phys. Chem. Lett. 11, 8208 (2020)
[ 2]  J. W. Furness, A. D. Kaplan, J. Ning, J. P. Perdew, and J. Sun, J. Phys. Chem. Lett. 11, 9248 (2020)
Using LibXC functional ID 497 : Re-regularized SCAN exchange by Furness et al
[ 1]  J. W. Furness, A. D. Kaplan, J. Ning, J. P. Perdew, and J. Sun, J. Phys. Chem. Lett. 11, 8208 (2020)
[ 2]  J. W. Furness, A. D. Kaplan, J. Ning, J. P. Perdew, and J. Sun, J. Phys. Chem. Lett. 11, 9248 (2020)
Using LibXC functional ID 498 : Re-regularized SCAN correlation by Furness et al
[ 1]  J. W. Furness, A. D. Kaplan, J. Ning, J. P. Perdew, and J. Sun, J. Phys. Chem. Lett. 11, 8208 (2020)
[ 2]  J. W. Furness, A. D. Kaplan, J. Ning, J. P. Perdew, and J. Sun, J. Phys. Chem. Lett. 11, 9248 (2020)

INFO   : the flag for use of the SHARK integral package has been found!

================================================================================
                                       INPUT FILE
================================================================================
NAME = scan.inp
|  1> !R2SCAN def2-TZVP VERYSLOWCONV
|  2> !KDIIS
|  3> %scf
|  4>   AutoTRAHIter 200
|  5>   maxiter 400
|  6> end
|  7> 
|  8> %pal nprocs 6 end 
|  9> 
| 10> *xyzfile 0 6 pbe.xyz
| 11> 
| 12> $new_job
| 13> 
| 14> !R2SCAN def2-TZVP VERYSLOWCONV
| 15> !KDIIS
| 16> %scf
| 17>   AutoTRAHIter 200
| 18>   maxiter 400
| 19> end
| 20> 
| 21> 
| 22> %pal nprocs 6 end 
| 23> 
| 24> *xyzfile 0 4 pbe.xyz
| 25> 
| 26> 
| 27> 
| 28> 
| 29> 
| 30>                          ****END OF INPUT****
================================================================================


                 $$$$$$$$$$$$$$$$$$$$$$$$$$$$$$$$$$$$$$$$$$$$$$ 
                 $ THERE ARE  2 JOBS TO BE PROCESSED THIS RUN $
                 $$$$$$$$$$$$$$$$$$$$$$$$$$$$$$$$$$$$$$$$$$$$$$ 




                 $$$$$$$$$$$$$$$$  JOB NUMBER  1 $$$$$$$$$$$$$$


                       ****************************
                       * Single Point Calculation *
                       ****************************

---------------------------------
CARTESIAN COORDINATES (ANGSTROEM)
---------------------------------
  Au     9.999113    9.213203    9.693395
  Au     9.112231    9.340542    5.895819
  Au     7.937514    5.951040   10.223289
  Au     5.285767    9.422539    8.797638
  Au     5.380812    6.974239   10.214465
  Au     7.411910    8.823627   10.439638
  Au     7.944600   10.425135    8.207311
  Au    10.489542    6.523246    9.467348
  Au     8.911483    4.914423    7.798995
  Au     6.111525    4.882478    8.455595
  Au     4.712821    7.068535    7.345973
  Au     6.455320    8.953650    6.348186
  Au     9.608310    6.648537    5.709457
  Au     6.976726    6.080958    6.126237
  Mn     8.429976    7.674876    8.002825

----------------------------
CARTESIAN COORDINATES (A.U.)
----------------------------
  NO LB      ZA    FRAG     MASS         X           Y           Z
   0 Au   19.0000*   0   196.966   18.895585   17.410431   18.317862
   1 Au   19.0000*   0   196.966   17.219620   17.651066   11.141483
   2 Au   19.0000*   0   196.966   14.999728   11.245836   19.319217
   3 Au   19.0000*   0   196.966    9.988652   17.806018   16.625126
   4 Au   19.0000*   0   196.966   10.168261   13.179401   19.302541
   5 Au   19.0000*   0   196.966   14.006481   16.674238   19.728058
   6 Au   19.0000*   0   196.966   15.013118   19.700651   15.509570
   7 Au   19.0000*   0   196.966   19.822362   12.327149   17.890695
   8 Au   19.0000*   0   196.966   16.840263    9.286914   14.737965
   9 Au   19.0000*   0   196.966   11.549108    9.226546   15.978759
  10 Au   19.0000*   0   196.966    8.905941   13.357595   13.881878
  11 Au   19.0000*   0   196.966   12.198787   16.919946   11.996333
  12 Au   19.0000*   0   196.966   18.157074   12.563914   10.789310
  13 Au   19.0000*   0   196.966   13.184101   11.491345   11.576911
  14 Mn   25.0000    0    54.940   15.930347   14.503414   15.123148
* core charge reduced due to ECP

--------------------------------
INTERNAL COORDINATES (ANGSTROEM)
--------------------------------
 Au     0   0   0     0.000000000000     0.00000000     0.00000000
 Au     1   0   0     3.901840638677     0.00000000     0.00000000
 Au     1   2   0     3.895213165602    92.25991381     0.00000000
 Au     3   1   2     4.595165490066    68.31705970   298.51138658
 Au     3   1   2     2.753859250392   100.35641042   283.73362234
 Au     1   2   3     2.720710710754    93.18049609   311.28958014
 Au     6   1   2     2.798548825834    61.20125854   325.96029015
 Au     3   1   2     2.722446318709    44.77079876    87.06403062
 Au     8   3   1     2.803922755950    61.12141332   234.90123344
 Au     3   1   2     2.756955974584   126.00927028   346.24775212
 Au    10   3   1     2.822494970796   106.26583226   321.12025201
 Au     2   1   3     2.722773664232    93.17927345    48.56388398
 Au     2   1   3     2.743668127689    89.59839553   315.81336832
 Au    13   2   1     2.724166867171    91.10992646    93.67046136
 Mn     2   1   3     2.771171233035    45.27786652     2.36043992

---------------------------
INTERNAL COORDINATES (A.U.)
---------------------------
 Au     0   0   0     0.000000000000     0.00000000     0.00000000
 Au     1   0   0     7.373410225303     0.00000000     0.00000000
 Au     1   2   0     7.360886116233    92.25991381     0.00000000
 Au     3   1   2     8.683604316271    68.31705970   298.51138658
 Au     3   1   2     5.204039794607   100.35641042   283.73362234
 Au     1   2   3     5.141398132952    93.18049609   311.28958014
 Au     6   1   2     5.288490853232    61.20125854   325.96029015
 Au     3   1   2     5.144677956663    44.77079876    87.06403062
 Au     8   3   1     5.298646109414    61.12141332   234.90123344
 Au     3   1   2     5.209891755241   126.00927028   346.24775212
 Au    10   3   1     5.333742509175   106.26583226   321.12025201
 Au     2   1   3     5.145296550051    93.17927345    48.56388398
 Au     2   1   3     5.184781363701    89.59839553   315.81336832
 Au    13   2   1     5.147929322055    91.10992646    93.67046136
 Mn     2   1   3     5.236754700637    45.27786652     2.36043992

---------------------
BASIS SET INFORMATION
---------------------
There are 2 groups of distinct atoms

 Group   1 Type Au  : 8s7p6d1f contracted to 6s4p3d1f pattern {311111/4111/411/1}
 Group   2 Type Mn  : 17s11p7d1f contracted to 6s4p4d1f pattern {842111/6311/4111/1}

Atom   0Au   basis set group =>   1
Atom   1Au   basis set group =>   1
Atom   2Au   basis set group =>   1
Atom   3Au   basis set group =>   1
Atom   4Au   basis set group =>   1
Atom   5Au   basis set group =>   1
Atom   6Au   basis set group =>   1
Atom   7Au   basis set group =>   1
Atom   8Au   basis set group =>   1
Atom   9Au   basis set group =>   1
Atom  10Au   basis set group =>   1
Atom  11Au   basis set group =>   1
Atom  12Au   basis set group =>   1
Atom  13Au   basis set group =>   1
Atom  14Mn   basis set group =>   2
---------------------------------
AUXILIARY/J BASIS SET INFORMATION
---------------------------------
There are 2 groups of distinct atoms

 Group   1 Type Au  : 11s5p5d3f3g contracted to 8s5p5d2f3g pattern {41111111/11111/11111/21/111}
 Group   2 Type Mn  : 19s5p5d3f3g contracted to 8s5p5d2f3g pattern {121111111/11111/11111/21/111}

Atom   0Au   basis set group =>   1
Atom   1Au   basis set group =>   1
Atom   2Au   basis set group =>   1
Atom   3Au   basis set group =>   1
Atom   4Au   basis set group =>   1
Atom   5Au   basis set group =>   1
Atom   6Au   basis set group =>   1
Atom   7Au   basis set group =>   1
Atom   8Au   basis set group =>   1
Atom   9Au   basis set group =>   1
Atom  10Au   basis set group =>   1
Atom  11Au   basis set group =>   1
Atom  12Au   basis set group =>   1
Atom  13Au   basis set group =>   1
Atom  14Mn   basis set group =>   2
-------------------------
ECP PARAMETER INFORMATION
-------------------------

 Group 1, Type Au ECP Def2-ECP (replacing 60 core electrons, lmax=3)

Atom   0Au   ECP group =>   1
Atom   1Au   ECP group =>   1
Atom   2Au   ECP group =>   1
Atom   3Au   ECP group =>   1
Atom   4Au   ECP group =>   1
Atom   5Au   ECP group =>   1
Atom   6Au   ECP group =>   1
Atom   7Au   ECP group =>   1
Atom   8Au   ECP group =>   1
Atom   9Au   ECP group =>   1
Atom  10Au   ECP group =>   1
Atom  11Au   ECP group =>   1
Atom  12Au   ECP group =>   1
Atom  13Au   ECP group =>   1



           ************************************************************
           *        Program running with 6 parallel MPI-processes     *
           *              working on a common directory               *
           ************************************************************
------------------------------------------------------------------------------
                           ORCA GTO INTEGRAL CALCULATION
                           -- RI-GTO INTEGRALS CHOSEN --
------------------------------------------------------------------------------
------------------------------------------------------------------------------
                   ___                                                        
                  /   \      - P O W E R E D   B Y -                         
                 /     \                                                     
                 |  |  |   _    _      __       _____    __    __             
                 |  |  |  | |  | |    /  \     |  _  \  |  |  /  |          
                  \  \/   | |  | |   /    \    | | | |  |  | /  /          
                 / \  \   | |__| |  /  /\  \   | |_| |  |  |/  /          
                |  |  |   |  __  | /  /__\  \  |    /   |      \           
                |  |  |   | |  | | |   __   |  |    \   |  |\   \          
                \     /   | |  | | |  |  |  |  | |\  \  |  | \   \       
                 \___/    |_|  |_| |__|  |__|  |_| \__\ |__|  \__/        
                                                                              
                      - O R C A' S   B I G   F R I E N D -                    
                                      &                                       
                       - I N T E G R A L  F E E D E R -                       
                                                                              
 v1 FN, 2020, v2 2021                                                         
------------------------------------------------------------------------------


Reading SHARK input file scan.SHARKINP.tmp ... ok
----------------------
SHARK INTEGRAL PACKAGE
----------------------

Number of atoms                             ...     15
Number of basis functions                   ...    605
Number of shells                            ...    211
Maximum angular momentum                    ...      3
Integral batch strategy                     ... SHARK/LIBINT Hybrid
RI-J (if used) integral strategy            ... SPLIT-RIJ (Revised 2003 algorithm where possible)
Printlevel                                  ...      1
Contraction scheme used                     ... SEGMENTED contraction
Coulomb Range Separation                    ... NOT USED
Exchange Range Separation                   ... NOT USED
Finite Nucleus Model                        ... NOT USED
Auxiliary Coulomb fitting basis             ... AVAILABLE
   # of basis functions in Aux-J            ...   1335
   # of shells in Aux-J                     ...    345
   Maximum angular momentum in Aux-J        ...      4
Auxiliary J/K fitting basis                 ... NOT available
Auxiliary Correlation fitting basis         ... NOT available
Auxiliary 'external' fitting basis          ... NOT available
Integral threshold                          ...     1.000000e-10
Primitive cut-off                           ...     1.000000e-11
Primitive pair pre-selection threshold      ...     1.000000e-11

Calculating pre-screening integrals         ... done (  0.3 sec) Dimension = 211
Organizing shell pair data                  ... done (  0.9 sec)
Shell pair information
Total number of shell pairs                 ...     22366
Shell pairs after pre-screening             ...     17781
Total number of primitive shell pairs       ...     59609
Primitive shell pairs kept                  ...     34098
          la=0 lb=0:   2786 shell pairs
          la=1 lb=0:   4025 shell pairs
          la=1 lb=1:   1536 shell pairs
          la=2 lb=0:   3528 shell pairs
          la=2 lb=1:   2486 shell pairs
          la=2 lb=2:   1030 shell pairs
          la=3 lb=0:    928 shell pairs
          la=3 lb=1:    720 shell pairs
          la=3 lb=2:    640 shell pairs
          la=3 lb=3:    102 shell pairs

Calculating one electron integrals          ... done (  0.1 sec)
Calculating ECP integrals                   ... done ( 23.9 sec)
Calculating RI/J V-Matrix + Cholesky decomp.... done (  0.2 sec)
Calculating Nuclear repulsion               ... done (  0.0 sec) ENN=   5619.938824744134 Eh

SHARK setup successfully completed in  26.1 seconds

Maximum memory used throughout the entire GTOINT-calculation: 34.5 MB


           ************************************************************
           *        Program running with 6 parallel MPI-processes     *
           *              working on a common directory               *
           ************************************************************
-------------------------------------------------------------------------------
                                 ORCA SCF
-------------------------------------------------------------------------------

------------
SCF SETTINGS
------------
Hamiltonian:
 Density Functional     Method          .... DFT(GTOs)
  Functional kind                       .... Exchange
  Functional name                       .... Re-regularized SCAN exchange by Furness et al
  Functional family                     .... MGGA
  Functional refs                              
    [ 0] J. W. Furness, A. D. Kaplan, J. Ning, J. P. Perdew, and J. Sun, J. Phys. Chem. Lett. 11, 8208 (2020)
    [ 1] J. W. Furness, A. D. Kaplan, J. Ning, J. P. Perdew, and J. Sun, J. Phys. Chem. Lett. 11, 9248 (2020)
  Functional external parameters         .... 8
 Parameter  0 :         c1 parameter
 Parameter  1 :         c2 parameter
 Parameter  2 :          d parameter
 Parameter  3 :         k1 parameter
 Parameter  4 :       taur parameter
 Parameter  5 :     alphar parameter
 Parameter  6 :        eta parameter
 Parameter  7 :        dp2 parameter
  Functional kind                       .... Correlation
  Functional name                       .... Re-regularized SCAN correlation by Furness et al
  Functional family                     .... MGGA
  Functional refs                              
    [ 0] J. W. Furness, A. D. Kaplan, J. Ning, J. P. Perdew, and J. Sun, J. Phys. Chem. Lett. 11, 8208 (2020)
    [ 1] J. W. Furness, A. D. Kaplan, J. Ning, J. P. Perdew, and J. Sun, J. Phys. Chem. Lett. 11, 9248 (2020)
  Functional external parameters         .... 0
 Gradients option       PostSCFGGA      .... off
   Density functional embedding theory  .... OFF
   NL short-range parameter             .... 12.300000
 RI-approximation to the Coulomb term is turned on
   Number of AuxJ basis functions       .... 1335


General Settings:
 Integral files         IntName         .... scan
 Hartree-Fock type      HFTyp           .... UHF
 Total Charge           Charge          ....    0
 Multiplicity           Mult            ....    6
 Number of Electrons    NEL             ....  291
 Basis Dimension        Dim             ....  605
 Nuclear Repulsion      ENuc            ....   5619.9388247441 Eh

Convergence Acceleration:
 DIIS                   CNVDIIS         .... off
 Trust-Rad. Augm. Hess. CNVTRAH         .... auto
   Auto Start mean grad. ratio tolernc. ....  1.125000
   Auto Start start iteration           ....   200
   Auto Start num. interpolation iter.  ....    10
   Max. Number of Micro iterations      ....    16
   Max. Number of Macro iterations      .... Maxiter - #DIIS iter
   Number of Davidson start vectors     ....     2
   Converg. threshold I  (grad. norm)   ....   5.000e-05
   Converg. threshold II (energy diff.) ....   1.000e-06
   Grad. Scal. Fac. for Micro threshold ....   0.100
   Minimum threshold for Micro iter.    ....   0.010
   NR start threshold (gradient norm)   ....   0.001
   Initial trust radius                 ....   0.400
   Minimum AH scaling param. (alpha)    ....   1.000
   Maximum AH scaling param. (alpha)    .... 1000.000
   Orbital update algorithm             .... Taylor
   White noise on init. David. guess    .... on
   Maximum white noise                  ....   0.010
   Quad. conv. algorithm                .... NR
 SOSCF                  CNVSOSCF        .... off
 Level Shifting         CNVShift        .... off
 Zerner damping         CNVZerner       .... off
 Static damping         CNVDamp         .... off
 Fernandez-Rico         CNVRico         .... off

SCF Procedure:
 Maximum # iterations   MaxIter         ....   400
 SCF integral mode      SCFMode         .... Direct
   Integral package                     .... SHARK and LIBINT hybrid scheme
 Reset frequency        DirectResetFreq ....    20
 Integral Threshold     Thresh          ....  1.000e-10 Eh
 Primitive CutOff       TCut            ....  1.000e-11 Eh

Convergence Tolerance:
 Convergence Check Mode ConvCheckMode   .... All-Criteria
 Convergence forced     ConvForced      .... 0
 Energy Change          TolE            ....  1.000e-06 Eh
 Max Density Change     TolMaxP         ....  1.000e-05
 RMS Density Change     TolRMSP         ....  1.000e-06


Diagonalization of the overlap matrix:
Smallest eigenvalue                        ... 4.547e-04
Time for diagonalization                   ...    0.161 sec
Threshold for overlap eigenvalues          ... 1.000e-08
Number of eigenvalues below threshold      ... 0
Time for construction of square roots      ...    0.117 sec
Total time needed                          ...    0.282 sec

Time for model grid setup =    1.014 sec

------------------------------
INITIAL GUESS: MODEL POTENTIAL
------------------------------
Loading Hartree-Fock densities                     ... done
  calling /home/ehlert/src/miniconda3/envs/orca500/Programs/ORCA501/orca scan_atom79.inp > scan_atom79.out in order to generate an atomic fitting density for atom 0 (Au with ECP) on-the-fly... 
    atom 0 (Au), assumed electronic state with S=2: 1s2 2s2 2p6 3s2 3p6 4s2 3d10 4p6 5s2 4d10 5p6 6s1 4f14 5d10           ... done
Calculating cut-offs                               ... done
Initializing the effective Hamiltonian             ... done
Setting up the integral package (SHARK)            ... done
Starting the Coulomb interaction                   ... done (   1.1 sec)
Reading the grid                                   ... done
Mapping shells                                     ... done
Starting the XC term evaluation                    ... done (   1.1 sec)
  promolecular density results
     # of electrons  =   1131.014377002
     EX              =  -5172.112203491
     EC              =    -68.910325163
     EX+EC           =  -5241.022528654
Transforming the Hamiltonian                       ... done (   0.1 sec)
Diagonalizing the Hamiltonian                      ... done (   0.2 sec)
Back transforming the eigenvectors                 ... done (   0.0 sec)
Now organizing SCF variables                       ... done
                      ------------------
                      INITIAL GUESS DONE (   4.7 sec)
                      ------------------
-------------------
DFT GRID GENERATION
-------------------

General Integration Accuracy     IntAcc      ... 4.388
Radial Grid Type                 RadialGrid  ... OptM3 with GC (2021)
Angular Grid (max. ang.)         AngularGrid ... 4 (Lebedev-302)
Angular grid pruning method      GridPruning ... 4 (adaptive)
Weight generation scheme         WeightScheme... Becke
Basis function cutoff            BFCut       ... 1.0000e-10
Integration weight cutoff        WCut        ... 1.0000e-14
Angular grids for H and He will be reduced by one unit
Partially contracted basis set               ... off
Rotationally invariant grid construction     ... off

Total number of grid points                  ...   165734
Total number of batches                      ...     2598
Average number of points per batch           ...       63
Average number of grid points per atom       ...    11049
Time for grid setup =    3.147 sec

--------------
SCF ITERATIONS
--------------
ITER       Energy         Delta-E        Max-DP      RMS-DP      [F,P]   Gradient Norm
               ***  Starting incremental Fock matrix formation  ***
                             ****Resetting KDIIS****
                             ****Turning on KDIIS(Cayley)****
  0  -3050.3457650757   0.000000000000 0.18722980  0.00119912  0.4326847   0.228075574
  1  -3051.6189267225  -1.273161646739 0.28046940  0.00160613  0.3170371   0.173285803
  2  -3052.2474612194  -0.628534496891 0.13471726  0.00141959  0.2509484   0.129177153
  3  -3052.5561271486  -0.308665929247 0.15257097  0.00151385  0.1470623   0.076561688
  4  -3052.6620146772  -0.105887528613 0.07474822  0.00056483  0.0487580   0.024023226
  5  -3052.7209734430  -0.058958765782 0.13783383  0.00056411  0.0285879   0.008185412
  6  -3052.7533071432  -0.032333700219 0.09771172  0.00085879  0.0306234   0.008247994
  7  -3052.7771348355  -0.023827692313 0.05682642  0.00029592  0.0347239   0.011934075
  8  -3052.7969113625  -0.019776526984 0.02881065  0.00030960  0.0159464   0.006620602
  9  -3052.8100086959  -0.013097333380 0.02344955  0.00020530  0.0247213   0.003637501
 10  -3052.8171193151  -0.007110619238 0.01713426  0.00018638  0.0195410   0.003066968
 11  -3052.8235255449  -0.006406229746 0.05348140  0.00023200  0.0145598   0.002733697
 12  -3052.8299073257  -0.006381780791 0.04328275  0.00043614  0.0152032   0.002847478
 13  -3052.8391751169  -0.009267791184 0.01783063  0.00014711  0.0061831   0.001827573
 14  -3052.8404894093  -0.001314292439 0.02625554  0.00009769  0.0047831   0.002025941
 15  -3052.8402573536   0.000232055669 0.00893127  0.00008486  0.0049711   0.002628672
 16  -3052.8414291726  -0.001171818955 0.01491163  0.00010548  0.0050479   0.001047997
 17  -3052.8424015245  -0.000972351919 0.00582057  0.00005524  0.0054452   0.000793225
 18  -3052.8429200587  -0.000518534159 0.00390858  0.00002562  0.0058243   0.000686717
 19  -3052.8427248543   0.000195204366 0.00198216  0.00001742  0.0057738   0.000659776
               *** Restarting incremental Fock matrix formation ***
                             ****Resetting KDIIS****
 20  -3052.8428905817  -0.000165727372 0.00108625  0.00000783  0.0058825   0.000726248
 21  -3052.8429708199  -0.000080238285 0.00172833  0.00001644  0.0059326   0.000673397
 22  -3052.8431415242  -0.000170704269 0.00423992  0.00005529  0.0060430   0.000649760
 23  -3052.8425443413   0.000597182882 0.02188360  0.00029232  0.0055738   0.000705510
 24  -3052.8402294623   0.002314879022 0.00564249  0.00007765  0.0029832   0.000560252
 25  -3052.8399722803   0.000257181992 0.00665797  0.00008715  0.0021760   0.000929291
 26  -3052.8398221267   0.000150153651 0.00529324  0.00004732  0.0026197   0.000558406
 27  -3052.8398164903   0.000005636419 0.00993804  0.00007528  0.0021396   0.000628209
 28  -3052.8399649122  -0.000148421900 0.00757152  0.00005937  0.0022622   0.000617985
 29  -3052.8400278662  -0.000062954018 0.00565584  0.00003723  0.0019444   0.000264559
 30  -3052.8401201197  -0.000092253501 0.00233473  0.00001924  0.0017665   0.000265399
 31  -3052.8401625992  -0.000042479524 0.00467564  0.00003417  0.0016455   0.000208267
 32  -3052.8402406177  -0.000078018524 0.00268607  0.00002351  0.0014342   0.000225863
 33  -3052.8402859761  -0.000045358336 0.00135256  0.00001356  0.0012304   0.000201814
 34  -3052.8403255322  -0.000039556155 0.00092746  0.00000464  0.0011857   0.000155944
 35  -3052.8403310212  -0.000005489008 0.00061218  0.00000613  0.0011976   0.000174424
 36  -3052.8403459129  -0.000014891732 0.00018256  0.00000149  0.0011642   0.000177087
 37  -3052.8403425711   0.000003341809 0.00148365  0.00001142  0.0011716   0.000175568
 38  -3052.8403694364  -0.000026865259 0.00031626  0.00000254  0.0011334   0.000215033
 39  -3052.8403675444   0.000001891954 0.00151381  0.00000586  0.0011302   0.000179234
               *** Restarting incremental Fock matrix formation ***
                             ****Resetting KDIIS****
 40  -3052.8403709721  -0.000003427617 0.00023494  0.00000205  0.0011441   0.000211936
 41  -3052.8403765161  -0.000005544086 0.00041977  0.00000435  0.0011593   0.000188643
 42  -3052.8403888942  -0.000012378083 0.00058846  0.00000332  0.0011960   0.000173954
 43  -3052.8403976204  -0.000008726217 0.00653631  0.00008464  0.0012187   0.000177325
 44  -3052.8402035924   0.000194028044 0.00108858  0.00001296  0.0013399   0.000197943
 45  -3052.8401938343   0.000009758094 0.00126991  0.00001388  0.0013891   0.000123436
 46  -3052.8401973407  -0.000003506393 0.00136671  0.00001569  0.0013070   0.000116458
 47  -3052.8402071648  -0.000009824063 0.00756197  0.00007474  0.0011819   0.000185636
 48  -3052.8402784046  -0.000071239852 0.00246858  0.00003284  0.0004215   0.000219781
 49  -3052.8402769821   0.000001422560 0.00212616  0.00002059  0.0005887   0.000150598
 50  -3052.8402833080  -0.000006325907 0.00095842  0.00000911  0.0003599   0.000139532
 51  -3052.8402932824  -0.000009974432 0.00033845  0.00000380  0.0003724   0.000071932
                          ***Energy convergence achieved***
 52  -3052.8402926632   0.000000619234 0.00057228  0.00000546  0.0003395   0.000064619
 53  -3052.8402948126  -0.000002149417 0.00112715  0.00001153  0.0003333   0.000074545
 54  -3052.8402996022  -0.000004789660 0.00081589  0.00000908  0.0003611   0.000046908
 55  -3052.8403045166  -0.000004914365 0.00022339  0.00000157  0.0003867   0.000075239
                          ***Energy convergence achieved***
 56  -3052.8403053151  -0.000000798546 0.00064115  0.00000647  0.0003916   0.000042853
                           ***RMSP convergence achieved***
 57  -3052.8403026052   0.000002709974 0.00003663  0.00000040  0.0003865   0.000042099
                          ***Energy convergence achieved***
 58  -3052.8403026429  -0.000000037771 0.00038248  0.00000387  0.0003852   0.000044103
 59  -3052.8403048963  -0.000002253381 0.00020494  0.00000325  0.0003954   0.000054205
               *** Restarting incremental Fock matrix formation ***
                             ****Resetting KDIIS****
                          ***Energy convergence achieved***
                           ***RMSP convergence achieved***
 60  -3052.8403056614  -0.000000765098 0.00002836  0.00000044  0.0004213   0.000054302

            ***Energy convergence in two consecutive cycles with***
                    ***'reasonable' density convergence***
                       *** signaling convergence ***

                    *** KDIIS BlockDiag ( 0.376 sec) ***

               *****************************************************
               *                     SUCCESS                       *
               *           SCF CONVERGED AFTER  61 CYCLES          *
               *****************************************************


----------------
TOTAL SCF ENERGY
----------------

Total Energy       :        -3052.84030641 Eh          -83072.00804 eV

Components:
Nuclear Repulsion  :         5619.93882474 Eh          152926.31004 eV
Electronic Energy  :        -8672.77913115 Eh         -235998.31808 eV
One Electron Energy:       -16158.23593314 Eh         -439687.95304 eV
Two Electron Energy:         7485.45680198 Eh          203689.63496 eV

Virial components:
Potential Energy   :        -4844.25801646 Eh         -131818.96217 eV
Kinetic Energy     :         1791.41771005 Eh           48746.95414 eV
Virial Ratio       :            2.70414766


DFT components:
N(Alpha)           :      147.999962442410 electrons
N(Beta)            :      142.999963099390 electrons
N(Total)           :      290.999925541800 electrons
E(X)               :     -221.076116458846 Eh       
E(C)               :      -12.056685162741 Eh       
E(XC)              :     -233.132801621587 Eh       
DFET-embed. en.    :        0.000000000000 Eh       

---------------
SCF CONVERGENCE
---------------

  Last Energy change         ...   -7.4939e-07  Tolerance :   1.0000e-06
  Last MAX-Density change    ...    6.6658e-05  Tolerance :   1.0000e-05
  Last RMS-Density change    ...    9.1873e-07  Tolerance :   1.0000e-06

             **** THE GBW FILE WAS UPDATED (scan.gbw) ****
             **** DENSITY scan.scfp WAS UPDATED ****
             **** ENERGY FILE WAS UPDATED (scan.en.tmp) ****
----------------------
UHF SPIN CONTAMINATION
----------------------

Warning: in a DFT calculation there is little theoretical justification to 
         calculate <S**2> as in Hartree-Fock theory. We will do it anyways
         but you should keep in mind that the values have only limited relevance

Expectation value of <S**2>     :     9.712526
Ideal value S*(S+1) for S=2.5   :     8.750000
Deviation                       :     0.962526

             **** THE GBW FILE WAS UPDATED (scan.gbw) ****
             **** DENSITY scan.scfp WAS UPDATED ****
----------------
ORBITAL ENERGIES
----------------
                 SPIN UP ORBITALS
  NO   OCC          E(Eh)            E(eV) 
   0   1.0000    -235.051508     -6396.0767 
   1   1.0000     -27.228490      -740.9249 
   2   1.0000     -23.276530      -633.3866 
   3   1.0000     -23.274262      -633.3249 
   4   1.0000     -23.273942      -633.3162 
   5   1.0000      -4.126961      -112.3003 
   6   1.0000      -4.126684      -112.2928 
   7   1.0000      -4.126132      -112.2778 
   8   1.0000      -4.126081      -112.2764 
   9   1.0000      -4.125528      -112.2613 
  10   1.0000      -4.125161      -112.2513 
  11   1.0000      -4.118456      -112.0689 
  12   1.0000      -4.118433      -112.0683 
  13   1.0000      -4.118382      -112.0669 
  14   1.0000      -4.118349      -112.0660 
  15   1.0000      -4.118243      -112.0631 
  16   1.0000      -4.118118      -112.0597 
  17   1.0000      -4.116731      -112.0219 
  18   1.0000      -4.116042      -112.0032 
  19   1.0000      -3.254055       -88.5473 
  20   1.0000      -2.316175       -63.0263 
  21   1.0000      -2.315883       -63.0184 
  22   1.0000      -2.315460       -63.0069 
  23   1.0000      -2.315282       -63.0020 
  24   1.0000      -2.312925       -62.9379 
  25   1.0000      -2.312708       -62.9320 
  26   1.0000      -2.312499       -62.9263 
  27   1.0000      -2.312159       -62.9170 
  28   1.0000      -2.311366       -62.8955 
  29   1.0000      -2.311154       -62.8897 
  30   1.0000      -2.311050       -62.8869 
  31   1.0000      -2.310741       -62.8785 
  32   1.0000      -2.310086       -62.8606 
  33   1.0000      -2.309885       -62.8552 
  34   1.0000      -2.309618       -62.8479 
  35   1.0000      -2.309436       -62.8430 
  36   1.0000      -2.309007       -62.8313 
  37   1.0000      -2.308819       -62.8262 
  38   1.0000      -2.307213       -62.7825 
  39   1.0000      -2.306968       -62.7758 
  40   1.0000      -2.306834       -62.7721 
  41   1.0000      -2.306705       -62.7686 
  42   1.0000      -2.305375       -62.7324 
  43   1.0000      -2.305319       -62.7309 
  44   1.0000      -2.305164       -62.7267 
  45   1.0000      -2.305040       -62.7233 
  46   1.0000      -2.303864       -62.6913 
  47   1.0000      -2.303574       -62.6834 
  48   1.0000      -2.303444       -62.6799 
  49   1.0000      -2.303109       -62.6708 
  50   1.0000      -2.302975       -62.6671 
  51   1.0000      -2.302851       -62.6638 
  52   1.0000      -2.302358       -62.6503 
  53   1.0000      -2.302279       -62.6482 
  54   1.0000      -2.301698       -62.6324 
  55   1.0000      -2.300847       -62.6092 
  56   1.0000      -2.300709       -62.6055 
  57   1.0000      -2.300667       -62.6043 
  58   1.0000      -2.300168       -62.5908 
  59   1.0000      -2.300044       -62.5874 
  60   1.0000      -2.299991       -62.5859 
  61   1.0000      -2.299919       -62.5840 
  62   1.0000      -2.113869       -57.5213 
  63   1.0000      -2.109598       -57.4051 
  64   1.0000      -2.108492       -57.3750 
  65   1.0000      -0.435317       -11.8456 
  66   1.0000      -0.397165       -10.8074 
  67   1.0000      -0.393217       -10.7000 
  68   1.0000      -0.392194       -10.6721 
  69   1.0000      -0.391095       -10.6422 
  70   1.0000      -0.380578       -10.3561 
  71   1.0000      -0.378439       -10.2978 
  72   1.0000      -0.377098       -10.2614 
  73   1.0000      -0.373564       -10.1652 
  74   1.0000      -0.371456       -10.1078 
  75   1.0000      -0.370415       -10.0795 
  76   1.0000      -0.369122       -10.0443 
  77   1.0000      -0.367456        -9.9990 
  78   1.0000      -0.366786        -9.9808 
  79   1.0000      -0.364221        -9.9110 
  80   1.0000      -0.360485        -9.8093 
  81   1.0000      -0.359288        -9.7767 
  82   1.0000      -0.356537        -9.7019 
  83   1.0000      -0.356203        -9.6928 
  84   1.0000      -0.355659        -9.6780 
  85   1.0000      -0.350276        -9.5315 
  86   1.0000      -0.348909        -9.4943 
  87   1.0000      -0.346656        -9.4330 
  88   1.0000      -0.345949        -9.4137 
  89   1.0000      -0.345076        -9.3900 
  90   1.0000      -0.338345        -9.2068 
  91   1.0000      -0.336418        -9.1544 
  92   1.0000      -0.334961        -9.1148 
  93   1.0000      -0.332593        -9.0503 
  94   1.0000      -0.329033        -8.9534 
  95   1.0000      -0.324380        -8.8268 
  96   1.0000      -0.322701        -8.7811 
  97   1.0000      -0.321912        -8.7597 
  98   1.0000      -0.321493        -8.7483 
  99   1.0000      -0.319770        -8.7014 
 100   1.0000      -0.317960        -8.6521 
 101   1.0000      -0.314636        -8.5617 
 102   1.0000      -0.310779        -8.4567 
 103   1.0000      -0.310203        -8.4411 
 104   1.0000      -0.307592        -8.3700 
 105   1.0000      -0.307004        -8.3540 
 106   1.0000      -0.301752        -8.2111 
 107   1.0000      -0.299519        -8.1503 
 108   1.0000      -0.297094        -8.0843 
 109   1.0000      -0.293157        -7.9772 
 110   1.0000      -0.291432        -7.9303 
 111   1.0000      -0.288789        -7.8584 
 112   1.0000      -0.288315        -7.8454 
 113   1.0000      -0.286072        -7.7844 
 114   1.0000      -0.285383        -7.7657 
 115   1.0000      -0.285321        -7.7640 
 116   1.0000      -0.283885        -7.7249 
 117   1.0000      -0.280353        -7.6288 
 118   1.0000      -0.279366        -7.6019 
 119   1.0000      -0.277100        -7.5403 
 120   1.0000      -0.275694        -7.5020 
 121   1.0000      -0.272589        -7.4175 
 122   1.0000      -0.270585        -7.3630 
 123   1.0000      -0.270457        -7.3595 
 124   1.0000      -0.269693        -7.3387 
 125   1.0000      -0.268783        -7.3140 
 126   1.0000      -0.267856        -7.2887 
 127   1.0000      -0.267820        -7.2878 
 128   1.0000      -0.266906        -7.2629 
 129   1.0000      -0.266802        -7.2601 
 130   1.0000      -0.266269        -7.2456 
 131   1.0000      -0.263020        -7.1571 
 132   1.0000      -0.261944        -7.1279 
 133   1.0000      -0.261518        -7.1163 
 134   1.0000      -0.260823        -7.0974 
 135   1.0000      -0.259453        -7.0601 
 136   1.0000      -0.258695        -7.0394 
 137   1.0000      -0.256570        -6.9816 
 138   1.0000      -0.255147        -6.9429 
 139   1.0000      -0.253876        -6.9083 
 140   1.0000      -0.252106        -6.8602 
 141   1.0000      -0.251060        -6.8317 
 142   1.0000      -0.250741        -6.8230 
 143   1.0000      -0.239322        -6.5123 
 144   1.0000      -0.217454        -5.9172 
 145   1.0000      -0.216221        -5.8837 
 146   1.0000      -0.207722        -5.6524 
 147   1.0000      -0.203137        -5.5276 
 148   0.0000      -0.177479        -4.8294 
 149   0.0000      -0.136279        -3.7083 
 150   0.0000      -0.128836        -3.5058 
 151   0.0000      -0.127705        -3.4750 
 152   0.0000      -0.124970        -3.4006 
 153   0.0000      -0.115026        -3.1300 
 154   0.0000      -0.106606        -2.9009 
 155   0.0000      -0.073993        -2.0135 
 156   0.0000      -0.065407        -1.7798 
 157   0.0000      -0.064488        -1.7548 
 158   0.0000      -0.059760        -1.6261 
 159   0.0000      -0.049055        -1.3349 
 160   0.0000      -0.022843        -0.6216 
 161   0.0000      -0.019522        -0.5312 
 162   0.0000      -0.018106        -0.4927 
 163   0.0000      -0.017341        -0.4719 
 164   0.0000       0.003910         0.1064 
 165   0.0000       0.005663         0.1541 
 166   0.0000       0.008898         0.2421 
 167   0.0000       0.013457         0.3662 
 168   0.0000       0.015990         0.4351 
 169   0.0000       0.032317         0.8794 
 170   0.0000       0.037788         1.0283 
 171   0.0000       0.039441         1.0733 
 172   0.0000       0.049069         1.3352 
 173   0.0000       0.052974         1.4415 
 174   0.0000       0.060060         1.6343 
 175   0.0000       0.076795         2.0897 
 176   0.0000       0.079751         2.1701 
 177   0.0000       0.081703         2.2232 
 178   0.0000       0.083210         2.2643 
 179   0.0000       0.085191         2.3182 
 180   0.0000       0.086560         2.3554 
 181   0.0000       0.092030         2.5043 
 182   0.0000       0.093297         2.5388 
 183   0.0000       0.095552         2.6001 
 184   0.0000       0.102215         2.7814 
 185   0.0000       0.103716         2.8223 
 186   0.0000       0.105144         2.8611 
 187   0.0000       0.114199         3.1075 
 188   0.0000       0.116404         3.1675 
 189   0.0000       0.122475         3.3327 
 190   0.0000       0.126165         3.4331 
 191   0.0000       0.137495         3.7414 
 192   0.0000       0.143252         3.8981 
 193   0.0000       0.148707         4.0465 
 194   0.0000       0.155993         4.2448 
 195   0.0000       0.165617         4.5067 
 196   0.0000       0.171893         4.6775 
 197   0.0000       0.172839         4.7032 
 198   0.0000       0.173872         4.7313 
 199   0.0000       0.179630         4.8880 
 200   0.0000       0.180883         4.9221 
 201   0.0000       0.181628         4.9423 
 202   0.0000       0.184744         5.0271 
 203   0.0000       0.190408         5.1813 
 204   0.0000       0.194703         5.2981 
 205   0.0000       0.203613         5.5406 
 206   0.0000       0.206994         5.6326 
 207   0.0000       0.215528         5.8648 
 208   0.0000       0.223303         6.0764 
 209   0.0000       0.224850         6.1185 
 210   0.0000       0.229221         6.2374 
 211   0.0000       0.241213         6.5637 
 212   0.0000       0.242372         6.5953 
 213   0.0000       0.244297         6.6477 
 214   0.0000       0.250755         6.8234 
 215   0.0000       0.251784         6.8514 
 216   0.0000       0.257593         7.0095 
 217   0.0000       0.261906         7.1268 
 218   0.0000       0.263745         7.1769 
 219   0.0000       0.274346         7.4653 
 220   0.0000       0.277693         7.5564 
 221   0.0000       0.280358         7.6289 
 222   0.0000       0.291952         7.9444 
 223   0.0000       0.297899         8.1063 
 224   0.0000       0.299901         8.1607 
 225   0.0000       0.301463         8.2032 
 226   0.0000       0.306135         8.3304 
 227   0.0000       0.314611         8.5610 
 228   0.0000       0.319674         8.6988 
 229   0.0000       0.320437         8.7195 
 230   0.0000       0.321976         8.7614 
 231   0.0000       0.327269         8.9054 
 232   0.0000       0.329908         8.9773 
 233   0.0000       0.335536         9.1304 
 234   0.0000       0.335792         9.1374 
 235   0.0000       0.346957         9.4412 
 236   0.0000       0.349204         9.5023 
 237   0.0000       0.354726         9.6526 
 238   0.0000       0.355557         9.6752 
 239   0.0000       0.363912         9.9026 
 240   0.0000       0.369374        10.0512 
 241   0.0000       0.369907        10.0657 
 242   0.0000       0.386416        10.5149 
 243   0.0000       0.386538        10.5182 
 244   0.0000       0.389302        10.5934 
 245   0.0000       0.389413        10.5965 
 246   0.0000       0.399282        10.8650 
 247   0.0000       0.403771        10.9872 
 248   0.0000       0.416853        11.3432 
 249   0.0000       0.421414        11.4673 
 250   0.0000       0.422102        11.4860 
 251   0.0000       0.430508        11.7147 
 252   0.0000       0.431784        11.7495 
 253   0.0000       0.434325        11.8186 
 254   0.0000       0.437408        11.9025 
 255   0.0000       0.438455        11.9310 
 256   0.0000       0.440464        11.9856 
 257   0.0000       0.443764        12.0754 
 258   0.0000       0.445760        12.1298 
 259   0.0000       0.454621        12.3709 
 260   0.0000       0.456705        12.4276 
 261   0.0000       0.460330        12.5262 
 262   0.0000       0.471160        12.8209 
 263   0.0000       0.471323        12.8254 
 264   0.0000       0.472082        12.8460 
 265   0.0000       0.473766        12.8918 
 266   0.0000       0.487246        13.2586 
 267   0.0000       0.490042        13.3347 
 268   0.0000       0.496886        13.5210 
 269   0.0000       0.503348        13.6968 
 270   0.0000       0.514595        14.0028 
 271   0.0000       0.521333        14.1862 
 272   0.0000       0.523376        14.2418 
 273   0.0000       0.524099        14.2615 
 274   0.0000       0.532690        14.4952 
 275   0.0000       0.535077        14.5602 
 276   0.0000       0.537372        14.6226 
 277   0.0000       0.541166        14.7259 
 278   0.0000       0.545602        14.8466 
 279   0.0000       0.547793        14.9062 
 280   0.0000       0.549784        14.9604 
 281   0.0000       0.552813        15.0428 
 282   0.0000       0.557105        15.1596 
 283   0.0000       0.562159        15.2971 
 284   0.0000       0.567254        15.4358 
 285   0.0000       0.578311        15.7366 
 286   0.0000       0.582947        15.8628 
 287   0.0000       0.611593        16.6423 
 288   0.0000       0.623044        16.9539 
 289   0.0000       0.624968        17.0062 
 290   0.0000       0.625775        17.0282 
 291   0.0000       0.676710        18.4142 
 292   0.0000       0.691275        18.8106 
 293   0.0000       0.705007        19.1842 
 294   0.0000       0.726472        19.7683 
 295   0.0000       0.739540        20.1239 
 296   0.0000       0.739900        20.1337 
 297   0.0000       0.750153        20.4127 
 298   0.0000       0.755160        20.5489 
 299   0.0000       0.764219        20.7955 
 300   0.0000       0.770326        20.9616 
 301   0.0000       0.773956        21.0604 
 302   0.0000       0.778049        21.1718 
 303   0.0000       0.786700        21.4072 
 304   0.0000       0.790453        21.5093 
 305   0.0000       0.795405        21.6441 
 306   0.0000       0.806599        21.9487 
 307   0.0000       0.810301        22.0494 
 308   0.0000       0.814262        22.1572 
 309   0.0000       0.817196        22.2370 
 310   0.0000       0.846926        23.0460 
 311   0.0000       0.851103        23.1597 
 312   0.0000       0.854963        23.2647 
 313   0.0000       0.862521        23.4704 
 314   0.0000       0.870197        23.6793 
 315   0.0000       0.871453        23.7135 
 316   0.0000       0.884994        24.0819 
 317   0.0000       0.886203        24.1148 
 318   0.0000       0.897583        24.4245 
 319   0.0000       0.901763        24.5382 
 320   0.0000       0.923388        25.1267 
 321   0.0000       0.927300        25.2331 
 322   0.0000       0.936344        25.4792 
 323   0.0000       0.937503        25.5107 
 324   0.0000       0.946468        25.7547 
 325   0.0000       0.954623        25.9766 
 326   0.0000       0.959127        26.0992 
 327   0.0000       0.965661        26.2770 
 328   0.0000       0.976555        26.5734 
 329   0.0000       0.985239        26.8097 
 330   0.0000       0.994415        27.0594 
 331   0.0000       1.012568        27.5534 
 332   0.0000       1.091144        29.6915 
 333   0.0000       1.099352        29.9149 
 334   0.0000       1.125730        30.6327 
 335   0.0000       1.220175        33.2026 
 336   0.0000       1.248118        33.9630 
 337   0.0000       1.273450        34.6523 
 338   0.0000       1.284450        34.9517 
 339   0.0000       1.290650        35.1204 
 340   0.0000       1.293707        35.2036 
 341   0.0000       1.297286        35.3010 
 342   0.0000       1.308393        35.6032 
 343   0.0000       1.308594        35.6087 
 344   0.0000       1.330417        36.2025 
 345   0.0000       1.338427        36.4204 
 346   0.0000       1.340349        36.4728 
 347   0.0000       1.346916        36.6515 
 348   0.0000       1.347765        36.6746 
 349   0.0000       1.361773        37.0557 
 350   0.0000       1.363266        37.0964 
 351   0.0000       1.370184        37.2846 
 352   0.0000       1.372757        37.3546 
 353   0.0000       1.384962        37.6867 
 354   0.0000       1.396630        38.0042 
 355   0.0000       1.409222        38.3469 
 356   0.0000       1.419048        38.6143 
 357   0.0000       1.426264        38.8106 
 358   0.0000       1.433683        39.0125 
 359   0.0000       1.434465        39.0338 
 360   0.0000       1.442024        39.2395 
 361   0.0000       1.442595        39.2550 
 362   0.0000       1.446217        39.3536 
 363   0.0000       1.454165        39.5698 
 364   0.0000       1.466069        39.8938 
 365   0.0000       1.469913        39.9984 
 366   0.0000       1.470422        40.0122 
 367   0.0000       1.476809        40.1860 
 368   0.0000       1.477565        40.2066 
 369   0.0000       1.488321        40.4993 
 370   0.0000       1.490821        40.5673 
 371   0.0000       1.492335        40.6085 
 372   0.0000       1.494460        40.6663 
 373   0.0000       1.500325        40.8259 
 374   0.0000       1.503649        40.9164 
 375   0.0000       1.505947        40.9789 
 376   0.0000       1.508439        41.0467 
 377   0.0000       1.509521        41.0762 
 378   0.0000       1.512419        41.1550 
 379   0.0000       1.515065        41.2270 
 380   0.0000       1.520924        41.3864 
 381   0.0000       1.523435        41.4548 
 382   0.0000       1.523684        41.4616 
 383   0.0000       1.524437        41.4820 
 384   0.0000       1.526171        41.5292 
 385   0.0000       1.532264        41.6950 
 386   0.0000       1.532453        41.7002 
 387   0.0000       1.535077        41.7716 
 388   0.0000       1.535420        41.7809 
 389   0.0000       1.538219        41.8571 
 390   0.0000       1.544194        42.0197 
 391   0.0000       1.548153        42.1274 
 392   0.0000       1.549495        42.1639 
 393   0.0000       1.551887        42.2290 
 394   0.0000       1.553126        42.2627 
 395   0.0000       1.554096        42.2891 
 396   0.0000       1.554674        42.3048 
 397   0.0000       1.555983        42.3405 
 398   0.0000       1.557068        42.3700 
 399   0.0000       1.558388        42.4059 
 400   0.0000       1.559658        42.4404 
 401   0.0000       1.561280        42.4846 
 402   0.0000       1.562765        42.5250 
 403   0.0000       1.564095        42.5612 
 404   0.0000       1.567365        42.6502 
 405   0.0000       1.570320        42.7306 
 406   0.0000       1.571203        42.7546 
 407   0.0000       1.571875        42.7729 
 408   0.0000       1.573819        42.8258 
 409   0.0000       1.576187        42.8902 
 410   0.0000       1.576693        42.9040 
 411   0.0000       1.576907        42.9098 
 412   0.0000       1.580154        42.9982 
 413   0.0000       1.580963        43.0202 
 414   0.0000       1.582391        43.0591 
 415   0.0000       1.582855        43.0717 
 416   0.0000       1.584280        43.1104 
 417   0.0000       1.584984        43.1296 
 418   0.0000       1.585258        43.1371 
 419   0.0000       1.586974        43.1838 
 420   0.0000       1.591302        43.3015 
 421   0.0000       1.593609        43.3643 
 422   0.0000       1.595218        43.4081 
 423   0.0000       1.595722        43.4218 
 424   0.0000       1.597484        43.4697 
 425   0.0000       1.601085        43.5677 
 426   0.0000       1.601791        43.5869 
 427   0.0000       1.603259        43.6269 
 428   0.0000       1.604479        43.6601 
 429   0.0000       1.609734        43.8031 
 430   0.0000       1.613226        43.8981 
 431   0.0000       1.615471        43.9592 
 432   0.0000       1.616831        43.9962 
 433   0.0000       1.617570        44.0163 
 434   0.0000       1.618698        44.0470 
 435   0.0000       1.624347        44.2007 
 436   0.0000       1.625524        44.2328 
 437   0.0000       1.625806        44.2404 
 438   0.0000       1.627426        44.2845 
 439   0.0000       1.627602        44.2893 
 440   0.0000       1.634653        44.4812 
 441   0.0000       1.636409        44.5289 
 442   0.0000       1.640706        44.6459 
 443   0.0000       1.642251        44.6879 
 444   0.0000       1.642409        44.6922 
 445   0.0000       1.649677        44.8900 
 446   0.0000       1.651371        44.9361 
 447   0.0000       1.652022        44.9538 
 448   0.0000       1.655179        45.0397 
 449   0.0000       1.656470        45.0748 
 450   0.0000       1.658607        45.1330 
 451   0.0000       1.658796        45.1381 
 452   0.0000       1.663329        45.2615 
 453   0.0000       1.674298        45.5600 
 454   0.0000       1.674557        45.5670 
 455   0.0000       1.674986        45.5787 
 456   0.0000       1.676214        45.6121 
 457   0.0000       1.679495        45.7014 
 458   0.0000       1.682451        45.7818 
 459   0.0000       1.683817        45.8190 
 460   0.0000       1.685585        45.8671 
 461   0.0000       1.686004        45.8785 
 462   0.0000       1.692128        46.0451 
 463   0.0000       1.697956        46.2037 
 464   0.0000       1.706932        46.4480 
 465   0.0000       1.709034        46.5052 
 466   0.0000       1.713421        46.6246 
 467   0.0000       1.714527        46.6546 
 468   0.0000       1.723620        46.9021 
 469   0.0000       1.723760        46.9059 
 470   0.0000       1.727622        47.0110 
 471   0.0000       1.744083        47.4589 
 472   0.0000       1.748895        47.5899 
 473   0.0000       1.754334        47.7379 
 474   0.0000       1.770522        48.1783 
 475   0.0000       1.773845        48.2688 
 476   0.0000       1.783397        48.5287 
 477   0.0000       1.788294        48.6619 
 478   0.0000       1.798069        48.9279 
 479   0.0000       1.813581        49.3500 
 480   0.0000       1.814421        49.3729 
 481   0.0000       1.820358        49.5345 
 482   0.0000       1.829446        49.7818 
 483   0.0000       1.837138        49.9911 
 484   0.0000       1.840080        50.0711 
 485   0.0000       1.842267        50.1306 
 486   0.0000       1.853255        50.4296 
 487   0.0000       1.862576        50.6833 
 488   0.0000       1.876336        51.0577 
 489   0.0000       1.882054        51.2133 
 490   0.0000       1.885799        51.3152 
 491   0.0000       1.891228        51.4629 
 492   0.0000       1.892415        51.4952 
 493   0.0000       1.903268        51.7906 
 494   0.0000       1.908587        51.9353 
 495   0.0000       1.917175        52.1690 
 496   0.0000       1.918535        52.2060 
 497   0.0000       1.921035        52.2740 
 498   0.0000       1.935061        52.6557 
 499   0.0000       1.940787        52.8115 
 500   0.0000       1.959945        53.3328 
 501   0.0000       1.965974        53.4969 
 502   0.0000       2.008900        54.6649 
 503   0.0000       2.023366        55.0586 
 504   0.0000       2.131808        58.0095 
 505   0.0000       2.244046        61.0636 
 506   0.0000       2.272577        61.8400 
 507   0.0000       2.301541        62.6281 
 508   0.0000       2.340389        63.6852 
 509   0.0000       2.361588        64.2621 
 510   0.0000       2.447933        66.6116 
 511   0.0000       2.456357        66.8409 
 512   0.0000       2.503604        68.1265 
 513   0.0000       2.516198        68.4692 
 514   0.0000       2.527774        68.7842 
 515   0.0000       2.535601        68.9972 
 516   0.0000       2.571452        69.9728 
 517   0.0000       2.574372        70.0522 
 518   0.0000       2.604153        70.8626 
 519   0.0000       2.620876        71.3177 
 520   0.0000       2.634516        71.6888 
 521   0.0000       2.667989        72.5997 
 522   0.0000       3.055321        83.1395 
 523   0.0000       3.305380        89.9440 
 524   0.0000       3.306749        89.9812 
 525   0.0000       3.307316        89.9967 
 526   0.0000       3.318850        90.3105 
 527   0.0000       3.325222        90.4839 
 528   0.0000       3.328872        90.5832 
 529   0.0000       3.336342        90.7865 
 530   0.0000       3.359363        91.4129 
 531   0.0000       3.436292        93.5063 
 532   0.0000       3.504697        95.3676 
 533   0.0000       3.561716        96.9192 
 534   0.0000       3.636096        98.9432 
 535   0.0000      24.092075       655.5787 
 536   0.0000      24.137099       656.8038 
 537   0.0000      24.281915       660.7445 
 538   0.0000      24.438792       665.0133 
 539   0.0000      24.523928       667.3300 
 540   0.0000      24.536442       667.6705 
 541   0.0000      24.912171       677.8946 
 542   0.0000      24.943443       678.7456 
 543   0.0000      24.992670       680.0851 
 544   0.0000      25.056603       681.8248 
 545   0.0000      25.182498       685.2506 
 546   0.0000      25.504171       694.0038 
 547   0.0000      25.695026       699.1972 
 548   0.0000      25.747305       700.6198 
 549   0.0000      25.770762       701.2581 
 550   0.0000      25.882302       704.2932 
 551   0.0000      25.884157       704.3437 
 552   0.0000      26.060123       709.1320 
 553   0.0000      26.294032       715.4970 
 554   0.0000      26.336491       716.6524 
 555   0.0000      26.495142       720.9695 
 556   0.0000      26.519138       721.6224 
 557   0.0000      26.565678       722.8888 
 558   0.0000      26.620795       724.3887 
 559   0.0000      26.707573       726.7500 
 560   0.0000      26.821366       729.8465 
 561   0.0000      26.906110       732.1525 
 562   0.0000      26.982051       734.2189 
 563   0.0000      27.016739       735.1629 
 564   0.0000      27.353274       744.3204 
 565   0.0000      27.392264       745.3814 
 566   0.0000      27.578053       750.4370 
 567   0.0000      27.608173       751.2566 
 568   0.0000      27.713942       754.1347 
 569   0.0000      27.814318       756.8661 
 570   0.0000      28.059022       763.5248 
 571   0.0000      28.099922       764.6377 
 572   0.0000      28.121896       765.2357 
 573   0.0000      28.402592       772.8738 
 574   0.0000      28.766939       782.7882 
 575   0.0000      29.557987       804.3137 
 576   0.0000      31.690808       862.3507 
 577   0.0000      44.384720      1207.7696 
 578   0.0000      44.489175      1210.6120 
 579   0.0000      44.514933      1211.3129 
 580   0.0000      44.537739      1211.9335 
 581   0.0000      44.605672      1213.7820 
 582   0.0000      44.612583      1213.9701 
 583   0.0000      44.628460      1214.4021 
 584   0.0000      44.631217      1214.4772 
 585   0.0000      44.652469      1215.0554 
 586   0.0000      44.653497      1215.0834 
 587   0.0000      44.660767      1215.2812 
 588   0.0000      44.679910      1215.8022 
 589   0.0000      44.723053      1216.9762 
 590   0.0000      44.740693      1217.4562 
 591   0.0000     205.248791      5585.1035 
 592   0.0000     205.291291      5586.2600 
 593   0.0000     205.302126      5586.5549 
 594   0.0000     205.308987      5586.7416 
 595   0.0000     205.341553      5587.6277 
 596   0.0000     205.342907      5587.6646 
 597   0.0000     205.350572      5587.8732 
 598   0.0000     205.354966      5587.9927 
 599   0.0000     205.356666      5588.0390 
 600   0.0000     205.360698      5588.1487 
 601   0.0000     205.364192      5588.2438 
 602   0.0000     205.367664      5588.3382 
 603   0.0000     205.388256      5588.8986 
 604   0.0000     205.395408      5589.0932 

                 SPIN DOWN ORBITALS
  NO   OCC          E(Eh)            E(eV) 
   0   1.0000    -235.050536     -6396.0502 
   1   1.0000     -27.137890      -738.4595 
   2   1.0000     -23.206383      -631.4778 
   3   1.0000     -23.205039      -631.4412 
   4   1.0000     -23.204956      -631.4390 
   5   1.0000      -4.126219      -112.2801 
   6   1.0000      -4.125948      -112.2727 
   7   1.0000      -4.125482      -112.2601 
   8   1.0000      -4.125441      -112.2590 
   9   1.0000      -4.124591      -112.2358 
  10   1.0000      -4.124256      -112.2267 
  11   1.0000      -4.117613      -112.0459 
  12   1.0000      -4.117519      -112.0434 
  13   1.0000      -4.117461      -112.0418 
  14   1.0000      -4.117406      -112.0403 
  15   1.0000      -4.117234      -112.0356 
  16   1.0000      -4.117111      -112.0323 
  17   1.0000      -4.116674      -112.0204 
  18   1.0000      -4.116004      -112.0022 
  19   1.0000      -3.037365       -82.6509 
  20   1.0000      -2.315280       -63.0020 
  21   1.0000      -2.314993       -62.9942 
  22   1.0000      -2.314659       -62.9851 
  23   1.0000      -2.314433       -62.9789 
  24   1.0000      -2.311693       -62.9044 
  25   1.0000      -2.311523       -62.8997 
  26   1.0000      -2.311448       -62.8977 
  27   1.0000      -2.311312       -62.8940 
  28   1.0000      -2.310675       -62.8767 
  29   1.0000      -2.310504       -62.8720 
  30   1.0000      -2.310022       -62.8589 
  31   1.0000      -2.309813       -62.8532 
  32   1.0000      -2.308920       -62.8289 
  33   1.0000      -2.308842       -62.8268 
  34   1.0000      -2.308616       -62.8206 
  35   1.0000      -2.308581       -62.8197 
  36   1.0000      -2.308149       -62.8079 
  37   1.0000      -2.308076       -62.8059 
  38   1.0000      -2.305942       -62.7479 
  39   1.0000      -2.305361       -62.7321 
  40   1.0000      -2.305283       -62.7299 
  41   1.0000      -2.305218       -62.7282 
  42   1.0000      -2.304597       -62.7113 
  43   1.0000      -2.304479       -62.7080 
  44   1.0000      -2.304160       -62.6994 
  45   1.0000      -2.304065       -62.6968 
  46   1.0000      -2.303932       -62.6932 
  47   1.0000      -2.303486       -62.6810 
  48   1.0000      -2.303417       -62.6792 
  49   1.0000      -2.303020       -62.6684 
  50   1.0000      -2.302261       -62.6477 
  51   1.0000      -2.302224       -62.6467 
  52   1.0000      -2.301349       -62.6229 
  53   1.0000      -2.301304       -62.6217 
  54   1.0000      -2.301197       -62.6188 
  55   1.0000      -2.300493       -62.5996 
  56   1.0000      -2.299784       -62.5803 
  57   1.0000      -2.299738       -62.5790 
  58   1.0000      -2.299502       -62.5726 
  59   1.0000      -2.299231       -62.5652 
  60   1.0000      -2.299126       -62.5624 
  61   1.0000      -2.299061       -62.5606 
  62   1.0000      -1.896125       -51.5962 
  63   1.0000      -1.894783       -51.5597 
  64   1.0000      -1.894713       -51.5578 
  65   1.0000      -0.428789       -11.6679 
  66   1.0000      -0.395107       -10.7514 
  67   1.0000      -0.392127       -10.6703 
  68   1.0000      -0.387502       -10.5445 
  69   1.0000      -0.381411       -10.3787 
  70   1.0000      -0.376264       -10.2387 
  71   1.0000      -0.372795       -10.1443 
  72   1.0000      -0.372141       -10.1265 
  73   1.0000      -0.371223       -10.1015 
  74   1.0000      -0.370306       -10.0765 
  75   1.0000      -0.367564       -10.0019 
  76   1.0000      -0.366991        -9.9863 
  77   1.0000      -0.365693        -9.9510 
  78   1.0000      -0.362368        -9.8605 
  79   1.0000      -0.360702        -9.8152 
  80   1.0000      -0.359435        -9.7807 
  81   1.0000      -0.355662        -9.6780 
  82   1.0000      -0.355361        -9.6699 
  83   1.0000      -0.352745        -9.5987 
  84   1.0000      -0.346274        -9.4226 
  85   1.0000      -0.345962        -9.4141 
  86   1.0000      -0.345193        -9.3932 
  87   1.0000      -0.343777        -9.3546 
  88   1.0000      -0.340555        -9.2670 
  89   1.0000      -0.336828        -9.1655 
  90   1.0000      -0.334781        -9.1099 
  91   1.0000      -0.333577        -9.0771 
  92   1.0000      -0.333150        -9.0655 
  93   1.0000      -0.331693        -9.0258 
  94   1.0000      -0.322314        -8.7706 
  95   1.0000      -0.321291        -8.7428 
  96   1.0000      -0.321103        -8.7377 
  97   1.0000      -0.317606        -8.6425 
  98   1.0000      -0.317013        -8.6264 
  99   1.0000      -0.314104        -8.5472 
 100   1.0000      -0.312529        -8.5043 
 101   1.0000      -0.309565        -8.4237 
 102   1.0000      -0.306053        -8.3281 
 103   1.0000      -0.302622        -8.2348 
 104   1.0000      -0.301921        -8.2157 
 105   1.0000      -0.298674        -8.1273 
 106   1.0000      -0.294845        -8.0231 
 107   1.0000      -0.294295        -8.0082 
 108   1.0000      -0.290173        -7.8960 
 109   1.0000      -0.290044        -7.8925 
 110   1.0000      -0.288002        -7.8369 
 111   1.0000      -0.285575        -7.7709 
 112   1.0000      -0.282694        -7.6925 
 113   1.0000      -0.282561        -7.6889 
 114   1.0000      -0.282241        -7.6802 
 115   1.0000      -0.281090        -7.6489 
 116   1.0000      -0.278246        -7.5715 
 117   1.0000      -0.277888        -7.5617 
 118   1.0000      -0.275307        -7.4915 
 119   1.0000      -0.273339        -7.4379 
 120   1.0000      -0.272149        -7.4056 
 121   1.0000      -0.268693        -7.3115 
 122   1.0000      -0.268426        -7.3043 
 123   1.0000      -0.267638        -7.2828 
 124   1.0000      -0.266804        -7.2601 
 125   1.0000      -0.266255        -7.2452 
 126   1.0000      -0.262986        -7.1562 
 127   1.0000      -0.262590        -7.1454 
 128   1.0000      -0.261351        -7.1117 
 129   1.0000      -0.259400        -7.0586 
 130   1.0000      -0.258374        -7.0307 
 131   1.0000      -0.256414        -6.9774 
 132   1.0000      -0.256089        -6.9685 
 133   1.0000      -0.256047        -6.9674 
 134   1.0000      -0.253335        -6.8936 
 135   1.0000      -0.251670        -6.8483 
 136   1.0000      -0.251422        -6.8415 
 137   1.0000      -0.250172        -6.8075 
 138   1.0000      -0.239886        -6.5276 
 139   1.0000      -0.223059        -6.0697 
 140   1.0000      -0.216095        -5.8803 
 141   1.0000      -0.209753        -5.7077 
 142   1.0000      -0.184093        -5.0094 
 143   0.0000      -0.213547        -5.8109 
 144   0.0000      -0.138384        -3.7656 
 145   0.0000      -0.130104        -3.5403 
 146   0.0000      -0.127430        -3.4676 
 147   0.0000      -0.126509        -3.4425 
 148   0.0000      -0.126007        -3.4288 
 149   0.0000      -0.112359        -3.0574 
 150   0.0000      -0.110053        -2.9947 
 151   0.0000      -0.108702        -2.9579 
 152   0.0000      -0.106258        -2.8914 
 153   0.0000      -0.104902        -2.8545 
 154   0.0000      -0.094507        -2.5717 
 155   0.0000      -0.071506        -1.9458 
 156   0.0000      -0.058196        -1.5836 
 157   0.0000      -0.058033        -1.5792 
 158   0.0000      -0.053596        -1.4584 
 159   0.0000      -0.046797        -1.2734 
 160   0.0000      -0.018511        -0.5037 
 161   0.0000      -0.018074        -0.4918 
 162   0.0000      -0.017236        -0.4690 
 163   0.0000      -0.014902        -0.4055 
 164   0.0000       0.010594         0.2883 
 165   0.0000       0.011470         0.3121 
 166   0.0000       0.017071         0.4645 
 167   0.0000       0.021944         0.5971 
 168   0.0000       0.022315         0.6072 
 169   0.0000       0.034639         0.9426 
 170   0.0000       0.039253         1.0681 
 171   0.0000       0.040923         1.1136 
 172   0.0000       0.051655         1.4056 
 173   0.0000       0.059064         1.6072 
 174   0.0000       0.061531         1.6744 
 175   0.0000       0.077425         2.1068 
 176   0.0000       0.081729         2.2239 
 177   0.0000       0.082109         2.2343 
 178   0.0000       0.085797         2.3347 
 179   0.0000       0.086460         2.3527 
 180   0.0000       0.087157         2.3717 
 181   0.0000       0.094008         2.5581 
 182   0.0000       0.094482         2.5710 
 183   0.0000       0.095991         2.6121 
 184   0.0000       0.105908         2.8819 
 185   0.0000       0.107232         2.9179 
 186   0.0000       0.109956         2.9921 
 187   0.0000       0.115484         3.1425 
 188   0.0000       0.116187         3.1616 
 189   0.0000       0.126746         3.4489 
 190   0.0000       0.128710         3.5024 
 191   0.0000       0.142315         3.8726 
 192   0.0000       0.148858         4.0506 
 193   0.0000       0.154190         4.1957 
 194   0.0000       0.162342         4.4176 
 195   0.0000       0.171664         4.6712 
 196   0.0000       0.174452         4.7471 
 197   0.0000       0.176261         4.7963 
 198   0.0000       0.182939         4.9780 
 199   0.0000       0.183407         4.9908 
 200   0.0000       0.185561         5.0494 
 201   0.0000       0.186385         5.0718 
 202   0.0000       0.191629         5.2145 
 203   0.0000       0.194693         5.2979 
 204   0.0000       0.203312         5.5324 
 205   0.0000       0.204972         5.5776 
 206   0.0000       0.211566         5.7570 
 207   0.0000       0.217046         5.9061 
 208   0.0000       0.224458         6.1078 
 209   0.0000       0.225646         6.1401 
 210   0.0000       0.232038         6.3141 
[...]
      f+1     :     0.000625
      f-1     :     0.000687
      f+2     :     0.000680
      f-2     :     0.000592
      f+3     :     0.000833
      f-3     :     0.001060
  5 Aus       :     2.554185  s :     2.554185
      pz      :     2.106704  p :     6.563387
      px      :     2.269772
      py      :     2.186911
      dz2     :     1.969414  d :     9.886859
      dxz     :     1.989169
      dyz     :     1.969445
      dx2y2   :     1.979097
      dxy     :     1.979734
      f0      :     0.000743  f :     0.006740
      f+1     :     0.001030
      f-1     :     0.000817
      f+2     :     0.001055
      f-2     :     0.000812
      f+3     :     0.001143
      f-3     :     0.001139
  6 Aus       :     2.519350  s :     2.519350
      pz      :     2.258455  p :     6.562298
      px      :     2.217213
      py      :     2.086630
      dz2     :     1.970211  d :     9.893948
      dxz     :     1.969719
      dyz     :     2.006329
      dx2y2   :     1.951540
      dxy     :     1.996150
      f0      :     0.000741  f :     0.005941
      f+1     :     0.000874
      f-1     :     0.000981
      f+2     :     0.000823
      f-2     :     0.001217
      f+3     :     0.000579
      f-3     :     0.000725
  7 Aus       :     2.673270  s :     2.673270
      pz      :     2.095004  p :     6.380184
      px      :     2.105083
      py      :     2.180097
      dz2     :     1.987650  d :     9.860845
      dxz     :     1.960722
      dyz     :     1.970253
      dx2y2   :     1.966441
      dxy     :     1.975779
      f0      :     0.000470  f :     0.004769
      f+1     :     0.000568
      f-1     :     0.000468
      f+2     :     0.000685
      f-2     :     0.000662
      f+3     :     0.001001
      f-3     :     0.000915
  8 Aus       :     2.518255  s :     2.518255
      pz      :     2.253771  p :     6.562773
      px      :     2.207379
      py      :     2.101623
      dz2     :     1.970109  d :     9.895303
      dxz     :     1.971902
      dyz     :     2.005805
      dx2y2   :     1.966996
      dxy     :     1.980491
      f0      :     0.000772  f :     0.005943
      f+1     :     0.000890
      f-1     :     0.000893
      f+2     :     0.000914
      f-2     :     0.001128
      f+3     :     0.000726
      f-3     :     0.000620
  9 Aus       :     2.580076  s :     2.580076
      pz      :     2.207913  p :     6.478672
      px      :     2.170508
      py      :     2.100251
      dz2     :     1.976900  d :     9.932368
      dxz     :     1.979716
      dyz     :     2.004101
      dx2y2   :     1.988559
      dxy     :     1.983092
      f0      :     0.000718  f :     0.005654
      f+1     :     0.000769
      f-1     :     0.000830
      f+2     :     0.000950
      f-2     :     0.001060
      f+3     :     0.000775
      f-3     :     0.000553
 10 Aus       :     2.560108  s :     2.560108
      pz      :     2.181334  p :     6.514022
      px      :     2.104718
      py      :     2.227970
      dz2     :     1.984398  d :     9.921246
      dxz     :     1.990425
      dyz     :     1.971209
      dx2y2   :     1.980087
      dxy     :     1.995127
      f0      :     0.000856  f :     0.005333
      f+1     :     0.000585
      f-1     :     0.000533
      f+2     :     0.000695
      f-2     :     0.000981
      f+3     :     0.000848
      f-3     :     0.000836
 11 Aus       :     2.553980  s :     2.553980
      pz      :     2.134337  p :     6.562857
      px      :     2.246740
      py      :     2.181779
      dz2     :     1.991976  d :     9.886863
      dxz     :     1.963261
      dyz     :     1.972684
      dx2y2   :     1.986753
      dxy     :     1.972188
      f0      :     0.000918  f :     0.006724
      f+1     :     0.001209
      f-1     :     0.000690
      f+2     :     0.000786
      f-2     :     0.001014
      f+3     :     0.001112
      f-3     :     0.000995
 12 Aus       :     2.673421  s :     2.673421
      pz      :     2.090163  p :     6.380754
      px      :     2.106165
      py      :     2.184425
      dz2     :     1.968894  d :     9.860892
      dxz     :     1.974608
      dyz     :     1.965682
      dx2y2   :     1.965919
      dxy     :     1.985788
      f0      :     0.000513  f :     0.004761
      f+1     :     0.000557
      f-1     :     0.000722
      f+2     :     0.000704
      f-2     :     0.000457
      f+3     :     0.000934
      f-3     :     0.000874
 13 Aus       :     2.553749  s :     2.553749
      pz      :     2.123195  p :     6.562804
      px      :     2.274957
      py      :     2.164651
      dz2     :     1.987926  d :     9.885788
      dxz     :     1.969519
      dyz     :     1.969975
      dx2y2   :     1.981223
      dxy     :     1.977146
      f0      :     0.000830  f :     0.006669
      f+1     :     0.001081
      f-1     :     0.000735
      f+2     :     0.000933
      f-2     :     0.001030
      f+3     :     0.000946
      f-3     :     0.001115
 14 Mns       :     6.266578  s :     6.266578
      pz      :     4.202370  p :    12.536138
      px      :     4.138436
      py      :     4.195332
      dz2     :     1.262982  d :     6.521350
      dxz     :     1.334018
      dyz     :     1.430799
      dx2y2   :     1.228209
      dxy     :     1.265341
      f0      :     0.000079  f :     0.000742
      f+1     :     0.000094
      f-1     :     0.000160
      f+2     :     0.000088
      f-2     :     0.000155
      f+3     :     0.000066
      f-3     :     0.000100

SPIN
  0 Aus       :    -0.033279  s :    -0.033279
      pz      :    -0.015702  p :    -0.062220
      px      :    -0.031525
      py      :    -0.014993
      dz2     :     0.003294  d :    -0.003661
      dxz     :    -0.000173
      dyz     :     0.005730
      dx2y2   :    -0.010133
      dxy     :    -0.002379
      f0      :     0.000007  f :     0.000138
      f+1     :     0.000019
      f-1     :     0.000032
      f+2     :    -0.000001
      f-2     :     0.000088
      f+3     :     0.000003
      f-3     :    -0.000011
  1 Aus       :    -0.032204  s :    -0.032204
      pz      :    -0.009187  p :    -0.062097
      px      :    -0.039740
      py      :    -0.013170
      dz2     :     0.001059  d :    -0.003632
      dxz     :    -0.001937
      dyz     :     0.010124
      dx2y2   :    -0.008259
      dxy     :    -0.004618
      f0      :     0.000006  f :     0.000138
      f+1     :    -0.000002
      f-1     :     0.000097
      f+2     :     0.000028
      f-2     :     0.000028
      f+3     :    -0.000002
      f-3     :    -0.000017
  2 Aus       :    -0.029785  s :    -0.029785
      pz      :    -0.017157  p :    -0.030360
      px      :     0.008051
      py      :    -0.021255
      dz2     :    -0.006389  d :    -0.012349
      dxz     :     0.002299
      dyz     :     0.004046
      dx2y2   :    -0.013653
      dxy     :     0.001349
      f0      :    -0.000001  f :     0.000088
      f+1     :     0.000014
      f-1     :     0.000073
      f+2     :    -0.000005
      f-2     :     0.000021
      f+3     :     0.000005
      f-3     :    -0.000019
  3 Aus       :    -0.022022  s :    -0.022022
      pz      :     0.008757  p :    -0.042907
      px      :    -0.024165
      py      :    -0.027498
      dz2     :    -0.007670  d :    -0.032287
      dxz     :    -0.000668
      dyz     :     0.001433
      dx2y2   :    -0.015037
      dxy     :    -0.010345
      f0      :    -0.000012  f :    -0.000078
      f+1     :    -0.000017
      f-1     :    -0.000028
      f+2     :     0.000005
      f-2     :    -0.000004
      f+3     :    -0.000013
      f-3     :    -0.000009
  4 Aus       :    -0.031871  s :    -0.031871
      pz      :    -0.010751  p :    -0.053065
      px      :    -0.048741
      py      :     0.006427
      dz2     :    -0.008758  d :    -0.027472
      dxz     :    -0.005707
      dyz     :     0.001803
      dx2y2   :    -0.013670
      dxy     :    -0.001140
      f0      :    -0.000025  f :    -0.000076
      f+1     :    -0.000006
      f-1     :     0.000003
      f+2     :     0.000001
      f-2     :    -0.000002
      f+3     :    -0.000036
      f-3     :    -0.000011
  5 Aus       :    -0.027933  s :    -0.027933
      pz      :    -0.010477  p :    -0.031134
      px      :     0.005190
      py      :    -0.025848
      dz2     :    -0.001231  d :    -0.013807
      dxz     :     0.002935
      dyz     :    -0.001343
      dx2y2   :    -0.013523
      dxy     :    -0.000646
      f0      :     0.000005  f :     0.000071
      f+1     :     0.000033
      f-1     :     0.000062
      f+2     :    -0.000035
      f-2     :     0.000022
      f+3     :    -0.000014
      f-3     :    -0.000002
  6 Aus       :    -0.098795  s :    -0.098795
      pz      :     0.003452  p :    -0.024244
      px      :    -0.018504
      py      :    -0.009192
      dz2     :     0.001005  d :     0.010897
      dxz     :     0.000544
      dyz     :     0.001761
      dx2y2   :     0.006256
      dxy     :     0.001330
      f0      :     0.000007  f :     0.000208
      f+1     :     0.000005
      f-1     :     0.000050
      f+2     :     0.000021
      f-2     :    -0.000001
      f+3     :     0.000043
      f-3     :     0.000083
  7 Aus       :    -0.031487  s :    -0.031487
      pz      :    -0.018719  p :    -0.063642
      px      :    -0.020751
      py      :    -0.024173
      dz2     :     0.002379  d :    -0.005197
      dxz     :    -0.000263
      dyz     :     0.003691
      dx2y2   :    -0.010889
      dxy     :    -0.000115
      f0      :     0.000003  f :     0.000130
      f+1     :     0.000019
      f-1     :     0.000017
      f+2     :     0.000030
      f-2     :     0.000043
      f+3     :    -0.000036
      f-3     :     0.000053
  8 Aus       :    -0.100187  s :    -0.100187
      pz      :     0.003706  p :    -0.022632
      px      :    -0.013113
      py      :    -0.013225
      dz2     :     0.000509  d :     0.009996
      dxz     :     0.000730
      dyz     :     0.002018
      dx2y2   :     0.005276
      dxy     :     0.001462
      f0      :     0.000004  f :     0.000200
      f+1     :     0.000005
      f-1     :     0.000050
      f+2     :     0.000022
      f-2     :     0.000000
      f+3     :     0.000053
      f-3     :     0.000066
  9 Aus       :    -0.024630  s :    -0.024630
      pz      :     0.007525  p :    -0.044583
      px      :    -0.039045
      py      :    -0.013063
      dz2     :    -0.006164  d :    -0.031626
      dxz     :    -0.001679
      dyz     :    -0.000190
      dx2y2   :    -0.012828
      dxy     :    -0.010765
      f0      :    -0.000002  f :    -0.000077
      f+1     :    -0.000008
      f-1     :    -0.000042
      f+2     :    -0.000002
      f-2     :    -0.000005
      f+3     :    -0.000005
      f-3     :    -0.000014
 10 Aus       :    -0.033370  s :    -0.033370
      pz      :    -0.036809  p :    -0.052828
      px      :    -0.021580
      py      :     0.005562
      dz2     :    -0.010408  d :    -0.027037
      dxz     :    -0.009940
      dyz     :     0.001555
      dx2y2   :    -0.006570
      dxy     :    -0.001673
      f0      :    -0.000017  f :    -0.000076
      f+1     :    -0.000024
      f-1     :    -0.000004
      f+2     :     0.000003
      f-2     :     0.000003
      f+3     :    -0.000027
      f-3     :    -0.000011
 11 Aus       :    -0.028411  s :    -0.028411
      pz      :    -0.019565  p :    -0.031279
      px      :     0.011161
      py      :    -0.022875
      dz2     :    -0.004279  d :    -0.013285
      dxz     :    -0.001582
      dyz     :    -0.003363
      dx2y2   :    -0.007286
      dxy     :     0.003225
      f0      :     0.000007  f :     0.000073
      f+1     :     0.000007
      f-1     :     0.000019
      f+2     :     0.000009
      f-2     :     0.000054
      f+3     :    -0.000037
      f-3     :     0.000014
 12 Aus       :    -0.031250  s :    -0.031250
      pz      :    -0.004902  p :    -0.062826
      px      :    -0.032956
      py      :    -0.024967
      dz2     :     0.005237  d :    -0.004451
      dxz     :     0.003382
      dyz     :     0.002406
      dx2y2   :    -0.014636
      dxy     :    -0.000840
      f0      :     0.000017  f :     0.000132
      f+1     :     0.000061
      f-1     :     0.000063
      f+2     :    -0.000011
      f-2     :     0.000039
      f+3     :    -0.000032
      f-3     :    -0.000004
 13 Aus       :    -0.029413  s :    -0.029413
      pz      :    -0.012373  p :    -0.030473
      px      :     0.006250
      py      :    -0.024349
      dz2     :    -0.000031  d :    -0.012688
      dxz     :    -0.007697
      dyz     :     0.001459
      dx2y2   :    -0.007933
      dxy     :     0.001514
      f0      :     0.000006  f :     0.000084
      f+1     :    -0.000003
      f-1     :     0.000044
      f+2     :     0.000007
      f-2     :     0.000059
      f+3     :    -0.000003
      f-3     :    -0.000024
 14 Mns       :     0.022183  s :     0.022183
      pz      :     0.008602  p :     0.016442
      px      :    -0.004091
      py      :     0.011932
      dz2     :     0.833825  d :     4.295900
      dxz     :     0.861591
      dyz     :     0.849776
      dx2y2   :     0.858867
      dxy     :     0.891841
      f0      :     0.000005  f :     0.000047
      f+1     :     0.000004
      f-1     :     0.000010
      f+2     :     0.000006
      f-2     :     0.000011
      f+3     :     0.000005
      f-3     :     0.000006


                      *****************************
                      * MAYER POPULATION ANALYSIS *
                      *****************************

  NA   - Mulliken gross atomic population
  ZA   - Total nuclear charge
  QA   - Mulliken gross atomic charge
  VA   - Mayer's total valence
  BVA  - Mayer's bonded valence
  FA   - Mayer's free valence

  ATOM       NA         ZA         QA         VA         BVA        FA
  0 Au    18.7592    19.0000     0.2408     1.5123     1.5000     0.0123
  1 Au    18.7591    19.0000     0.2409     1.5116     1.4997     0.0119
  2 Au    19.0255    19.0000    -0.0255     1.9070     1.8953     0.0118
  3 Au    18.9549    19.0000     0.0451     1.6574     1.6508     0.0065
  4 Au    18.8157    19.0000     0.1843     1.6054     1.5905     0.0149
  5 Au    19.0221    19.0000    -0.0221     1.8981     1.8870     0.0111
  6 Au    18.7602    19.0000     0.2398     1.6895     1.6414     0.0481
  7 Au    18.7562    19.0000     0.2438     1.5122     1.5001     0.0121
  8 Au    18.7597    19.0000     0.2403     1.6898     1.6408     0.0490
  9 Au    18.9608    19.0000     0.0392     1.6667     1.6595     0.0072
 10 Au    18.8193    19.0000     0.1807     1.6106     1.5952     0.0154
 11 Au    19.0210    19.0000    -0.0210     1.8965     1.8853     0.0112
 12 Au    18.7570    19.0000     0.2430     1.5117     1.4999     0.0119
 13 Au    19.0202    19.0000    -0.0202     1.8998     1.8882     0.0116
 14 Mn    26.8091    25.0000    -1.8091     8.6233     4.5734     4.0499

  Mayer bond orders larger than 0.100000
B(  0-Au,  5-Au) :   0.3250 B(  0-Au,  6-Au) :   0.2281 B(  0-Au,  7-Au) :   0.2340 
B(  0-Au, 14-Mn) :   0.4183 B(  1-Au,  6-Au) :   0.2288 B(  1-Au, 11-Au) :   0.3227 
B(  1-Au, 12-Au) :   0.2340 B(  1-Au, 14-Mn) :   0.4193 B(  2-Au,  4-Au) :   0.3163 
B(  2-Au,  5-Au) :   0.1552 B(  2-Au,  7-Au) :   0.3256 B(  2-Au,  8-Au) :   0.1792 
B(  2-Au,  9-Au) :   0.2752 B(  2-Au, 14-Mn) :   0.4210 B(  3-Au,  4-Au) :   0.2560 
B(  3-Au,  5-Au) :   0.2791 B(  3-Au,  6-Au) :   0.2148 B(  3-Au, 10-Au) :   0.2596 
B(  3-Au, 11-Au) :   0.2778 B(  3-Au, 14-Mn) :   0.1643 B(  4-Au,  5-Au) :   0.3112 
B(  4-Au,  9-Au) :   0.2551 B(  4-Au, 10-Au) :   0.1779 B(  5-Au,  6-Au) :   0.1854 
B(  5-Au, 14-Mn) :   0.4090 B(  6-Au, 11-Au) :   0.1843 B(  6-Au, 14-Mn) :   0.3749 
B(  7-Au,  8-Au) :   0.2303 B(  7-Au, 14-Mn) :   0.4148 B(  8-Au,  9-Au) :   0.2281 
B(  8-Au, 12-Au) :   0.2308 B(  8-Au, 13-Au) :   0.1798 B(  8-Au, 14-Mn) :   0.3674 
B(  9-Au, 10-Au) :   0.2588 B(  9-Au, 13-Au) :   0.2746 B(  9-Au, 14-Mn) :   0.1702 
B( 10-Au, 11-Au) :   0.3112 B( 10-Au, 13-Au) :   0.3135 B( 11-Au, 13-Au) :   0.1555 
B( 11-Au, 14-Mn) :   0.4112 B( 12-Au, 13-Au) :   0.3227 B( 12-Au, 14-Mn) :   0.4167 
B( 13-Au, 14-Mn) :   0.4188 

-------
TIMINGS
-------

Total SCF time: 0 days 0 hours 2 min 25 sec 

Total time                  ....     145.994 sec
Sum of individual times     ....     142.970 sec  ( 97.9%)

Fock matrix formation       ....     132.720 sec  ( 90.9%)
  Split-RI-J                ....      25.947 sec  ( 19.6% of F)
  XC integration            ....     106.051 sec  ( 79.9% of F)
    Basis function eval.    ....       6.326 sec  (  6.0% of XC)
    Density eval.           ....      54.190 sec  ( 51.1% of XC)
    XC-Functional eval.     ....       3.074 sec  (  2.9% of XC)
    XC-Potential eval.      ....      35.750 sec  ( 33.7% of XC)
Diagonalization             ....       6.093 sec  (  4.2%)
Density matrix formation    ....       0.259 sec  (  0.2%)
Population analysis         ....       0.292 sec  (  0.2%)
Initial guess               ....       0.669 sec  (  0.5%)
Orbital Transformation      ....       0.000 sec  (  0.0%)
Orbital Orthonormalization  ....       0.604 sec  (  0.4%)
DIIS solution               ....       0.000 sec  (  0.0%)
Grid generation             ....       2.936 sec  (  2.0%)

Maximum memory used throughout the entire SCF-calculation: 101.0 MB

-------------------------   --------------------
FINAL SINGLE POINT ENERGY     -3052.853448073617
-------------------------   --------------------


                            ***************************************
                            *     ORCA property calculations      *
                            ***************************************

                                    ---------------------
                                    Active property flags
                                    ---------------------
   (+) Dipole Moment


------------------------------------------------------------------------------
                       ORCA ELECTRIC PROPERTIES CALCULATION
------------------------------------------------------------------------------

Dipole Moment Calculation                       ... on
Quadrupole Moment Calculation                   ... off
Polarizability Calculation                      ... off
GBWName                                         ... scan_job2.gbw
Electron density                                ... scan_job2.scfp
The origin for moment calculation is the CENTER OF MASS  = (14.384308, 14.208802 15.478331)

-------------
DIPOLE MOMENT
-------------
                                X             Y             Z
Electronic contribution:    -29.99905      -5.72138       6.89442
Nuclear contribution   :     30.45745       5.80395      -6.99722
                        -----------------------------------------
Total Dipole Moment    :      0.45840       0.08257      -0.10280
                        -----------------------------------------
Magnitude (a.u.)       :      0.47698
Magnitude (Debye)      :      1.21240



--------------------
Rotational spectrum 
--------------------
 
Rotational constants in cm-1:     0.001075     0.001035     0.000971 
Rotational constants in MHz :    32.223867    31.017240    29.114727 

 Dipole components along the rotational axes: 
x,y,z [a.u.] :    -0.475397     0.038735     0.003468 
x,y,z [Debye]:    -1.208363     0.098456     0.008815 

 

Timings for individual modules:

Sum of individual times         ...      169.509 sec (=   2.825 min)
GTO integral calculation        ...       23.236 sec (=   0.387 min)  13.7 %
SCF iterations                  ...      146.274 sec (=   2.438 min)  86.3 %



                             ****ORCA TERMINATED NORMALLY****
TOTAL RUN TIME: 0 days 0 hours 15 minutes 11 seconds 394 msec
