
                                 *****************
                                 * O   R   C   A *
                                 *****************

                                            #,                                       
                                            ###                                      
                                            ####                                     
                                            #####                                    
                                            ######                                   
                                           ########,                                 
                                     ,,################,,,,,                         
                               ,,#################################,,                 
                          ,,##########################################,,             
                       ,#########################################, ''#####,          
                    ,#############################################,,   '####,        
                  ,##################################################,,,,####,       
                ,###########''''           ''''###############################       
              ,#####''   ,,,,##########,,,,          '''####'''          '####       
            ,##' ,,,,###########################,,,                        '##       
           ' ,,###''''                  '''############,,,                           
         ,,##''                                '''############,,,,        ,,,,,,###''
      ,#''                                            '''#######################'''  
     '                                                          ''''####''''         
             ,#######,   #######,   ,#######,      ##                                
            ,#'     '#,  ##    ##  ,#'     '#,    #''#        ######   ,####,        
            ##       ##  ##   ,#'  ##            #'  '#       #        #'  '#        
            ##       ##  #######   ##           ,######,      #####,   #    #        
            '#,     ,#'  ##    ##  '#,     ,#' ,#      #,         ##   #,  ,#        
             '#######'   ##     ##  '#######'  #'      '#     #####' # '####'        



                  #######################################################
                  #                        -***-                        #
                  #          Department of theory and spectroscopy      #
                  #    Directorship and core code : Frank Neese         #
                  #        Max Planck Institute fuer Kohlenforschung    #
                  #                Kaiser Wilhelm Platz 1               #
                  #                 D-45470 Muelheim/Ruhr               #
                  #                      Germany                        #
                  #                                                     #
                  #                  All rights reserved                #
                  #                        -***-                        #
                  #######################################################


                         Program Version 5.0.3 -  RELEASE  -


 With contributions from (in alphabetic order):
   Daniel Aravena         : Magnetic Suceptibility
   Michael Atanasov       : Ab Initio Ligand Field Theory (pilot matlab implementation)
   Alexander A. Auer      : GIAO ZORA, VPT2 properties, NMR spectrum
   Ute Becker             : Parallelization
   Giovanni Bistoni       : ED, misc. LED, open-shell LED, HFLD
   Martin Brehm           : Molecular dynamics
   Dmytro Bykov           : SCF Hessian
   Vijay G. Chilkuri      : MRCI spin determinant printing, contributions to CSF-ICE
   Dipayan Datta          : RHF DLPNO-CCSD density
   Achintya Kumar Dutta   : EOM-CC, STEOM-CC
   Dmitry Ganyushin       : Spin-Orbit,Spin-Spin,Magnetic field MRCI
   Miquel Garcia          : C-PCM and meta-GGA Hessian, CC/C-PCM, Gaussian charge scheme
   Yang Guo               : DLPNO-NEVPT2, F12-NEVPT2, CIM, IAO-localization
   Andreas Hansen         : Spin unrestricted coupled pair/coupled cluster methods
   Benjamin Helmich-Paris : MC-RPA, TRAH-SCF, COSX integrals
   Lee Huntington         : MR-EOM, pCC
   Robert Izsak           : Overlap fitted RIJCOSX, COSX-SCS-MP3, EOM
   Marcus Kettner         : VPT2
   Christian Kollmar      : KDIIS, OOCD, Brueckner-CCSD(T), CCSD density, CASPT2, CASPT2-K
   Simone Kossmann        : Meta GGA functionals, TD-DFT gradient, OOMP2, MP2 Hessian
   Martin Krupicka        : Initial AUTO-CI
   Lucas Lang             : DCDCAS
   Marvin Lechner         : AUTO-CI (C++ implementation), FIC-MRCC
   Dagmar Lenk            : GEPOL surface, SMD
   Dimitrios Liakos       : Extrapolation schemes; Compound Job, initial MDCI parallelization
   Dimitrios Manganas     : Further ROCIS development; embedding schemes
   Dimitrios Pantazis     : SARC Basis sets
   Anastasios Papadopoulos: AUTO-CI, single reference methods and gradients
   Taras Petrenko         : DFT Hessian,TD-DFT gradient, ASA, ECA, R-Raman, ABS, FL, XAS/XES, NRVS
   Peter Pinski           : DLPNO-MP2, DLPNO-MP2 Gradient
   Christoph Reimann      : Effective Core Potentials
   Marius Retegan         : Local ZFS, SOC
   Christoph Riplinger    : Optimizer, TS searches, QM/MM, DLPNO-CCSD(T), (RO)-DLPNO pert. Triples
   Tobias Risthaus        : Range-separated hybrids, TD-DFT gradient, RPA, STAB
   Michael Roemelt        : Original ROCIS implementation
   Masaaki Saitow         : Open-shell DLPNO-CCSD energy and density
   Barbara Sandhoefer     : DKH picture change effects
   Avijit Sen             : IP-ROCIS
   Kantharuban Sivalingam : CASSCF convergence, NEVPT2, FIC-MRCI
   Bernardo de Souza      : ESD, SOC TD-DFT
   Georgi Stoychev        : AutoAux, RI-MP2 NMR, DLPNO-MP2 response
   Willem Van den Heuvel  : Paramagnetic NMR
   Boris Wezisla          : Elementary symmetry handling
   Frank Wennmohs         : Technical directorship


 We gratefully acknowledge several colleagues who have allowed us to
 interface, adapt or use parts of their codes:
   Stefan Grimme, W. Hujo, H. Kruse, P. Pracht,  : VdW corrections, initial TS optimization,
                  C. Bannwarth, S. Ehlert          DFT functionals, gCP, sTDA/sTD-DF
   Ed Valeev, F. Pavosevic, A. Kumar             : LibInt (2-el integral package), F12 methods
   Garnet Chan, S. Sharma, J. Yang, R. Olivares  : DMRG
   Ulf Ekstrom                                   : XCFun DFT Library
   Mihaly Kallay                                 : mrcc  (arbitrary order and MRCC methods)
   Jiri Pittner, Ondrej Demel                    : Mk-CCSD
   Frank Weinhold                                : gennbo (NPA and NBO analysis)
   Christopher J. Cramer and Donald G. Truhlar   : smd solvation model
   Lars Goerigk                                  : TD-DFT with DH, B97 family of functionals
   V. Asgeirsson, H. Jonsson                     : NEB implementation
   FAccTs GmbH                                   : IRC, NEB, NEB-TS, DLPNO-Multilevel, CI-OPT
                                                   MM, QMMM, 2- and 3-layer-ONIOM, Crystal-QMMM,
                                                   LR-CPCM, SF, NACMEs, symmetry and pop. for TD-DFT,
                                                   nearIR, NL-DFT gradient (VV10), updates on ESD,
                                                   ML-optimized integration grids
   S Lehtola, MJT Oliveira, MAL Marques          : LibXC Library
   Liviu Ungur et al                             : ANISO software


 Your calculation uses the libint2 library for the computation of 2-el integrals
 For citations please refer to: http://libint.valeyev.net

 Your ORCA version has been built with support for libXC version: 5.1.0
 For citations please refer to: https://tddft.org/programs/libxc/

 This ORCA versions uses:
   CBLAS   interface :  Fast vector & matrix operations
   LAPACKE interface :  Fast linear algebra routines
   SCALAPACK package :  Parallel linear algebra routines
   Shared memory     :  Shared parallel matrices
   BLAS/LAPACK       :  OpenBLAS 0.3.15  USE64BITINT DYNAMIC_ARCH NO_AFFINITY Haswell SINGLE_THREADED
        Core in use  :  Haswell
   Copyright (c) 2011-2014, The OpenBLAS Project




***************************************
The coordinates will be read from file: pbe.xyz
***************************************


================================================================================

cite the ECPs for Au [Def2-ECP] as follows:
Ce-Yb(ecp-28): M. Dolg, H. Stoll, H.Preuss, J. Chem. Phys., 1989, 90, 1730-1734.
Y-Cd(ecp-28), Hf-Hg(ecp-46): D. Andrae,U. Haeussermann, M. Dolg, H. Stoll, H. Preuss, Theor. Chim. Acta, 1990, 77, 123-141.
In-Sb(ecp-28), Tl-Bi(ecp-46): B. Metz, H. Stoll, M. Dolg, J. Chem. Phys., 2000, 113, 2563-2569.
Te-Xe(ecp-28), Po-Rn(ecp-46): K. A. Peterson, D. Figgen, E. Goll, H. Stoll, M. Dolg, J. Chem. Phys., 2003, 119, 11113-11123.
Rb(ecp-28), Cs(ecp-46): T. Leininger, A. Nicklass, W. Kuechle, H. Stoll, M. Dolg, A. Bergner, Chem. Phys. Lett., 1996, 255, 274-280.
Sr(ecp-28), Ba(ecp-46): M. Kaupp, P. V. Schleyer, H. Stoll and H. Preuss, J. Chem. Phys., 1991, 94, 1360-1366.
La(ecp-46): M. Dolg, H. Stoll, A. Savin, H. Preuss, Theor. Chim. Acta, 1989, 75, 173-194.
Lu(ecp-28): X. Cao, M. Dolg, J. Chem. Phys., 2001, 115, 7348-7355.

ECP parameters for Au [Def2-ECP] have been obtained from:
TURBOMOLE (7.0.2)

----- Orbital basis set information -----
Your calculation utilizes the basis: def2-TZVP
   F. Weigend and R. Ahlrichs, Phys. Chem. Chem. Phys. 7, 3297 (2005).

----- AuxJ basis set information -----
Your calculation utilizes the auxiliary basis: def2/J
   F. Weigend, Phys. Chem. Chem. Phys. 8, 1057 (2006).

================================================================================
                                        WARNINGS
                       Please study these warnings very carefully!
================================================================================

Using LibXC functional ID 497 : Re-regularized SCAN exchange by Furness et al
[ 1]  J. W. Furness, A. D. Kaplan, J. Ning, J. P. Perdew, and J. Sun, J. Phys. Chem. Lett. 11, 8208 (2020)
[ 2]  J. W. Furness, A. D. Kaplan, J. Ning, J. P. Perdew, and J. Sun, J. Phys. Chem. Lett. 11, 9248 (2020)
Using LibXC functional ID 498 : Re-regularized SCAN correlation by Furness et al
[ 1]  J. W. Furness, A. D. Kaplan, J. Ning, J. P. Perdew, and J. Sun, J. Phys. Chem. Lett. 11, 8208 (2020)
[ 2]  J. W. Furness, A. D. Kaplan, J. Ning, J. P. Perdew, and J. Sun, J. Phys. Chem. Lett. 11, 9248 (2020)
Using LibXC functional ID 497 : Re-regularized SCAN exchange by Furness et al
[ 1]  J. W. Furness, A. D. Kaplan, J. Ning, J. P. Perdew, and J. Sun, J. Phys. Chem. Lett. 11, 8208 (2020)
[ 2]  J. W. Furness, A. D. Kaplan, J. Ning, J. P. Perdew, and J. Sun, J. Phys. Chem. Lett. 11, 9248 (2020)
Using LibXC functional ID 498 : Re-regularized SCAN correlation by Furness et al
[ 1]  J. W. Furness, A. D. Kaplan, J. Ning, J. P. Perdew, and J. Sun, J. Phys. Chem. Lett. 11, 8208 (2020)
[ 2]  J. W. Furness, A. D. Kaplan, J. Ning, J. P. Perdew, and J. Sun, J. Phys. Chem. Lett. 11, 9248 (2020)

WARNING: your system is open-shell and RHF/RKS was chosen
  ===> : WILL SWITCH to UHF/UKS


INFO   : the flag for use of the SHARK integral package has been found!



***************************************
The coordinates will be read from file: pbe.xyz
***************************************


================================================================================

cite the ECPs for Au [Def2-ECP] as follows:
Ce-Yb(ecp-28): M. Dolg, H. Stoll, H.Preuss, J. Chem. Phys., 1989, 90, 1730-1734.
Y-Cd(ecp-28), Hf-Hg(ecp-46): D. Andrae,U. Haeussermann, M. Dolg, H. Stoll, H. Preuss, Theor. Chim. Acta, 1990, 77, 123-141.
In-Sb(ecp-28), Tl-Bi(ecp-46): B. Metz, H. Stoll, M. Dolg, J. Chem. Phys., 2000, 113, 2563-2569.
Te-Xe(ecp-28), Po-Rn(ecp-46): K. A. Peterson, D. Figgen, E. Goll, H. Stoll, M. Dolg, J. Chem. Phys., 2003, 119, 11113-11123.
Rb(ecp-28), Cs(ecp-46): T. Leininger, A. Nicklass, W. Kuechle, H. Stoll, M. Dolg, A. Bergner, Chem. Phys. Lett., 1996, 255, 274-280.
Sr(ecp-28), Ba(ecp-46): M. Kaupp, P. V. Schleyer, H. Stoll and H. Preuss, J. Chem. Phys., 1991, 94, 1360-1366.
La(ecp-46): M. Dolg, H. Stoll, A. Savin, H. Preuss, Theor. Chim. Acta, 1989, 75, 173-194.
Lu(ecp-28): X. Cao, M. Dolg, J. Chem. Phys., 2001, 115, 7348-7355.

ECP parameters for Au [Def2-ECP] have been obtained from:
TURBOMOLE (7.0.2)

----- Orbital basis set information -----
Your calculation utilizes the basis: def2-TZVP
   F. Weigend and R. Ahlrichs, Phys. Chem. Chem. Phys. 7, 3297 (2005).

----- AuxJ basis set information -----
Your calculation utilizes the auxiliary basis: def2/J
   F. Weigend, Phys. Chem. Chem. Phys. 8, 1057 (2006).

================================================================================
                                        WARNINGS
                       Please study these warnings very carefully!
================================================================================

Using LibXC functional ID 497 : Re-regularized SCAN exchange by Furness et al
[ 1]  J. W. Furness, A. D. Kaplan, J. Ning, J. P. Perdew, and J. Sun, J. Phys. Chem. Lett. 11, 8208 (2020)
[ 2]  J. W. Furness, A. D. Kaplan, J. Ning, J. P. Perdew, and J. Sun, J. Phys. Chem. Lett. 11, 9248 (2020)
Using LibXC functional ID 498 : Re-regularized SCAN correlation by Furness et al
[ 1]  J. W. Furness, A. D. Kaplan, J. Ning, J. P. Perdew, and J. Sun, J. Phys. Chem. Lett. 11, 8208 (2020)
[ 2]  J. W. Furness, A. D. Kaplan, J. Ning, J. P. Perdew, and J. Sun, J. Phys. Chem. Lett. 11, 9248 (2020)
Using LibXC functional ID 497 : Re-regularized SCAN exchange by Furness et al
[ 1]  J. W. Furness, A. D. Kaplan, J. Ning, J. P. Perdew, and J. Sun, J. Phys. Chem. Lett. 11, 8208 (2020)
[ 2]  J. W. Furness, A. D. Kaplan, J. Ning, J. P. Perdew, and J. Sun, J. Phys. Chem. Lett. 11, 9248 (2020)
Using LibXC functional ID 498 : Re-regularized SCAN correlation by Furness et al
[ 1]  J. W. Furness, A. D. Kaplan, J. Ning, J. P. Perdew, and J. Sun, J. Phys. Chem. Lett. 11, 8208 (2020)
[ 2]  J. W. Furness, A. D. Kaplan, J. Ning, J. P. Perdew, and J. Sun, J. Phys. Chem. Lett. 11, 9248 (2020)

INFO   : the flag for use of the SHARK integral package has been found!

================================================================================
                                       INPUT FILE
================================================================================
NAME = scan.inp
|  1> !R2SCAN def2-TZVP VERYSLOWCONV
|  2> 
|  3> %scf
|  4>   AutoTRAHIter 200
|  5>   maxiter 400
|  6> end
|  7> 
|  8> %pal nprocs 6 end 
|  9> 
| 10> *xyzfile 0 5 pbe.xyz
| 11> 
| 12> $new_job
| 13> 
| 14> !R2SCAN def2-TZVP VERYSLOWCONV
| 15> %scf
| 16>   AutoTRAHIter 200
| 17>   maxiter 400
| 18> end
| 19> 
| 20> 
| 21> %pal nprocs 6 end 
| 22> 
| 23> *xyzfile 0 3 pbe.xyz
| 24> 
| 25> 
| 26> 
| 27> 
| 28> 
| 29>                          ****END OF INPUT****
================================================================================


                 $$$$$$$$$$$$$$$$$$$$$$$$$$$$$$$$$$$$$$$$$$$$$$ 
                 $ THERE ARE  2 JOBS TO BE PROCESSED THIS RUN $
                 $$$$$$$$$$$$$$$$$$$$$$$$$$$$$$$$$$$$$$$$$$$$$$ 




                 $$$$$$$$$$$$$$$$  JOB NUMBER  1 $$$$$$$$$$$$$$


                       ****************************
                       * Single Point Calculation *
                       ****************************

---------------------------------
CARTESIAN COORDINATES (ANGSTROEM)
---------------------------------
  Au     9.023081    6.213688    7.079266
  Au     8.362296    8.366166    8.976971
  Au     6.918633    5.974785    8.980674
  Au     6.542715    5.034884    6.330456
  Au     9.293757    9.041493    6.470640
  Au    10.539101    7.042015    4.930472
  Au     9.154281    9.173433    3.646438
  Au     7.795006    6.831498    4.429112
  Au     4.367545    6.481367    7.522559
  Au     4.471562    9.185399    6.579876
  Au     5.542244    8.483135    9.136457
  Au     5.032704    6.902330    4.838924
  Au     7.024320   10.347571    7.524517
  Au     8.200830   11.287058    5.162118
  Au     5.410520   11.605255    5.604612
  Au     6.399490    9.256639    4.393886
  Fe     6.736717    7.676563    6.854290

----------------------------
CARTESIAN COORDINATES (A.U.)
----------------------------
  NO LB      ZA    FRAG     MASS         X           Y           Z
   0 Au   19.0000*   0   196.966   17.051151   11.742168   13.377875
   1 Au   19.0000*   0   196.966   15.802450   15.809763   16.964017
   2 Au   19.0000*   0   196.966   13.074321   11.290707   16.971015
   3 Au   19.0000*   0   196.966   12.363939    9.514551   11.962827
   4 Au   19.0000*   0   196.966   17.562655   17.085945   12.227737
   5 Au   19.0000*   0   196.966   19.916016   13.307479    9.317242
   6 Au   19.0000*   0   196.966   17.299085   17.335276    6.890769
   7 Au   19.0000*   0   196.966   14.730427   12.909661    8.369808
   8 Au   19.0000*   0   196.966    8.253464   12.248008   14.215577
   9 Au   19.0000*   0   196.966    8.450028   17.357888   12.434164
  10 Au   19.0000*   0   196.966   10.473323   16.030802   17.265401
  11 Au   19.0000*   0   196.966    9.510433   13.043514    9.144241
  12 Au   19.0000*   0   196.966   13.274041   19.554076   14.219276
  13 Au   19.0000*   0   196.966   15.497323   21.329448    9.754990
  14 Au   19.0000*   0   196.966   10.224402   21.930753   10.591182
  15 Au   19.0000*   0   196.966   12.093284   17.492514    8.303241
  16 Fe   26.0000    0    55.850   12.730550   14.506601   12.952730
* core charge reduced due to ECP

--------------------------------
INTERNAL COORDINATES (ANGSTROEM)
--------------------------------
 Au     0   0   0     0.000000000000     0.00000000     0.00000000
 Au     1   0   0     2.944670175658     0.00000000     0.00000000
 Au     2   1   0     2.793363911609    59.40582640     0.00000000
 Au     3   2   1     2.836968059614   110.54063963   322.08145371
 Au     2   1   3     2.757785880082    61.15220068   213.19046594
 Au     1   2   3     2.757129452736   113.95640568   162.21872796
 Au     5   2   1     2.830720349588   154.35585692    64.55236606
 Au     6   1   2     2.797452123325    65.02021245   261.54077749
 Au     4   3   2     2.871373544776    62.97634601   261.71417788
 Au     9   4   3     2.865529784074   108.13706008    98.92339621
 Au     9   4   3     2.826952290295   106.19743424    35.52421487
 Au     8   6   1     2.793434072112   160.35499588    33.97188369
 Au     2   1   3     2.797458065717   106.88568337   255.08305710
 Au     7   5   2     2.770156488919    60.43807814    92.75614152
 Au    10   9   4     2.772811841505   162.08677611   332.43499705
 Au    12   8   6     2.758429795907    60.52791799    78.57143512
 Fe    11   9   4     2.699186973976    59.30939397    32.76472848

---------------------------
INTERNAL COORDINATES (A.U.)
---------------------------
 Au     0   0   0     0.000000000000     0.00000000     0.00000000
 Au     1   0   0     5.564620186720     0.00000000     0.00000000
 Au     2   1   0     5.278692785320    59.40582640     0.00000000
 Au     3   2   1     5.361092683352   110.54063963   322.08145371
 Au     2   1   3     5.211460049350    61.15220068   213.19046594
 Au     1   2   3     5.210219581439   113.95640568   162.21872796
 Au     5   2   1     5.349286222439   154.35585692    64.55236606
 Au     6   1   2     5.286418385841    65.02021245   261.54077749
 Au     4   3   2     5.426109627814    62.97634601   261.71417788
 Au     9   4   3     5.415066520495   108.13706008    98.92339621
 Au     9   4   3     5.342165622319   106.19743424    35.52421487
 Au     8   6   1     5.278825369456   160.35499588    33.97188369
 Au     2   1   3     5.286429615334   106.88568337   255.08305710
 Au     7   5   2     5.234837112162    60.43807814    92.75614152
 Au    10   9   4     5.239855001338   162.08677611   332.43499705
 Au    12   8   6     5.212676873913    60.52791799    78.57143512
 Fe    11   9   4     5.100724165062    59.30939397    32.76472848

---------------------
BASIS SET INFORMATION
---------------------
There are 2 groups of distinct atoms

 Group   1 Type Au  : 8s7p6d1f contracted to 6s4p3d1f pattern {311111/4111/411/1}
 Group   2 Type Fe  : 17s11p7d1f contracted to 6s4p4d1f pattern {842111/6311/4111/1}

Atom   0Au   basis set group =>   1
Atom   1Au   basis set group =>   1
Atom   2Au   basis set group =>   1
Atom   3Au   basis set group =>   1
Atom   4Au   basis set group =>   1
Atom   5Au   basis set group =>   1
Atom   6Au   basis set group =>   1
Atom   7Au   basis set group =>   1
Atom   8Au   basis set group =>   1
Atom   9Au   basis set group =>   1
Atom  10Au   basis set group =>   1
Atom  11Au   basis set group =>   1
Atom  12Au   basis set group =>   1
Atom  13Au   basis set group =>   1
Atom  14Au   basis set group =>   1
Atom  15Au   basis set group =>   1
Atom  16Fe   basis set group =>   2
---------------------------------
AUXILIARY/J BASIS SET INFORMATION
---------------------------------
There are 2 groups of distinct atoms

 Group   1 Type Au  : 11s5p5d3f3g contracted to 8s5p5d2f3g pattern {41111111/11111/11111/21/111}
 Group   2 Type Fe  : 19s5p5d3f3g contracted to 8s5p5d2f3g pattern {121111111/11111/11111/21/111}

Atom   0Au   basis set group =>   1
Atom   1Au   basis set group =>   1
Atom   2Au   basis set group =>   1
Atom   3Au   basis set group =>   1
Atom   4Au   basis set group =>   1
Atom   5Au   basis set group =>   1
Atom   6Au   basis set group =>   1
Atom   7Au   basis set group =>   1
Atom   8Au   basis set group =>   1
Atom   9Au   basis set group =>   1
Atom  10Au   basis set group =>   1
Atom  11Au   basis set group =>   1
Atom  12Au   basis set group =>   1
Atom  13Au   basis set group =>   1
Atom  14Au   basis set group =>   1
Atom  15Au   basis set group =>   1
Atom  16Fe   basis set group =>   2
-------------------------
ECP PARAMETER INFORMATION
-------------------------

 Group 1, Type Au ECP Def2-ECP (replacing 60 core electrons, lmax=3)

Atom   0Au   ECP group =>   1
Atom   1Au   ECP group =>   1
Atom   2Au   ECP group =>   1
Atom   3Au   ECP group =>   1
Atom   4Au   ECP group =>   1
Atom   5Au   ECP group =>   1
Atom   6Au   ECP group =>   1
Atom   7Au   ECP group =>   1
Atom   8Au   ECP group =>   1
Atom   9Au   ECP group =>   1
Atom  10Au   ECP group =>   1
Atom  11Au   ECP group =>   1
Atom  12Au   ECP group =>   1
Atom  13Au   ECP group =>   1
Atom  14Au   ECP group =>   1
Atom  15Au   ECP group =>   1



           ************************************************************
           *        Program running with 6 parallel MPI-processes     *
           *              working on a common directory               *
           ************************************************************
------------------------------------------------------------------------------
                           ORCA GTO INTEGRAL CALCULATION
                           -- RI-GTO INTEGRALS CHOSEN --
------------------------------------------------------------------------------
------------------------------------------------------------------------------
                   ___                                                        
                  /   \      - P O W E R E D   B Y -                         
                 /     \                                                     
                 |  |  |   _    _      __       _____    __    __             
                 |  |  |  | |  | |    /  \     |  _  \  |  |  /  |          
                  \  \/   | |  | |   /    \    | | | |  |  | /  /          
                 / \  \   | |__| |  /  /\  \   | |_| |  |  |/  /          
                |  |  |   |  __  | /  /__\  \  |    /   |      \           
                |  |  |   | |  | | |   __   |  |    \   |  |\   \          
                \     /   | |  | | |  |  |  |  | |\  \  |  | \   \       
                 \___/    |_|  |_| |__|  |__|  |_| \__\ |__|  \__/        
                                                                              
                      - O R C A' S   B I G   F R I E N D -                    
                                      &                                       
                       - I N T E G R A L  F E E D E R -                       
                                                                              
 v1 FN, 2020, v2 2021                                                         
------------------------------------------------------------------------------


Reading SHARK input file scan.SHARKINP.tmp ... ok
----------------------
SHARK INTEGRAL PACKAGE
----------------------

Number of atoms                             ...     17
Number of basis functions                   ...    685
Number of shells                            ...    239
Maximum angular momentum                    ...      3
Integral batch strategy                     ... SHARK/LIBINT Hybrid
RI-J (if used) integral strategy            ... SPLIT-RIJ (Revised 2003 algorithm where possible)
Printlevel                                  ...      1
Contraction scheme used                     ... SEGMENTED contraction
Coulomb Range Separation                    ... NOT USED
Exchange Range Separation                   ... NOT USED
Finite Nucleus Model                        ... NOT USED
Auxiliary Coulomb fitting basis             ... AVAILABLE
   # of basis functions in Aux-J            ...   1513
   # of shells in Aux-J                     ...    391
   Maximum angular momentum in Aux-J        ...      4
Auxiliary J/K fitting basis                 ... NOT available
Auxiliary Correlation fitting basis         ... NOT available
Auxiliary 'external' fitting basis          ... NOT available
Integral threshold                          ...     1.000000e-10
Primitive cut-off                           ...     1.000000e-11
Primitive pair pre-selection threshold      ...     1.000000e-11

Calculating pre-screening integrals         ... done (  0.1 sec) Dimension = 239
Organizing shell pair data                  ... done (  0.3 sec)
Shell pair information
Total number of shell pairs                 ...     28680
Shell pairs after pre-screening             ...     22457
Total number of primitive shell pairs       ...     75765
Primitive shell pairs kept                  ...     42815
          la=0 lb=0:   3557 shell pairs
          la=1 lb=0:   5119 shell pairs
          la=1 lb=1:   1928 shell pairs
          la=2 lb=0:   4472 shell pairs
          la=2 lb=1:   3134 shell pairs
          la=2 lb=2:   1289 shell pairs
          la=3 lb=0:   1164 shell pairs
          la=3 lb=1:    888 shell pairs
          la=3 lb=2:    784 shell pairs
          la=3 lb=3:    122 shell pairs

Calculating one electron integrals          ... done (  0.0 sec)
Calculating ECP integrals                   ... done ( 11.3 sec)
Calculating RI/J V-Matrix + Cholesky decomp.... done (  0.1 sec)
Calculating Nuclear repulsion               ... done (  0.0 sec) ENN=   7148.548863995041 Eh

SHARK setup successfully completed in  12.2 seconds

Maximum memory used throughout the entire GTOINT-calculation: 41.3 MB


           ************************************************************
           *        Program running with 6 parallel MPI-processes     *
           *              working on a common directory               *
           ************************************************************
-------------------------------------------------------------------------------
                                 ORCA SCF
-------------------------------------------------------------------------------

------------
SCF SETTINGS
------------
Hamiltonian:
 Density Functional     Method          .... DFT(GTOs)
  Functional kind                       .... Exchange
  Functional name                       .... Re-regularized SCAN exchange by Furness et al
  Functional family                     .... MGGA
  Functional refs                              
    [ 0] J. W. Furness, A. D. Kaplan, J. Ning, J. P. Perdew, and J. Sun, J. Phys. Chem. Lett. 11, 8208 (2020)
    [ 1] J. W. Furness, A. D. Kaplan, J. Ning, J. P. Perdew, and J. Sun, J. Phys. Chem. Lett. 11, 9248 (2020)
  Functional external parameters         .... 8
 Parameter  0 :         c1 parameter
 Parameter  1 :         c2 parameter
 Parameter  2 :          d parameter
 Parameter  3 :         k1 parameter
 Parameter  4 :       taur parameter
 Parameter  5 :     alphar parameter
 Parameter  6 :        eta parameter
 Parameter  7 :        dp2 parameter
  Functional kind                       .... Correlation
  Functional name                       .... Re-regularized SCAN correlation by Furness et al
  Functional family                     .... MGGA
  Functional refs                              
    [ 0] J. W. Furness, A. D. Kaplan, J. Ning, J. P. Perdew, and J. Sun, J. Phys. Chem. Lett. 11, 8208 (2020)
    [ 1] J. W. Furness, A. D. Kaplan, J. Ning, J. P. Perdew, and J. Sun, J. Phys. Chem. Lett. 11, 9248 (2020)
  Functional external parameters         .... 0
 Gradients option       PostSCFGGA      .... off
   Density functional embedding theory  .... OFF
   NL short-range parameter             .... 12.300000
 RI-approximation to the Coulomb term is turned on
   Number of AuxJ basis functions       .... 1513


General Settings:
 Integral files         IntName         .... scan
 Hartree-Fock type      HFTyp           .... UHF
 Total Charge           Charge          ....    0
 Multiplicity           Mult            ....    5
 Number of Electrons    NEL             ....  330
 Basis Dimension        Dim             ....  685
 Nuclear Repulsion      ENuc            ....   7148.5488639950 Eh

Convergence Acceleration:
 DIIS                   CNVDIIS         .... on
   Start iteration      DIISMaxIt       ....     0
   Startup error        DIISStart       ....  0.200000
   # of expansion vecs  DIISMaxEq       ....     5
   Bias factor          DIISBfac        ....   1.050
   Max. coefficient     DIISMaxC        ....  10.000
 Trust-Rad. Augm. Hess. CNVTRAH         .... auto
   Auto Start mean grad. ratio tolernc. ....  1.125000
   Auto Start start iteration           ....   200
   Auto Start num. interpolation iter.  ....    10
   Max. Number of Micro iterations      ....    16
   Max. Number of Macro iterations      .... Maxiter - #DIIS iter
   Number of Davidson start vectors     ....     2
   Converg. threshold I  (grad. norm)   ....   5.000e-05
   Converg. threshold II (energy diff.) ....   1.000e-06
   Grad. Scal. Fac. for Micro threshold ....   0.100
   Minimum threshold for Micro iter.    ....   0.010
   NR start threshold (gradient norm)   ....   0.001
   Initial trust radius                 ....   0.400
   Minimum AH scaling param. (alpha)    ....   1.000
   Maximum AH scaling param. (alpha)    .... 1000.000
   Orbital update algorithm             .... Taylor
   White noise on init. David. guess    .... on
   Maximum white noise                  ....   0.010
   Quad. conv. algorithm                .... NR
 SOSCF                  CNVSOSCF        .... off
 Level Shifting         CNVShift        .... on
   Level shift para.    LevelShift      ....    0.2500
   Turn off err/grad.   ShiftErr        ....    0.0000
 Zerner damping         CNVZerner       .... off
 Static damping         CNVDamp         .... on
   Fraction old density DampFac         ....    0.9200
   Max. Damping (<1)    DampMax         ....    0.9800
   Min. Damping (>=0)   DampMin         ....    0.0000
   Turn off err/grad.   DampErr         ....    0.0030
 Fernandez-Rico         CNVRico         .... off

SCF Procedure:
 Maximum # iterations   MaxIter         ....   400
 SCF integral mode      SCFMode         .... Direct
   Integral package                     .... SHARK and LIBINT hybrid scheme
 Reset frequency        DirectResetFreq ....    20
 Integral Threshold     Thresh          ....  1.000e-10 Eh
 Primitive CutOff       TCut            ....  1.000e-11 Eh

Convergence Tolerance:
 Convergence Check Mode ConvCheckMode   .... Total+1el-Energy
 Convergence forced     ConvForced      .... 0
 Energy Change          TolE            ....  1.000e-06 Eh
 1-El. energy change                    ....  1.000e-03 Eh
 DIIS Error             TolErr          ....  1.000e-06


Diagonalization of the overlap matrix:
Smallest eigenvalue                        ... 2.645e-04
Time for diagonalization                   ...    0.060 sec
Threshold for overlap eigenvalues          ... 1.000e-08
Number of eigenvalues below threshold      ... 0
Time for construction of square roots      ...    0.042 sec
Total time needed                          ...    0.103 sec

Time for model grid setup =    0.465 sec

------------------------------
INITIAL GUESS: MODEL POTENTIAL
------------------------------
Loading Hartree-Fock densities                     ... done
  calling /media/Programs/ORCA501/orca scan_atom79.inp > scan_atom79.out in order to generate an atomic fitting density for atom 0 (Au with ECP) on-the-fly... 
    atom 0 (Au), assumed electronic state with S=2: 1s2 2s2 2p6 3s2 3p6 4s2 3d10 4p6 5s2 4d10 5p6 6s1 4f14 5d10           ... done
Calculating cut-offs                               ... done
Initializing the effective Hamiltonian             ... done
Setting up the integral package (SHARK)            ... done
Starting the Coulomb interaction                   ... done (   0.5 sec)
Reading the grid                                   ... done
Mapping shells                                     ... done
Starting the XC term evaluation                    ... done (   0.5 sec)
  promolecular density results
     # of electrons  =   1290.015748033
     EX              =  -5907.327000823
     EC              =    -78.702092428
     EX+EC           =  -5986.029093251
Transforming the Hamiltonian                       ... done (   0.0 sec)
Diagonalizing the Hamiltonian                      ... done (   0.1 sec)
Back transforming the eigenvectors                 ... done (   0.0 sec)
Now organizing SCF variables                       ... done
                      ------------------
                      INITIAL GUESS DONE (   2.1 sec)
                      ------------------
-------------------
DFT GRID GENERATION
-------------------

General Integration Accuracy     IntAcc      ... 4.388
Radial Grid Type                 RadialGrid  ... OptM3 with GC (2021)
Angular Grid (max. ang.)         AngularGrid ... 4 (Lebedev-302)
Angular grid pruning method      GridPruning ... 4 (adaptive)
Weight generation scheme         WeightScheme... Becke
Basis function cutoff            BFCut       ... 1.0000e-10
Integration weight cutoff        WCut        ... 1.0000e-14
Angular grids for H and He will be reduced by one unit
Partially contracted basis set               ... off
Rotationally invariant grid construction     ... off

Total number of grid points                  ...   186695
Total number of batches                      ...     2924
Average number of points per batch           ...       63
Average number of grid points per atom       ...    10982
Time for grid setup =    1.475 sec

--------------
SCF ITERATIONS
--------------
ITER       Energy         Delta-E        Max-DP      RMS-DP      [F,P]     Damp
               ***  Starting incremental Fock matrix formation  ***
  0  -3433.3140766142   0.000000000000 0.14404011  0.00083684  0.5713549 0.9200
  1  -3434.7770546436  -1.462978029378 0.11667978  0.00072395  0.3676664 0.9200
                               ***Turning on DIIS***
  2  -3435.5649152310  -0.787860587417 0.08892240  0.00056742  0.2521280 0.9200
  3  -3435.9120602140  -0.347144983000 0.04581913  0.00043766  0.2314111 0.9200
  4  -3436.0271021885  -0.115041974556 0.05813999  0.00034884  0.2123042 0.9200
  5  -3436.0885335993  -0.061431410809 0.03207549  0.00031146  0.1946559 0.9200
  6  -3436.1935749606  -0.105041361237 0.03941121  0.00029204  0.1787843 0.9200
  7  -3436.2577798775  -0.064204916892 0.03952869  0.00027280  0.1643042 0.9200
  8  -3436.2993726792  -0.041592801745 0.03281410  0.00025489  0.1514321 0.9200
  9  -3436.3833946759  -0.084021996680 0.02750871  0.00025203  0.1393656 0.9200
 10  -3436.4403542730  -0.056959597148 0.02390734  0.00020753  0.1280789 0.9200
 11  -3436.4886247544  -0.048270481395 0.02735888  0.00019746  0.1176423 0.9200
 12  -3436.5505116292  -0.061886874737 0.03019790  0.00019312  0.1080762 0.9200
 13  -3436.5956815319  -0.045169902706 0.02699850  0.00017775  0.0993243 0.9200
 14  -3436.6343745268  -0.038692994912 0.02218817  0.00016363  0.0914453 0.9200
 15  -3436.6817984575  -0.047423930731 0.01730712  0.00015493  0.0840982 0.9200
 16  -3436.7227933604  -0.040994902903 0.02115040  0.00014058  0.0773244 0.9200
 17  -3436.7583133410  -0.035519980548 0.02170724  0.00013292  0.0711035 0.9200
 18  -3436.7941297695  -0.035816428475 0.02367779  0.00013063  0.0653229 0.9200
 19  -3436.8252254417  -0.031095672262 0.02027625  0.00012377  0.0600593 0.9200
               *** Restarting incremental Fock matrix formation ***
                                   *** Resetting DIIS ***
 20  -3436.8542580820  -0.029032640301 0.01637529  0.00011661  0.0552629 0.9200
 21  -3436.8832784777  -0.029020395700 0.01585796  0.00011141  0.0507742 0.9200
 22  -3436.9105403496  -0.027261871856 0.01675888  0.00010806  0.0466646 0.9200
 23  -3436.9353527219  -0.024812372337 0.01799353  0.00010762  0.0429095 0.9200
 24  -3436.9582691228  -0.022916400851 0.01721598  0.00010828  0.0394751 0.9200
 25  -3436.9801663427  -0.021897219925 0.01698229  0.00010973  0.0363238 0.9200
 26  -3437.0010436854  -0.020877342765 0.01685317  0.00011216  0.0334104 0.9200
 27  -3437.0205969536  -0.019553268193 0.01769064  0.00011549  0.0307217 0.9200
 28  -3437.0388870904  -0.018290136788 0.01818528  0.00011917  0.0282501 0.9200
 29  -3437.0561813088  -0.017294218389 0.01881676  0.00012258  0.0259876 0.9200
 30  -3437.0727395621  -0.016558253279 0.01906613  0.00012511  0.0239125 0.9200
 31  -3437.0884417287  -0.015702166571 0.01895171  0.00012609  0.0219993 0.9200
 32  -3437.1032062199  -0.014764491219 0.01896887  0.00012586  0.0202314 0.9200
 33  -3437.1170630689  -0.013856849035 0.01916093  0.00012477  0.0186030 0.9200
 34  -3437.1301254753  -0.013062406364 0.01900896  0.00012289  0.0171113 0.9200
 35  -3437.1424493901  -0.012323914812 0.01858313  0.00011997  0.0157437 0.9200
 36  -3437.1539867600  -0.011537369940 0.01827267  0.00011604  0.0144843 0.9200
 37  -3437.1647380216  -0.010751261557 0.01825417  0.00011167  0.0133212 0.9200
 38  -3437.1747480530  -0.010010031408 0.01792416  0.00010720  0.0122496 0.9200
 39  -3437.1840952270  -0.009347173962 0.01745800  0.00010254  0.0112672 0.9200
               *** Restarting incremental Fock matrix formation ***
                                   *** Resetting DIIS ***
 40  -3437.1928094368  -0.008714209845 0.01682181  0.00009736  0.0103661 0.9200
 41  -3437.2009307923  -0.008121355499 0.01618141  0.00009213  0.0095277 0.9200
 42  -3437.2084488186  -0.007518026328 0.01550940  0.00008698  0.0087580 0.9200
 43  -3437.2153978373  -0.006949018698 0.01475951  0.00008220  0.0080545 0.9200
 44  -3437.2218272679  -0.006429430591 0.01398633  0.00007768  0.0074114 0.9200
 45  -3437.2277899039  -0.005962636012 0.01323114  0.00007327  0.0068197 0.9200
 46  -3437.2333212667  -0.005531362769 0.01253082  0.00006886  0.0062715 0.9200
 47  -3437.2384356885  -0.005114421785 0.01182571  0.00006457  0.0057654 0.9200
 48  -3437.2431580184  -0.004722329913 0.01110178  0.00006058  0.0053012 0.9200
 49  -3437.2475253667  -0.004367348309 0.01039476  0.00005683  0.0048774 0.9200
 50  -3437.2515700995  -0.004044732833 0.00973955  0.00005322  0.0044885 0.9200
 51  -3437.2553100665  -0.003739966966 0.00912644  0.00004968  0.0041293 0.9200
 52  -3437.2587617396  -0.003451673102 0.00852706  0.00004633  0.0037972 0.9200
 53  -3437.2619463919  -0.003184652320 0.00794085  0.00004325  0.0034915 0.9200
 54  -3437.2648896174  -0.002943225512 0.00739022  0.00004037  0.0032116 0.9200
 55  -3437.2676103680  -0.002720750586 0.08611358  0.00047026  0.0029550 0.0000
 56  -3437.2995521887  -0.031941820639 0.00289082  0.00001752  0.0016930 0.0000
 57  -3437.2994524577   0.000099730972 0.00011542  0.00000080  0.0032952 0.9200
 58  -3437.2994617429  -0.000009285244 0.00017041  0.00000130  0.0031424 0.9200
 59  -3437.2994746840  -0.000012941079 0.00281514  0.00002088  0.0029415 0.0000
               *** Restarting incremental Fock matrix formation ***
                                   *** Resetting DIIS ***
 60  -3437.2996076962  -0.000133012201 0.00112617  0.00000869  0.0003122 0.0000
 61  -3437.2996310652  -0.000023369018 0.00075787  0.00000543  0.0011158 0.0000
 62  -3437.2996406901  -0.000009624845 0.00070268  0.00000473  0.0005635 0.0000
 63  -3437.2996463683  -0.000005678261 0.00058721  0.00000397  0.0004371 0.0000
 64  -3437.2996477703  -0.000001401972 0.00051407  0.00000374  0.0001589 0.0000
 65  -3437.2996511304  -0.000003360100 0.00044066  0.00000318  0.0001568 0.0000
 66  -3437.2996537084  -0.000002578017 0.00034734  0.00000289  0.0001550 0.0000
 67  -3437.2996558389  -0.000002130426 0.00033435  0.00000267  0.0001531 0.0000
 68  -3437.2996587101  -0.000002871217 0.00029214  0.00000254  0.0001508 0.0000
 69  -3437.2996604996  -0.000001789502 0.00026142  0.00000225  0.0001476 0.0000
 70  -3437.2996621871  -0.000001687480 0.00021201  0.00000197  0.0001456 0.0000
 71  -3437.2996640095  -0.000001822482 0.00028540  0.00000204  0.0001456 0.0000
 72  -3437.2996657463  -0.000001736736 0.00025835  0.00000187  0.0001434 0.0000
 73  -3437.2996672956  -0.000001549281 0.00025480  0.00000175  0.0001417 0.0000
 74  -3437.2996677264  -0.000000430840 0.00019131  0.00000149  0.0001405 0.0000
 75  -3437.2996694865  -0.000001760148 0.00018973  0.00000140  0.0001413 0.0000
 76  -3437.2996706063  -0.000001119719 0.00015643  0.00000123  0.0001421 0.0000
                 **** Energy Check signals convergence ****

               *****************************************************
               *                     SUCCESS                       *
               *           SCF CONVERGED AFTER  77 CYCLES          *
               *****************************************************


----------------
TOTAL SCF ENERGY
----------------

Total Energy       :        -3437.29967161 Eh          -93533.67922 eV

Components:
Nuclear Repulsion  :         7148.54886400 Eh          194521.90389 eV
Electronic Energy  :       -10585.84853560 Eh         -288055.58312 eV
One Electron Energy:       -19851.57715289 Eh         -540188.87700 eV
Two Electron Energy:         9265.72861729 Eh          252133.29389 eV

Virial components:
Potential Energy   :        -5433.12854804 Eh         -147842.94398 eV
Kinetic Energy     :         1995.82887643 Eh           54309.26476 eV
Virial Ratio       :            2.72224168


DFT components:
N(Alpha)           :      166.999977012828 electrons
N(Beta)            :      162.999978141213 electrons
N(Total)           :      329.999955154041 electrons
E(X)               :     -248.867515498190 Eh       
E(C)               :      -13.734202375911 Eh       
E(XC)              :     -262.601717874101 Eh       
DFET-embed. en.    :        0.000000000000 Eh       

---------------
SCF CONVERGENCE
---------------

  Last Energy change         ...   -9.9896e-07  Tolerance :   1.0000e-06
  Last MAX-Density change    ...    1.3432e-04  Tolerance :   1.0000e-05
  Last RMS-Density change    ...    1.1043e-06  Tolerance :   1.0000e-06
  Last DIIS Error            ...    1.4357e-04  Tolerance :   1.0000e-06

             **** THE GBW FILE WAS UPDATED (scan.gbw) ****
             **** DENSITY scan.scfp WAS UPDATED ****
             **** ENERGY FILE WAS UPDATED (scan.en.tmp) ****
----------------------
UHF SPIN CONTAMINATION
----------------------

Warning: in a DFT calculation there is little theoretical justification to 
         calculate <S**2> as in Hartree-Fock theory. We will do it anyways
         but you should keep in mind that the values have only limited relevance

Expectation value of <S**2>     :     6.077944
Ideal value S*(S+1) for S=2.0   :     6.000000
Deviation                       :     0.077944

             **** THE GBW FILE WAS UPDATED (scan.gbw) ****
             **** DENSITY scan.scfp WAS UPDATED ****
----------------
ORBITAL ENERGIES
----------------
                 SPIN UP ORBITALS
  NO   OCC          E(Eh)            E(eV) 
   0   1.0000    -255.640048     -6956.3194 
   1   1.0000     -29.938128      -814.6579 
   2   1.0000     -25.780756      -701.5300 
   3   1.0000     -25.763607      -701.0634 
   4   1.0000     -25.760442      -700.9773 
   5   1.0000      -4.126547      -112.2891 
   6   1.0000      -4.125721      -112.2666 
   7   1.0000      -4.125188      -112.2521 
   8   1.0000      -4.124559      -112.2350 
   9   1.0000      -4.123792      -112.2141 
  10   1.0000      -4.123720      -112.2121 
  11   1.0000      -4.122946      -112.1911 
  12   1.0000      -4.122764      -112.1861 
  13   1.0000      -4.119423      -112.0952 
  14   1.0000      -4.118605      -112.0729 
  15   1.0000      -4.117986      -112.0561 
  16   1.0000      -4.117765      -112.0501 
  17   1.0000      -4.115102      -111.9776 
  18   1.0000      -4.113603      -111.9368 
  19   1.0000      -4.110650      -111.8565 
  20   1.0000      -4.110211      -111.8445 
  21   1.0000      -3.520404       -95.7951 
  22   1.0000      -2.316329       -63.0305 
  23   1.0000      -2.315813       -63.0165 
  24   1.0000      -2.314267       -62.9744 
  25   1.0000      -2.313702       -62.9590 
  26   1.0000      -2.313311       -62.9484 
  27   1.0000      -2.312760       -62.9334 
  28   1.0000      -2.312392       -62.9234 
  29   1.0000      -2.311845       -62.9085 
  30   1.0000      -2.311371       -62.8956 
  31   1.0000      -2.310651       -62.8760 
  32   1.0000      -2.310433       -62.8701 
  33   1.0000      -2.309814       -62.8532 
  34   1.0000      -2.309656       -62.8489 
  35   1.0000      -2.309530       -62.8455 
  36   1.0000      -2.309171       -62.8357 
  37   1.0000      -2.308965       -62.8301 
  38   1.0000      -2.308862       -62.8273 
  39   1.0000      -2.307993       -62.8037 
  40   1.0000      -2.307839       -62.7995 
  41   1.0000      -2.307364       -62.7866 
  42   1.0000      -2.307168       -62.7812 
  43   1.0000      -2.307034       -62.7776 
  44   1.0000      -2.306900       -62.7740 
  45   1.0000      -2.306692       -62.7683 
  46   1.0000      -2.306229       -62.7557 
  47   1.0000      -2.305820       -62.7445 
  48   1.0000      -2.305468       -62.7350 
  49   1.0000      -2.305231       -62.7285 
  50   1.0000      -2.304704       -62.7142 
  51   1.0000      -2.304330       -62.7040 
  52   1.0000      -2.304102       -62.6978 
  53   1.0000      -2.303906       -62.6925 
  54   1.0000      -2.303649       -62.6855 
  55   1.0000      -2.302761       -62.6613 
  56   1.0000      -2.301995       -62.6405 
  57   1.0000      -2.301903       -62.6380 
  58   1.0000      -2.301765       -62.6342 
  59   1.0000      -2.301362       -62.6232 
  60   1.0000      -2.300904       -62.6108 
  61   1.0000      -2.300411       -62.5974 
  62   1.0000      -2.299391       -62.5696 
  63   1.0000      -2.298905       -62.5564 
  64   1.0000      -2.298223       -62.5378 
  65   1.0000      -2.297852       -62.5277 
  66   1.0000      -2.297763       -62.5253 
  67   1.0000      -2.296435       -62.4892 
  68   1.0000      -2.296190       -62.4825 
  69   1.0000      -2.294037       -62.4239 
  70   1.0000      -2.293636       -62.4130 
  71   1.0000      -2.275746       -61.9262 
  72   1.0000      -2.269118       -61.7458 
  73   1.0000      -0.451513       -12.2863 
  74   1.0000      -0.408204       -11.1078 
  75   1.0000      -0.403205       -10.9718 
  76   1.0000      -0.400775       -10.9056 
  77   1.0000      -0.396128       -10.7792 
  78   1.0000      -0.394765       -10.7421 
  79   1.0000      -0.391204       -10.6452 
  80   1.0000      -0.385814       -10.4985 
  81   1.0000      -0.384454       -10.4615 
  82   1.0000      -0.380354       -10.3500 
  83   1.0000      -0.376880       -10.2554 
  84   1.0000      -0.375192       -10.2095 
  85   1.0000      -0.372838       -10.1454 
  86   1.0000      -0.367926       -10.0118 
  87   1.0000      -0.365787        -9.9536 
  88   1.0000      -0.365523        -9.9464 
  89   1.0000      -0.359858        -9.7922 
  90   1.0000      -0.359514        -9.7829 
  91   1.0000      -0.357588        -9.7305 
  92   1.0000      -0.357380        -9.7248 
  93   1.0000      -0.356672        -9.7055 
  94   1.0000      -0.352684        -9.5970 
  95   1.0000      -0.352188        -9.5835 
  96   1.0000      -0.348035        -9.4705 
  97   1.0000      -0.347814        -9.4645 
  98   1.0000      -0.347074        -9.4444 
  99   1.0000      -0.346431        -9.4269 
 100   1.0000      -0.340236        -9.2583 
 101   1.0000      -0.338366        -9.2074 
 102   1.0000      -0.335739        -9.1359 
 103   1.0000      -0.334353        -9.0982 
 104   1.0000      -0.331265        -9.0142 
 105   1.0000      -0.329636        -8.9699 
 106   1.0000      -0.327684        -8.9167 
 107   1.0000      -0.323346        -8.7987 
 108   1.0000      -0.322431        -8.7738 
 109   1.0000      -0.319426        -8.6920 
 110   1.0000      -0.318791        -8.6747 
 111   1.0000      -0.317241        -8.6326 
 112   1.0000      -0.314245        -8.5510 
 113   1.0000      -0.313858        -8.5405 
 114   1.0000      -0.312687        -8.5086 
 115   1.0000      -0.309629        -8.4254 
 116   1.0000      -0.307900        -8.3784 
 117   1.0000      -0.303653        -8.2628 
 118   1.0000      -0.301084        -8.1929 
 119   1.0000      -0.299804        -8.1581 
 120   1.0000      -0.295127        -8.0308 
 121   1.0000      -0.293655        -7.9908 
 122   1.0000      -0.290511        -7.9052 
 123   1.0000      -0.290306        -7.8996 
 124   1.0000      -0.289141        -7.8679 
 125   1.0000      -0.287856        -7.8330 
 126   1.0000      -0.287567        -7.8251 
 127   1.0000      -0.286851        -7.8056 
 128   1.0000      -0.285032        -7.7561 
 129   1.0000      -0.284621        -7.7449 
 130   1.0000      -0.282677        -7.6920 
 131   1.0000      -0.282006        -7.6738 
 132   1.0000      -0.281047        -7.6477 
 133   1.0000      -0.278621        -7.5817 
 134   1.0000      -0.278255        -7.5717 
 135   1.0000      -0.277381        -7.5479 
 136   1.0000      -0.275849        -7.5062 
 137   1.0000      -0.275486        -7.4963 
 138   1.0000      -0.275054        -7.4846 
 139   1.0000      -0.274459        -7.4684 
 140   1.0000      -0.273452        -7.4410 
 141   1.0000      -0.272293        -7.4095 
 142   1.0000      -0.271275        -7.3818 
 143   1.0000      -0.268444        -7.3047 
 144   1.0000      -0.267670        -7.2837 
 145   1.0000      -0.266345        -7.2476 
 146   1.0000      -0.265292        -7.2190 
 147   1.0000      -0.262714        -7.1488 
 148   1.0000      -0.262455        -7.1418 
 149   1.0000      -0.260633        -7.0922 
 150   1.0000      -0.260380        -7.0853 
 151   1.0000      -0.258258        -7.0276 
 152   1.0000      -0.258044        -7.0217 
 153   1.0000      -0.257707        -7.0126 
 154   1.0000      -0.257434        -7.0051 
 155   1.0000      -0.254920        -6.9367 
 156   1.0000      -0.253055        -6.8860 
 157   1.0000      -0.250473        -6.8157 
 158   1.0000      -0.250045        -6.8041 
 159   1.0000      -0.245810        -6.6888 
 160   1.0000      -0.244094        -6.6421 
 161   1.0000      -0.242147        -6.5892 
 162   1.0000      -0.224572        -6.1109 
 163   1.0000      -0.220710        -6.0058 
 164   1.0000      -0.215356        -5.8601 
 165   1.0000      -0.203291        -5.5318 
 166   1.0000      -0.187997        -5.1156 
 167   0.0000      -0.158152        -4.3035 
 168   0.0000      -0.143066        -3.8930 
 169   0.0000      -0.138724        -3.7749 
 170   0.0000      -0.129056        -3.5118 
 171   0.0000      -0.121321        -3.3013 
 172   0.0000      -0.118914        -3.2358 
 173   0.0000      -0.111968        -3.0468 
 174   0.0000      -0.100486        -2.7343 
 175   0.0000      -0.066019        -1.7965 
 176   0.0000      -0.065893        -1.7930 
 177   0.0000      -0.056746        -1.5441 
 178   0.0000      -0.043508        -1.1839 
 179   0.0000      -0.041324        -1.1245 
 180   0.0000      -0.035141        -0.9562 
 181   0.0000      -0.032019        -0.8713 
 182   0.0000      -0.026162        -0.7119 
 183   0.0000      -0.024264        -0.6603 
 184   0.0000      -0.018442        -0.5018 
 185   0.0000      -0.012527        -0.3409 
 186   0.0000      -0.003168        -0.0862 
 187   0.0000       0.021534         0.5860 
 188   0.0000       0.026360         0.7173 
 189   0.0000       0.038556         1.0492 
 190   0.0000       0.046484         1.2649 
 191   0.0000       0.048161         1.3105 
 192   0.0000       0.052525         1.4293 
 193   0.0000       0.060201         1.6382 
 194   0.0000       0.063411         1.7255 
 195   0.0000       0.064304         1.7498 
 196   0.0000       0.065550         1.7837 
 197   0.0000       0.068079         1.8525 
 198   0.0000       0.069312         1.8861 
 199   0.0000       0.074463         2.0262 
 200   0.0000       0.075539         2.0555 
 201   0.0000       0.078035         2.1234 
 202   0.0000       0.079259         2.1567 
 203   0.0000       0.087096         2.3700 
 204   0.0000       0.089641         2.4393 
 205   0.0000       0.092100         2.5062 
 206   0.0000       0.096264         2.6195 
 207   0.0000       0.106392         2.8951 
 208   0.0000       0.108677         2.9572 
 209   0.0000       0.109225         2.9722 
 210   0.0000       0.112415         3.0590 
 211   0.0000       0.119545         3.2530 
 212   0.0000       0.130674         3.5558 
 213   0.0000       0.136938         3.7263 
 214   0.0000       0.140012         3.8099 
 215   0.0000       0.144653         3.9362 
 216   0.0000       0.152110         4.1391 
 217   0.0000       0.153762         4.1841 
 218   0.0000       0.157550         4.2871 
 219   0.0000       0.160516         4.3679 
 220   0.0000       0.164973         4.4892 
 221   0.0000       0.165617         4.5067 
 222   0.0000       0.171280         4.6608 
 223   0.0000       0.180606         4.9145 
 224   0.0000       0.182338         4.9617 
 225   0.0000       0.184580         5.0227 
 226   0.0000       0.188471         5.1286 
 227   0.0000       0.188894         5.1401 
 228   0.0000       0.192477         5.2376 
 229   0.0000       0.193359         5.2616 
 230   0.0000       0.200763         5.4630 
 231   0.0000       0.205489         5.5916 
 232   0.0000       0.213032         5.7969 
 233   0.0000       0.213355         5.8057 
 234   0.0000       0.215217         5.8563 
 235   0.0000       0.217636         5.9222 
 236   0.0000       0.221202         6.0192 
 237   0.0000       0.225590         6.1386 
 238   0.0000       0.230787         6.2800 
 239   0.0000       0.233323         6.3491 
 240   0.0000       0.235434         6.4065 
 241   0.0000       0.243642         6.6298 
 242   0.0000       0.250482         6.8160 
 243   0.0000       0.251574         6.8457 
 244   0.0000       0.264268         7.1911 
 245   0.0000       0.264553         7.1989 
 246   0.0000       0.267771         7.2864 
 247   0.0000       0.269739         7.3400 
 248   0.0000       0.273922         7.4538 
 249   0.0000       0.280900         7.6437 
 250   0.0000       0.284532         7.7425 
 251   0.0000       0.300473         8.1763 
 252   0.0000       0.302541         8.2326 
 253   0.0000       0.305122         8.3028 
 254   0.0000       0.311180         8.4676 
 255   0.0000       0.311657         8.4806 
 256   0.0000       0.315888         8.5957 
 257   0.0000       0.322752         8.7825 
 258   0.0000       0.330150         8.9838 
 259   0.0000       0.334228         9.0948 
 260   0.0000       0.340541         9.2666 
 261   0.0000       0.340898         9.2763 
 262   0.0000       0.342558         9.3215 
 263   0.0000       0.344507         9.3745 
 264   0.0000       0.349092         9.4993 
 265   0.0000       0.350155         9.5282 
 266   0.0000       0.352399         9.5893 
 267   0.0000       0.353302         9.6138 
 268   0.0000       0.358087         9.7440 
 269   0.0000       0.365610         9.9488 
 270   0.0000       0.368440        10.0258 
 271   0.0000       0.370885        10.0923 
 272   0.0000       0.371598        10.1117 
 273   0.0000       0.386222        10.5096 
 274   0.0000       0.398018        10.8306 
 275   0.0000       0.399179        10.8622 
 276   0.0000       0.403296        10.9742 
 277   0.0000       0.403538        10.9808 
 278   0.0000       0.416726        11.3397 
 279   0.0000       0.418289        11.3822 
 280   0.0000       0.421512        11.4699 
 281   0.0000       0.422434        11.4950 
 282   0.0000       0.427471        11.6321 
 283   0.0000       0.428475        11.6594 
 284   0.0000       0.436300        11.8723 
 285   0.0000       0.439356        11.9555 
 286   0.0000       0.446981        12.1630 
 287   0.0000       0.452785        12.3209 
 288   0.0000       0.457609        12.4522 
 289   0.0000       0.461063        12.5462 
 290   0.0000       0.462262        12.5788 
 291   0.0000       0.473294        12.8790 
 292   0.0000       0.474904        12.9228 
 293   0.0000       0.480172        13.0661 
 294   0.0000       0.491186        13.3659 
 295   0.0000       0.492450        13.4002 
 296   0.0000       0.493168        13.4198 
 297   0.0000       0.496279        13.5044 
 298   0.0000       0.499084        13.5808 
 299   0.0000       0.499531        13.5929 
 300   0.0000       0.500601        13.6220 
 301   0.0000       0.505875        13.7656 
 302   0.0000       0.511520        13.9192 
 303   0.0000       0.514952        14.0126 
 304   0.0000       0.516747        14.0614 
 305   0.0000       0.518826        14.1180 
 306   0.0000       0.526574        14.3288 
 307   0.0000       0.528142        14.3715 
 308   0.0000       0.531206        14.4548 
 309   0.0000       0.532157        14.4807 
 310   0.0000       0.539064        14.6687 
 311   0.0000       0.540154        14.6983 
 312   0.0000       0.541067        14.7232 
 313   0.0000       0.542250        14.7554 
 314   0.0000       0.544638        14.8204 
 315   0.0000       0.546206        14.8630 
 316   0.0000       0.558938        15.2095 
 317   0.0000       0.560831        15.2610 
 318   0.0000       0.565642        15.3919 
 319   0.0000       0.568869        15.4797 
 320   0.0000       0.575686        15.6652 
 321   0.0000       0.580542        15.7973 
 322   0.0000       0.580832        15.8052 
 323   0.0000       0.582446        15.8492 
 324   0.0000       0.585086        15.9210 
 325   0.0000       0.595610        16.2074 
 326   0.0000       0.602916        16.4062 
 327   0.0000       0.624279        16.9875 
 328   0.0000       0.676782        18.4162 
 329   0.0000       0.678439        18.4613 
 330   0.0000       0.707631        19.2556 
 331   0.0000       0.712577        19.3902 
 332   0.0000       0.716140        19.4872 
 333   0.0000       0.717528        19.5249 
 334   0.0000       0.723674        19.6922 
 335   0.0000       0.729076        19.8392 
 336   0.0000       0.736374        20.0378 
 337   0.0000       0.751951        20.4616 
 338   0.0000       0.752444        20.4750 
 339   0.0000       0.759378        20.6637 
 340   0.0000       0.765329        20.8257 
 341   0.0000       0.776930        21.1413 
 342   0.0000       0.783151        21.3106 
 343   0.0000       0.789909        21.4945 
 344   0.0000       0.796388        21.6708 
 345   0.0000       0.797059        21.6891 
 346   0.0000       0.816227        22.2107 
 347   0.0000       0.828116        22.5342 
 348   0.0000       0.841641        22.9022 
 349   0.0000       0.846021        23.0214 
 350   0.0000       0.850677        23.1481 
 351   0.0000       0.855642        23.2832 
 352   0.0000       0.870758        23.6945 
 353   0.0000       0.901453        24.5298 
 354   0.0000       0.906619        24.6704 
 355   0.0000       0.924578        25.1590 
 356   0.0000       0.927187        25.2300 
 357   0.0000       0.931610        25.3504 
 358   0.0000       0.937236        25.5035 
 359   0.0000       0.941391        25.6166 
 360   0.0000       0.950565        25.8662 
 361   0.0000       0.953152        25.9366 
 362   0.0000       0.953855        25.9557 
 363   0.0000       0.964802        26.2536 
 364   0.0000       0.968627        26.3577 
 365   0.0000       0.970076        26.3971 
 366   0.0000       0.984766        26.7968 
 367   0.0000       0.995214        27.0811 
 368   0.0000       0.996120        27.1058 
 369   0.0000       1.004442        27.3323 
 370   0.0000       1.025622        27.9086 
 371   0.0000       1.029590        28.0166 
 372   0.0000       1.057839        28.7853 
 373   0.0000       1.131193        30.7813 
 374   0.0000       1.164833        31.6967 
 375   0.0000       1.201402        32.6918 
 376   0.0000       1.210031        32.9266 
 377   0.0000       1.229265        33.4500 
 378   0.0000       1.233948        33.5774 
 379   0.0000       1.246661        33.9234 
 380   0.0000       1.249681        34.0055 
 381   0.0000       1.263005        34.3681 
 382   0.0000       1.274774        34.6884 
 383   0.0000       1.294120        35.2148 
 384   0.0000       1.298075        35.3224 
 385   0.0000       1.302846        35.4522 
 386   0.0000       1.314435        35.7676 
 387   0.0000       1.325208        36.0607 
 388   0.0000       1.326681        36.1008 
 389   0.0000       1.334044        36.3012 
 390   0.0000       1.346582        36.6424 
 391   0.0000       1.348259        36.6880 
 392   0.0000       1.356700        36.9177 
 393   0.0000       1.362997        37.0890 
 394   0.0000       1.368325        37.2340 
 395   0.0000       1.374075        37.3905 
 396   0.0000       1.382296        37.6142 
 397   0.0000       1.397290        38.0222 
 398   0.0000       1.400047        38.0972 
 399   0.0000       1.403063        38.1793 
 400   0.0000       1.406785        38.2806 
 401   0.0000       1.407276        38.2939 
 402   0.0000       1.418619        38.6026 
 403   0.0000       1.421227        38.6736 
 404   0.0000       1.428499        38.8714 
 405   0.0000       1.447214        39.3807 
 406   0.0000       1.457472        39.6598 
 407   0.0000       1.461716        39.7753 
 408   0.0000       1.466571        39.9074 
 409   0.0000       1.470850        40.0239 
 410   0.0000       1.477193        40.1965 
 411   0.0000       1.479481        40.2587 
 412   0.0000       1.480569        40.2883 
 413   0.0000       1.483461        40.3670 
 414   0.0000       1.486544        40.4509 
 415   0.0000       1.488762        40.5113 
 416   0.0000       1.493783        40.6479 
 417   0.0000       1.495078        40.6831 
 418   0.0000       1.497605        40.7519 
 419   0.0000       1.500993        40.8441 
 420   0.0000       1.503098        40.9014 
 421   0.0000       1.505509        40.9670 
 422   0.0000       1.510516        41.1032 
 423   0.0000       1.512068        41.1455 
 424   0.0000       1.513347        41.1803 
 425   0.0000       1.514449        41.2102 
 426   0.0000       1.515406        41.2363 
 427   0.0000       1.517605        41.2961 
 428   0.0000       1.518667        41.3250 
 429   0.0000       1.529262        41.6133 
 430   0.0000       1.530017        41.6339 
 431   0.0000       1.531322        41.6694 
 432   0.0000       1.532029        41.6886 
 433   0.0000       1.539085        41.8806 
 434   0.0000       1.539620        41.8952 
 435   0.0000       1.540777        41.9267 
 436   0.0000       1.541373        41.9429 
 437   0.0000       1.545227        42.0478 
 438   0.0000       1.545661        42.0596 
 439   0.0000       1.546637        42.0861 
 440   0.0000       1.547657        42.1139 
 441   0.0000       1.549099        42.1531 
 442   0.0000       1.550314        42.1862 
 443   0.0000       1.554343        42.2958 
 444   0.0000       1.554850        42.3096 
 445   0.0000       1.555684        42.3323 
 446   0.0000       1.556982        42.3676 
 447   0.0000       1.558312        42.4038 
 448   0.0000       1.559085        42.4249 
 449   0.0000       1.559380        42.4329 
 450   0.0000       1.560532        42.4642 
 451   0.0000       1.561525        42.4913 
 452   0.0000       1.563581        42.5472 
 453   0.0000       1.564670        42.5768 
 454   0.0000       1.566808        42.6350 
 455   0.0000       1.568364        42.6773 
 456   0.0000       1.568889        42.6916 
 457   0.0000       1.569454        42.7070 
 458   0.0000       1.569769        42.7156 
 459   0.0000       1.571285        42.7569 
 460   0.0000       1.572323        42.7851 
 461   0.0000       1.574490        42.8440 
 462   0.0000       1.574632        42.8479 
 463   0.0000       1.575571        42.8735 
 464   0.0000       1.576324        42.8939 
 465   0.0000       1.577676        42.9307 
 466   0.0000       1.579312        42.9753 
 467   0.0000       1.579573        42.9824 
 468   0.0000       1.580427        43.0056 
 469   0.0000       1.581183        43.0262 
 470   0.0000       1.585188        43.1352 
 471   0.0000       1.585401        43.1410 
 472   0.0000       1.586435        43.1691 
 473   0.0000       1.587748        43.2048 
 474   0.0000       1.588456        43.2241 
 475   0.0000       1.590745        43.2864 
 476   0.0000       1.592049        43.3219 
 477   0.0000       1.592802        43.3423 
 478   0.0000       1.597764        43.4774 
 479   0.0000       1.599596        43.5272 
 480   0.0000       1.603628        43.6369 
 481   0.0000       1.608176        43.7607 
 482   0.0000       1.613072        43.8939 
 483   0.0000       1.614535        43.9337 
 484   0.0000       1.618327        44.0369 
 485   0.0000       1.621831        44.1323 
 486   0.0000       1.623914        44.1889 
 487   0.0000       1.626364        44.2556 
 488   0.0000       1.627278        44.2805 
 489   0.0000       1.632256        44.4159 
 490   0.0000       1.633021        44.4368 
 491   0.0000       1.634426        44.4750 
 492   0.0000       1.637607        44.5615 
 493   0.0000       1.639795        44.6211 
 494   0.0000       1.641498        44.6674 
 495   0.0000       1.644001        44.7356 
 496   0.0000       1.645791        44.7842 
 497   0.0000       1.649229        44.8778 
 498   0.0000       1.651543        44.9408 
 499   0.0000       1.652194        44.9585 
 500   0.0000       1.655398        45.0457 
 501   0.0000       1.658106        45.1194 
 502   0.0000       1.661379        45.2084 
 503   0.0000       1.661668        45.2163 
 504   0.0000       1.664358        45.2895 
 505   0.0000       1.666965        45.3604 
 506   0.0000       1.671040        45.4713 
 507   0.0000       1.678261        45.6678 
 508   0.0000       1.678963        45.6869 
 509   0.0000       1.679936        45.7134 
 510   0.0000       1.684057        45.8255 
 511   0.0000       1.690685        46.0059 
 512   0.0000       1.691885        46.0385 
 513   0.0000       1.694798        46.1178 
 514   0.0000       1.701259        46.2936 
 515   0.0000       1.701360        46.2964 
 516   0.0000       1.703642        46.3584 
 517   0.0000       1.704918        46.3932 
 518   0.0000       1.710450        46.5437 
 519   0.0000       1.710769        46.5524 
 520   0.0000       1.720780        46.8248 
 521   0.0000       1.721709        46.8501 
 522   0.0000       1.722809        46.8800 
 523   0.0000       1.727087        46.9964 
 524   0.0000       1.741377        47.3853 
 525   0.0000       1.745080        47.4861 
 526   0.0000       1.748122        47.5688 
 527   0.0000       1.752019        47.6749 
 528   0.0000       1.761155        47.9235 
 529   0.0000       1.764748        48.0212 
 530   0.0000       1.767941        48.1081 
 531   0.0000       1.777318        48.3633 
 532   0.0000       1.780535        48.4508 
 533   0.0000       1.786462        48.6121 
 534   0.0000       1.791791        48.7571 
 535   0.0000       1.792119        48.7660 
 536   0.0000       1.793817        48.8122 
 537   0.0000       1.797241        48.9054 
 538   0.0000       1.803936        49.0876 
 539   0.0000       1.815643        49.4062 
 540   0.0000       1.819639        49.5149 
 541   0.0000       1.820825        49.5472 
 542   0.0000       1.823146        49.6103 
 543   0.0000       1.828525        49.7567 
 544   0.0000       1.829764        49.7904 
 545   0.0000       1.834782        49.9270 
 546   0.0000       1.840834        50.0916 
 547   0.0000       1.849191        50.3190 
 548   0.0000       1.851657        50.3862 
 549   0.0000       1.853480        50.4357 
 550   0.0000       1.861623        50.6573 
 551   0.0000       1.872386        50.9502 
 552   0.0000       1.873553        50.9820 
 553   0.0000       1.887535        51.3624 
 554   0.0000       1.890388        51.4401 
 555   0.0000       1.899774        51.6955 
 556   0.0000       1.907335        51.9012 
 557   0.0000       1.918422        52.2029 
 558   0.0000       1.936097        52.6839 
 559   0.0000       1.942705        52.8637 
 560   0.0000       1.949824        53.0574 
 561   0.0000       1.954150        53.1751 
 562   0.0000       1.960186        53.3394 
 563   0.0000       1.966611        53.5142 
 564   0.0000       1.979940        53.8769 
 565   0.0000       2.066170        56.2234 
 566   0.0000       2.082215        56.6599 
 567   0.0000       2.092479        56.9393 
 568   0.0000       2.153829        58.6087 
 569   0.0000       2.164551        58.9004 
 570   0.0000       2.234330        60.7992 
 571   0.0000       2.245528        61.1039 
 572   0.0000       2.293200        62.4011 
 573   0.0000       2.295308        62.4585 
 574   0.0000       2.366033        64.3830 
 575   0.0000       2.371345        64.5276 
 576   0.0000       2.408296        65.5331 
 577   0.0000       2.493180        67.8429 
 578   0.0000       2.498773        67.9951 
 579   0.0000       2.549830        69.3844 
 580   0.0000       2.552972        69.4699 
 581   0.0000       2.570923        69.9584 
 582   0.0000       2.599517        70.7365 
 583   0.0000       2.605985        70.9125 
 584   0.0000       2.614465        71.1432 
 585   0.0000       2.622050        71.3496 
 586   0.0000       2.637073        71.7584 
 587   0.0000       2.658889        72.3521 
 588   0.0000       2.666421        72.5570 
 589   0.0000       2.698395        73.4271 
 590   0.0000       2.733780        74.3899 
 591   0.0000       2.739955        74.5580 
 592   0.0000       3.543912        96.4347 
 593   0.0000       3.783144       102.9446 
 594   0.0000       3.805121       103.5426 
 595   0.0000       3.806973       103.5930 
 596   0.0000       3.835435       104.3675 
 597   0.0000       3.851072       104.7930 
 598   0.0000       3.980997       108.3284 
 599   0.0000       3.986314       108.4731 
 600   0.0000       3.989738       108.5663 
 601   0.0000       3.992430       108.6395 
 602   0.0000       4.011624       109.1619 
 603   0.0000       4.020984       109.4165 
 604   0.0000       4.024286       109.5064 
 605   0.0000      24.192458       658.3103 
 606   0.0000      24.306347       661.4093 
 607   0.0000      24.406749       664.1414 
 608   0.0000      24.571335       668.6200 
 609   0.0000      24.799148       674.8191 
 610   0.0000      24.947806       678.8643 
 611   0.0000      25.229249       686.5228 
 612   0.0000      25.363832       690.1850 
 613   0.0000      25.454777       692.6597 
 614   0.0000      25.565020       695.6596 
 615   0.0000      25.622995       697.2371 
 616   0.0000      25.719310       699.8580 
 617   0.0000      25.796419       701.9563 
 618   0.0000      25.818944       702.5692 
 619   0.0000      25.904840       704.9065 
 620   0.0000      25.934625       705.7170 
 621   0.0000      26.079235       709.6521 
 622   0.0000      26.114986       710.6249 
 623   0.0000      26.248688       714.2631 
 624   0.0000      26.324945       716.3382 
 625   0.0000      26.381343       717.8728 
 626   0.0000      26.521112       721.6762 
 627   0.0000      26.627853       724.5807 
 628   0.0000      26.701823       726.5936 
 629   0.0000      26.792336       729.0565 
 630   0.0000      26.854167       730.7390 
 631   0.0000      26.950698       733.3658 
 632   0.0000      27.019896       735.2487 
 633   0.0000      27.106493       737.6052 
 634   0.0000      27.242084       741.2948 
 635   0.0000      27.337236       743.8840 
 636   0.0000      27.366919       744.6917 
 637   0.0000      27.479267       747.7489 
 638   0.0000      27.521707       748.9037 
 639   0.0000      27.767005       755.5786 
 640   0.0000      27.832355       757.3569 
 641   0.0000      27.921923       759.7941 
 642   0.0000      28.114117       765.0240 
 643   0.0000      28.169453       766.5298 
 644   0.0000      28.234044       768.2874 
 645   0.0000      28.610711       778.5370 
 646   0.0000      28.927581       787.1595 
 647   0.0000      29.643222       806.6331 
 648   0.0000      29.825928       811.6048 
 649   0.0000      30.631611       833.5285 
 650   0.0000      30.954105       842.3040 
 651   0.0000      31.172701       848.2523 
 652   0.0000      33.884551       922.0455 
 653   0.0000      44.412667      1208.5301 
 654   0.0000      44.521823      1211.5004 
 655   0.0000      44.544091      1212.1063 
 656   0.0000      44.576757      1212.9952 
 657   0.0000      44.598556      1213.5884 
 658   0.0000      44.624093      1214.2833 
 659   0.0000      44.635382      1214.5905 
 660   0.0000      44.644638      1214.8424 
 661   0.0000      44.647619      1214.9235 
 662   0.0000      44.665487      1215.4097 
 663   0.0000      44.675433      1215.6803 
 664   0.0000      44.676891      1215.7200 
 665   0.0000      44.696369      1216.2500 
 666   0.0000      44.721584      1216.9362 
 667   0.0000      44.799407      1219.0538 
 668   0.0000      44.820009      1219.6144 
 669   0.0000     205.256467      5585.3124 
 670   0.0000     205.307451      5586.6998 
 671   0.0000     205.309170      5586.7466 
 672   0.0000     205.325274      5587.1847 
 673   0.0000     205.340960      5587.6116 
 674   0.0000     205.351571      5587.9003 
 675   0.0000     205.352453      5587.9243 
 676   0.0000     205.358748      5588.0956 
 677   0.0000     205.361516      5588.1710 
 678   0.0000     205.367269      5588.3275 
 679   0.0000     205.368340      5588.3566 
 680   0.0000     205.372496      5588.4697 
 681   0.0000     205.379097      5588.6493 
 682   0.0000     205.386848      5588.8603 
 683   0.0000     205.415950      5589.6522 
 684   0.0000     205.418239      5589.7145 

                 SPIN DOWN ORBITALS
  NO   OCC          E(Eh)            E(eV) 
   0   1.0000    -255.639056     -6956.2924 
   1   1.0000     -29.858745      -812.4978 
   2   1.0000     -25.713047      -699.6876 
   3   1.0000     -25.705784      -699.4900 
   4   1.0000     -25.704351      -699.4510 
   5   1.0000      -4.125895      -112.2713 
   6   1.0000      -4.125149      -112.2510 
   7   1.0000      -4.124587      -112.2357 
   8   1.0000      -4.123986      -112.2194 
   9   1.0000      -4.123084      -112.1948 
  10   1.0000      -4.123061      -112.1942 
  11   1.0000      -4.122379      -112.1756 
  12   1.0000      -4.122143      -112.1692 
  13   1.0000      -4.118716      -112.0760 
  14   1.0000      -4.117980      -112.0559 
  15   1.0000      -4.117466      -112.0420 
  16   1.0000      -4.117230      -112.0355 
  17   1.0000      -4.114947      -111.9734 
  18   1.0000      -4.113491      -111.9338 
  19   1.0000      -4.110470      -111.8516 
  20   1.0000      -4.110053      -111.8402 
  21   1.0000      -3.344271       -91.0022 
  22   1.0000      -2.315356       -63.0040 
  23   1.0000      -2.314934       -62.9926 
  24   1.0000      -2.313607       -62.9564 
  25   1.0000      -2.313093       -62.9425 
  26   1.0000      -2.312144       -62.9166 
  27   1.0000      -2.311754       -62.9060 
  28   1.0000      -2.311295       -62.8935 
  29   1.0000      -2.310933       -62.8837 
  30   1.0000      -2.309822       -62.8534 
  31   1.0000      -2.309651       -62.8488 
  32   1.0000      -2.309188       -62.8362 
  33   1.0000      -2.309109       -62.8341 
  34   1.0000      -2.308830       -62.8265 
  35   1.0000      -2.308758       -62.8245 
  36   1.0000      -2.308339       -62.8131 
  37   1.0000      -2.308109       -62.8068 
  38   1.0000      -2.307502       -62.7903 
  39   1.0000      -2.307098       -62.7793 
  40   1.0000      -2.306860       -62.7729 
  41   1.0000      -2.306603       -62.7659 
  42   1.0000      -2.306369       -62.7595 
  43   1.0000      -2.305893       -62.7465 
  44   1.0000      -2.305832       -62.7449 
  45   1.0000      -2.305490       -62.7356 
  46   1.0000      -2.305283       -62.7299 
  47   1.0000      -2.304934       -62.7204 
  48   1.0000      -2.304356       -62.7047 
  49   1.0000      -2.303897       -62.6922 
  50   1.0000      -2.303739       -62.6879 
  51   1.0000      -2.303505       -62.6816 
  52   1.0000      -2.303465       -62.6805 
  53   1.0000      -2.303316       -62.6764 
  54   1.0000      -2.302331       -62.6496 
  55   1.0000      -2.301534       -62.6279 
  56   1.0000      -2.301435       -62.6252 
  57   1.0000      -2.301251       -62.6202 
  58   1.0000      -2.300879       -62.6101 
  59   1.0000      -2.300735       -62.6062 
  60   1.0000      -2.300261       -62.5933 
  61   1.0000      -2.299240       -62.5655 
  62   1.0000      -2.298775       -62.5528 
  63   1.0000      -2.298060       -62.5334 
  64   1.0000      -2.297729       -62.5244 
  65   1.0000      -2.297613       -62.5212 
  66   1.0000      -2.296326       -62.4862 
  67   1.0000      -2.296122       -62.4807 
  68   1.0000      -2.293776       -62.4168 
  69   1.0000      -2.293385       -62.4062 
  70   1.0000      -2.119887       -57.6851 
  71   1.0000      -2.108976       -57.3881 
  72   1.0000      -2.107859       -57.3578 
  73   1.0000      -0.447444       -12.1756 
  74   1.0000      -0.406692       -11.0667 
  75   1.0000      -0.401782       -10.9330 
  76   1.0000      -0.400179       -10.8894 
  77   1.0000      -0.385482       -10.4895 
  78   1.0000      -0.384833       -10.4718 
  79   1.0000      -0.382326       -10.4036 
  80   1.0000      -0.378888       -10.3101 
  81   1.0000      -0.377502       -10.2723 
  82   1.0000      -0.376003       -10.2316 
  83   1.0000      -0.374133       -10.1807 
  84   1.0000      -0.370371       -10.0783 
  85   1.0000      -0.369527       -10.0553 
  86   1.0000      -0.363971        -9.9042 
  87   1.0000      -0.363682        -9.8963 
  88   1.0000      -0.362278        -9.8581 
  89   1.0000      -0.358580        -9.7575 
  90   1.0000      -0.357614        -9.7312 
  91   1.0000      -0.355974        -9.6865 
  92   1.0000      -0.354776        -9.6540 
  93   1.0000      -0.354022        -9.6334 
  94   1.0000      -0.351314        -9.5597 
  95   1.0000      -0.350840        -9.5468 
[...]
      dx2y2   :     1.986930
      dxy     :     1.970567
      f0      :     0.000760  f :     0.006021
      f+1     :     0.000798
      f-1     :     0.000720
      f+2     :     0.001021
      f-2     :     0.000802
      f+3     :     0.000937
      f-3     :     0.000984
 10 Aus       :     2.533490  s :     2.533490
      pz      :     2.120580  p :     6.479003
      px      :     2.183452
      py      :     2.174971
      dz2     :     1.982398  d :     9.892674
      dxz     :     1.965025
      dyz     :     1.981277
      dx2y2   :     1.982683
      dxy     :     1.981290
      f0      :     0.000803  f :     0.005586
      f+1     :     0.000907
      f-1     :     0.000836
      f+2     :     0.000631
      f-2     :     0.000871
      f+3     :     0.000992
      f-3     :     0.000548
 11 Aus       :     2.513343  s :     2.513343
      pz      :     2.164423  p :     6.506276
      px      :     2.153141
      py      :     2.188712
      dz2     :     1.992910  d :     9.875621
      dxz     :     1.960231
      dyz     :     1.974959
      dx2y2   :     1.971012
      dxy     :     1.976509
      f0      :     0.001058  f :     0.006214
      f+1     :     0.000946
      f-1     :     0.000779
      f+2     :     0.000774
      f-2     :     0.000826
      f+3     :     0.001080
      f-3     :     0.000750
 12 Aus       :     2.475942  s :     2.475942
      pz      :     2.208392  p :     6.629914
      px      :     2.247575
      py      :     2.173947
      dz2     :     1.987154  d :     9.914521
      dxz     :     1.993071
      dyz     :     1.991662
      dx2y2   :     1.961437
      dxy     :     1.981198
      f0      :     0.000938  f :     0.007023
      f+1     :     0.000962
      f-1     :     0.000899
      f+2     :     0.000858
      f-2     :     0.001548
      f+3     :     0.000830
      f-3     :     0.000987
 13 Aus       :     2.587735  s :     2.587735
      pz      :     2.146460  p :     6.448019
      px      :     2.175505
      py      :     2.126054
      dz2     :     1.983425  d :     9.931021
      dxz     :     1.972655
      dyz     :     1.993373
      dx2y2   :     2.005259
      dxy     :     1.976309
      f0      :     0.000684  f :     0.005505
      f+1     :     0.000726
      f-1     :     0.000720
      f+2     :     0.000767
      f-2     :     0.000922
      f+3     :     0.001016
      f-3     :     0.000670
 14 Aus       :     2.691885  s :     2.691885
      pz      :     2.085731  p :     6.327244
      px      :     2.131043
      py      :     2.110470
      dz2     :     1.981972  d :     9.887511
      dxz     :     1.972150
      dyz     :     1.969283
      dx2y2   :     1.986643
      dxy     :     1.977464
      f0      :     0.000489  f :     0.004417
      f+1     :     0.000485
      f-1     :     0.000510
      f+2     :     0.000678
      f-2     :     0.000739
      f+3     :     0.000852
      f-3     :     0.000665
 15 Aus       :     2.493624  s :     2.493624
      pz      :     2.131424  p :     6.640647
      px      :     2.232227
      py      :     2.276996
      dz2     :     1.992920  d :     9.923082
      dxz     :     1.988337
      dyz     :     1.980595
      dx2y2   :     1.988084
      dxy     :     1.973145
      f0      :     0.000857  f :     0.007135
      f+1     :     0.000799
      f-1     :     0.000873
      f+2     :     0.000854
      f-2     :     0.000951
      f+3     :     0.001796
      f-3     :     0.001004
 16 Fes       :     6.247695  s :     6.247695
      pz      :     4.188229  p :    12.564210
      px      :     4.186989
      py      :     4.188993
      dz2     :     1.487713  d :     7.793423
      dxz     :     1.588552
      dyz     :     1.551745
      dx2y2   :     1.754425
      dxy     :     1.410988
      f0      :     0.000059  f :     0.000564
      f+1     :     0.000094
      f-1     :     0.000091
      f+2     :     0.000082
      f-2     :     0.000068
      f+3     :     0.000053
      f-3     :     0.000118

SPIN
  0 Aus       :    -0.014075  s :    -0.014075
      pz      :    -0.025753  p :    -0.041303
      px      :    -0.008635
      py      :    -0.006916
      dz2     :    -0.001456  d :    -0.010205
      dxz     :    -0.014850
      dyz     :    -0.001080
      dx2y2   :     0.000715
      dxy     :     0.006465
      f0      :    -0.000007  f :     0.000033
      f+1     :     0.000028
      f-1     :     0.000002
      f+2     :    -0.000011
      f-2     :    -0.000039
      f+3     :    -0.000014
      f-3     :     0.000074
  1 Aus       :    -0.020037  s :    -0.020037
      pz      :    -0.006662  p :    -0.047427
      px      :    -0.021866
      py      :    -0.018899
      dz2     :     0.000468  d :     0.001758
      dxz     :     0.006661
      dyz     :     0.001225
      dx2y2   :    -0.002618
      dxy     :    -0.003979
      f0      :     0.000005  f :    -0.000005
      f+1     :     0.000047
      f-1     :    -0.000005
      f+2     :    -0.000020
      f-2     :    -0.000000
      f+3     :    -0.000017
      f-3     :    -0.000014
  2 Aus       :    -0.005808  s :    -0.005808
      pz      :    -0.005917  p :    -0.014952
      px      :    -0.009831
      py      :     0.000796
      dz2     :    -0.005959  d :    -0.011800
      dxz     :    -0.001460
      dyz     :     0.008275
      dx2y2   :    -0.006410
      dxy     :    -0.006246
      f0      :    -0.000018  f :    -0.000030
      f+1     :    -0.000026
      f-1     :     0.000025
      f+2     :     0.000021
      f-2     :     0.000012
      f+3     :    -0.000027
      f-3     :    -0.000015
  3 Aus       :    -0.042067  s :    -0.042067
      pz      :    -0.018307  p :    -0.031920
      px      :    -0.013876
      py      :     0.000263
      dz2     :     0.004027  d :     0.000865
      dxz     :    -0.002739
      dyz     :    -0.004889
      dx2y2   :     0.008042
      dxy     :    -0.003576
      f0      :     0.000005  f :     0.000080
      f+1     :    -0.000003
      f-1     :     0.000051
      f+2     :    -0.000034
      f-2     :    -0.000009
      f+3     :     0.000015
      f-3     :     0.000056
  4 Aus       :    -0.007086  s :    -0.007086
      pz      :    -0.000155  p :    -0.007555
      px      :    -0.009786
      py      :     0.002385
      dz2     :     0.001272  d :    -0.019620
      dxz     :    -0.006785
      dyz     :    -0.015010
      dx2y2   :     0.001382
      dxy     :    -0.000478
      f0      :     0.000015  f :    -0.000004
      f+1     :     0.000011
      f-1     :    -0.000020
      f+2     :    -0.000023
      f-2     :    -0.000017
      f+3     :    -0.000019
      f-3     :     0.000049
  5 Aus       :    -0.080858  s :    -0.080858
      pz      :    -0.017068  p :    -0.041558
      px      :    -0.019137
      py      :    -0.005353
      dz2     :    -0.007862  d :    -0.039898
      dxz     :    -0.008851
      dyz     :    -0.002916
      dx2y2   :    -0.011183
      dxy     :    -0.009087
      f0      :    -0.000002  f :    -0.000073
      f+1     :    -0.000024
      f-1     :    -0.000003
      f+2     :    -0.000003
      f-2     :    -0.000004
      f+3     :    -0.000025
      f-3     :    -0.000012
  6 Aus       :     0.012353  s :     0.012353
      pz      :     0.003075  p :    -0.011694
      px      :    -0.009510
      py      :    -0.005260
      dz2     :    -0.001265  d :    -0.003864
      dxz     :    -0.002317
      dyz     :     0.001393
      dx2y2   :     0.000133
      dxy     :    -0.001807
      f0      :    -0.000003  f :    -0.000030
      f+1     :    -0.000007
      f-1     :    -0.000005
      f+2     :    -0.000003
      f-2     :    -0.000008
      f+3     :     0.000000
      f-3     :    -0.000004
  7 Aus       :    -0.043745  s :    -0.043745
      pz      :    -0.002115  p :    -0.023854
      px      :     0.000396
      py      :    -0.022134
      dz2     :    -0.005561  d :    -0.019105
      dxz     :     0.000424
      dyz     :     0.006979
      dx2y2   :    -0.014875
      dxy     :    -0.006072
      f0      :    -0.000012  f :     0.000033
      f+1     :     0.000044
      f-1     :     0.000018
      f+2     :    -0.000017
      f-2     :     0.000017
      f+3     :    -0.000008
      f-3     :    -0.000008
  8 Aus       :    -0.007964  s :    -0.007964
      pz      :    -0.005841  p :    -0.015027
      px      :    -0.000554
      py      :    -0.008631
      dz2     :    -0.008273  d :    -0.008000
      dxz     :     0.001602
      dyz     :    -0.013338
      dx2y2   :     0.008155
      dxy     :     0.003853
      f0      :     0.000001  f :     0.000057
      f+1     :    -0.000003
      f-1     :    -0.000010
      f+2     :    -0.000010
      f-2     :     0.000018
      f+3     :    -0.000014
      f-3     :     0.000074
  9 Aus       :    -0.013298  s :    -0.013298
      pz      :    -0.028589  p :    -0.042168
      px      :    -0.006482
      py      :    -0.007097
      dz2     :     0.003314  d :    -0.004993
      dxz     :    -0.005931
      dyz     :    -0.000830
      dx2y2   :    -0.008764
      dxy     :     0.007217
      f0      :    -0.000006  f :     0.000057
      f+1     :     0.000036
      f-1     :     0.000011
      f+2     :    -0.000010
      f-2     :    -0.000017
      f+3     :    -0.000022
      f-3     :     0.000066
 10 Aus       :    -0.038130  s :    -0.038130
      pz      :    -0.006320  p :    -0.029051
      px      :    -0.002309
      py      :    -0.020423
      dz2     :    -0.001823  d :     0.001612
      dxz     :     0.006131
      dyz     :     0.000133
      dx2y2   :    -0.000880
      dxy     :    -0.001948
      f0      :    -0.000007  f :     0.000050
      f+1     :     0.000049
      f-1     :     0.000003
      f+2     :     0.000011
      f-2     :     0.000019
      f+3     :    -0.000009
      f-3     :    -0.000015
 11 Aus       :    -0.019883  s :    -0.019883
      pz      :     0.004486  p :    -0.048486
      px      :    -0.024895
      py      :    -0.028077
      dz2     :     0.000905  d :     0.000673
      dxz     :     0.006215
      dyz     :     0.003280
      dx2y2   :    -0.006716
      dxy     :    -0.003011
      f0      :     0.000007  f :    -0.000011
      f+1     :    -0.000002
      f-1     :     0.000002
      f+2     :    -0.000006
      f-2     :     0.000011
      f+3     :    -0.000023
      f-3     :     0.000000
 12 Aus       :    -0.048991  s :    -0.048991
      pz      :    -0.011577  p :    -0.022641
      px      :    -0.002173
      py      :    -0.008892
      dz2     :     0.000416  d :    -0.023742
      dxz     :    -0.006717
      dyz     :    -0.020707
      dx2y2   :     0.005320
      dxy     :    -0.002055
      f0      :    -0.000027  f :    -0.000003
      f+1     :    -0.000002
      f-1     :     0.000016
      f+2     :    -0.000017
      f-2     :     0.000006
      f+3     :     0.000009
      f-3     :     0.000012
 13 Aus       :    -0.012352  s :    -0.012352
      pz      :     0.003188  p :    -0.009208
      px      :     0.003100
      py      :    -0.015496
      dz2     :    -0.000168  d :    -0.006485
      dxz     :    -0.001770
      dyz     :     0.001327
      dx2y2   :    -0.003689
      dxy     :    -0.002184
      f0      :     0.000006  f :    -0.000025
      f+1     :    -0.000014
      f-1     :     0.000002
      f+2     :    -0.000001
      f-2     :     0.000005
      f+3     :    -0.000004
      f-3     :    -0.000018
 14 Aus       :    -0.066372  s :    -0.066372
      pz      :    -0.017461  p :    -0.044606
      px      :    -0.003732
      py      :    -0.023413
      dz2     :    -0.006433  d :    -0.038334
      dxz     :    -0.005581
      dyz     :    -0.016244
      dx2y2   :    -0.007650
      dxy     :    -0.002427
      f0      :    -0.000006  f :    -0.000081
      f+1     :    -0.000017
      f-1     :    -0.000014
      f+2     :    -0.000008
      f-2     :    -0.000032
      f+3     :     0.000003
      f-3     :    -0.000006
 15 Aus       :    -0.007994  s :    -0.007994
      pz      :     0.002410  p :    -0.011663
      px      :    -0.012606
      py      :    -0.001468
      dz2     :    -0.008192  d :    -0.018643
      dxz     :     0.003745
      dyz     :    -0.000283
      dx2y2   :    -0.011824
      dxy     :    -0.002090
      f0      :    -0.000036  f :    -0.000023
      f+1     :     0.000006
      f-1     :     0.000028
      f+2     :    -0.000000
      f-2     :     0.000002
      f+3     :    -0.000015
      f-3     :    -0.000009
 16 Fes       :     0.005931  s :     0.005931
      pz      :     0.005157  p :     0.011288
      px      :     0.003682
      py      :     0.002449
      dz2     :     0.733700  d :     3.041956
      dxz     :     0.563439
      dyz     :     0.589039
      dx2y2   :     0.374014
      dxy     :     0.781763
      f0      :     0.000006  f :     0.000003
      f+1     :    -0.000000
      f-1     :     0.000001
      f+2     :     0.000000
      f-2     :    -0.000003
      f+3     :    -0.000003
      f-3     :     0.000003


                      *****************************
                      * MAYER POPULATION ANALYSIS *
                      *****************************

  NA   - Mulliken gross atomic population
  ZA   - Total nuclear charge
  QA   - Mulliken gross atomic charge
  VA   - Mayer's total valence
  BVA  - Mayer's bonded valence
  FA   - Mayer's free valence

  ATOM       NA         ZA         QA         VA         BVA        FA
  0 Au    18.9478    19.0000     0.0522     1.7948     1.7887     0.0061
  1 Au    18.6096    19.0000     0.3904     1.5478     1.5412     0.0066
  2 Au    18.6954    19.0000     0.3046     1.5261     1.5237     0.0023
  3 Au    18.6516    19.0000     0.3484     1.4860     1.4759     0.0101
  4 Au    19.3888    19.0000    -0.3888     2.1825     2.1785     0.0040
  5 Au    18.6646    19.0000     0.3354     1.4633     1.4288     0.0345
  6 Au    18.6701    19.0000     0.3299     1.4761     1.4750     0.0011
  7 Au    19.1253    19.0000    -0.1253     2.0482     2.0313     0.0169
  8 Au    18.6964    19.0000     0.3036     1.5318     1.5297     0.0021
  9 Au    18.9418    19.0000     0.0582     1.8024     1.7978     0.0046
 10 Au    18.6540    19.0000     0.3460     1.4901     1.4817     0.0084
 11 Au    18.6146    19.0000     0.3854     1.5519     1.5455     0.0065
 12 Au    19.1362    19.0000    -0.1362     2.0387     2.0196     0.0192
 13 Au    18.7069    19.0000     0.2931     1.5005     1.4988     0.0017
 14 Au    18.6482    19.0000     0.3518     1.4511     1.4279     0.0233
 15 Au    19.3772    19.0000    -0.3772     2.1718     2.1678     0.0041
 16 Fe    28.4718    26.0000    -2.4718     7.6380     5.0949     2.5431

  Mayer bond orders larger than 0.100000
B(  0-Au,  2-Au) :   0.2258 B(  0-Au,  3-Au) :   0.1557 B(  0-Au,  4-Au) :   0.1856 
B(  0-Au,  5-Au) :   0.3255 B(  0-Au,  7-Au) :   0.1752 B(  0-Au, 16-Fe) :   0.4046 
B(  1-Au,  2-Au) :   0.2001 B(  1-Au,  4-Au) :   0.2667 B(  1-Au, 10-Au) :   0.1446 
B(  1-Au, 12-Au) :   0.2204 B(  1-Au, 16-Fe) :   0.4333 B(  2-Au,  3-Au) :   0.1495 
B(  2-Au,  8-Au) :   0.1037 B(  2-Au, 10-Au) :   0.1889 B(  2-Au, 16-Fe) :   0.3929 
B(  3-Au,  7-Au) :   0.1750 B(  3-Au,  8-Au) :   0.1908 B(  3-Au, 11-Au) :   0.1446 
B(  3-Au, 16-Fe) :   0.4088 B(  4-Au,  5-Au) :   0.2672 B(  4-Au,  6-Au) :   0.2284 
B(  4-Au,  7-Au) :   0.1186 B(  4-Au, 12-Au) :   0.2559 B(  4-Au, 13-Au) :   0.2832 
B(  4-Au, 16-Fe) :   0.3805 B(  5-Au,  6-Au) :   0.1986 B(  5-Au,  7-Au) :   0.2785 
B(  6-Au,  7-Au) :   0.2663 B(  6-Au, 13-Au) :   0.2340 B(  6-Au, 15-Au) :   0.2752 
B(  7-Au, 11-Au) :   0.2221 B(  7-Au, 15-Au) :   0.2710 B(  7-Au, 16-Fe) :   0.4060 
B(  8-Au,  9-Au) :   0.2236 B(  8-Au, 10-Au) :   0.1550 B(  8-Au, 11-Au) :   0.2000 
B(  8-Au, 16-Fe) :   0.3881 B(  9-Au, 10-Au) :   0.1527 B(  9-Au, 12-Au) :   0.1819 
B(  9-Au, 14-Au) :   0.3249 B(  9-Au, 15-Au) :   0.1858 B(  9-Au, 16-Fe) :   0.3988 
B( 10-Au, 12-Au) :   0.1803 B( 10-Au, 16-Fe) :   0.4150 B( 11-Au, 15-Au) :   0.2618 
B( 11-Au, 16-Fe) :   0.4362 B( 12-Au, 13-Au) :   0.2620 B( 12-Au, 14-Au) :   0.2752 
B( 12-Au, 15-Au) :   0.1158 B( 12-Au, 16-Fe) :   0.4091 B( 13-Au, 14-Au) :   0.2055 
B( 13-Au, 15-Au) :   0.2306 B( 14-Au, 15-Au) :   0.2617 B( 15-Au, 16-Fe) :   0.3717 


-------
TIMINGS
-------

Total SCF time: 0 days 2 hours 1 min 40 sec 

Total time                  ....    7300.191 sec
Sum of individual times     ....    7244.913 sec  ( 99.2%)

Fock matrix formation       ....    7058.607 sec  ( 96.7%)
  Split-RI-J                ....    1686.769 sec  ( 23.9% of F)
  XC integration            ....    5359.590 sec  ( 75.9% of F)
    Basis function eval.    ....     193.269 sec  (  3.6% of XC)
    Density eval.           ....    2087.098 sec  ( 38.9% of XC)
    XC-Functional eval.     ....      38.256 sec  (  0.7% of XC)
    XC-Potential eval.      ....    2756.364 sec  ( 51.4% of XC)
Diagonalization             ....      40.922 sec  (  0.6%)
Density matrix formation    ....      17.951 sec  (  0.2%)
Population analysis         ....       0.200 sec  (  0.0%)
Initial guess               ....       0.289 sec  (  0.0%)
Orbital Transformation      ....     107.419 sec  (  1.5%)
Orbital Orthonormalization  ....       0.247 sec  (  0.0%)
DIIS solution               ....      17.993 sec  (  0.2%)
Grid generation             ....       1.471 sec  (  0.0%)

Maximum memory used throughout the entire SCF-calculation: 139.1 MB

-------------------------   --------------------
FINAL SINGLE POINT ENERGY     -3437.282756000180
-------------------------   --------------------


                            ***************************************
                            *     ORCA property calculations      *
                            ***************************************

                                    ---------------------
                                    Active property flags
                                    ---------------------
   (+) Dipole Moment


------------------------------------------------------------------------------
                       ORCA ELECTRIC PROPERTIES CALCULATION
------------------------------------------------------------------------------

Dipole Moment Calculation                       ... on
Quadrupole Moment Calculation                   ... off
Polarizability Calculation                      ... off
GBWName                                         ... scan_job2.gbw
Electron density                                ... scan_job2.scfp
The origin for moment calculation is the CENTER OF MASS  = (13.460584, 15.481630 12.017165)

-------------
DIPOLE MOMENT
-------------
                                X             Y             Z
Electronic contribution:     14.92874      19.96736     -19.14468
Nuclear contribution   :    -15.04785     -20.09782      19.28437
                        -----------------------------------------
Total Dipole Moment    :     -0.11911      -0.13046       0.13969
                        -----------------------------------------
Magnitude (a.u.)       :      0.22521
Magnitude (Debye)      :      0.57245



--------------------
Rotational spectrum 
--------------------
 
Rotational constants in cm-1:     0.000949     0.000863     0.000707 
Rotational constants in MHz :    28.456729    25.863368    21.207971 

 Dipole components along the rotational axes: 
x,y,z [a.u.] :    -0.224628    -0.016243     0.000222 
x,y,z [Debye]:    -0.570958    -0.041285     0.000565 

 

Timings for individual modules:

Sum of individual times         ...     7312.636 sec (= 121.877 min)
GTO integral calculation        ...       12.293 sec (=   0.205 min)   0.2 %
SCF iterations                  ...     7300.342 sec (= 121.672 min)  99.8 %



                             ****ORCA TERMINATED NORMALLY****
TOTAL RUN TIME: 0 days 2 hours 9 minutes 33 seconds 894 msec
