
                                 *****************
                                 * O   R   C   A *
                                 *****************

                                            #,                                       
                                            ###                                      
                                            ####                                     
                                            #####                                    
                                            ######                                   
                                           ########,                                 
                                     ,,################,,,,,                         
                               ,,#################################,,                 
                          ,,##########################################,,             
                       ,#########################################, ''#####,          
                    ,#############################################,,   '####,        
                  ,##################################################,,,,####,       
                ,###########''''           ''''###############################       
              ,#####''   ,,,,##########,,,,          '''####'''          '####       
            ,##' ,,,,###########################,,,                        '##       
           ' ,,###''''                  '''############,,,                           
         ,,##''                                '''############,,,,        ,,,,,,###''
      ,#''                                            '''#######################'''  
     '                                                          ''''####''''         
             ,#######,   #######,   ,#######,      ##                                
            ,#'     '#,  ##    ##  ,#'     '#,    #''#        ######   ,####,        
            ##       ##  ##   ,#'  ##            #'  '#       #        #'  '#        
            ##       ##  #######   ##           ,######,      #####,   #    #        
            '#,     ,#'  ##    ##  '#,     ,#' ,#      #,         ##   #,  ,#        
             '#######'   ##     ##  '#######'  #'      '#     #####' # '####'        



                  #######################################################
                  #                        -***-                        #
                  #          Department of theory and spectroscopy      #
                  #    Directorship and core code : Frank Neese         #
                  #        Max Planck Institute fuer Kohlenforschung    #
                  #                Kaiser Wilhelm Platz 1               #
                  #                 D-45470 Muelheim/Ruhr               #
                  #                      Germany                        #
                  #                                                     #
                  #                  All rights reserved                #
                  #                        -***-                        #
                  #######################################################


                         Program Version 5.0.3 -  RELEASE  -


 With contributions from (in alphabetic order):
   Daniel Aravena         : Magnetic Suceptibility
   Michael Atanasov       : Ab Initio Ligand Field Theory (pilot matlab implementation)
   Alexander A. Auer      : GIAO ZORA, VPT2 properties, NMR spectrum
   Ute Becker             : Parallelization
   Giovanni Bistoni       : ED, misc. LED, open-shell LED, HFLD
   Martin Brehm           : Molecular dynamics
   Dmytro Bykov           : SCF Hessian
   Vijay G. Chilkuri      : MRCI spin determinant printing, contributions to CSF-ICE
   Dipayan Datta          : RHF DLPNO-CCSD density
   Achintya Kumar Dutta   : EOM-CC, STEOM-CC
   Dmitry Ganyushin       : Spin-Orbit,Spin-Spin,Magnetic field MRCI
   Miquel Garcia          : C-PCM and meta-GGA Hessian, CC/C-PCM, Gaussian charge scheme
   Yang Guo               : DLPNO-NEVPT2, F12-NEVPT2, CIM, IAO-localization
   Andreas Hansen         : Spin unrestricted coupled pair/coupled cluster methods
   Benjamin Helmich-Paris : MC-RPA, TRAH-SCF, COSX integrals
   Lee Huntington         : MR-EOM, pCC
   Robert Izsak           : Overlap fitted RIJCOSX, COSX-SCS-MP3, EOM
   Marcus Kettner         : VPT2
   Christian Kollmar      : KDIIS, OOCD, Brueckner-CCSD(T), CCSD density, CASPT2, CASPT2-K
   Simone Kossmann        : Meta GGA functionals, TD-DFT gradient, OOMP2, MP2 Hessian
   Martin Krupicka        : Initial AUTO-CI
   Lucas Lang             : DCDCAS
   Marvin Lechner         : AUTO-CI (C++ implementation), FIC-MRCC
   Dagmar Lenk            : GEPOL surface, SMD
   Dimitrios Liakos       : Extrapolation schemes; Compound Job, initial MDCI parallelization
   Dimitrios Manganas     : Further ROCIS development; embedding schemes
   Dimitrios Pantazis     : SARC Basis sets
   Anastasios Papadopoulos: AUTO-CI, single reference methods and gradients
   Taras Petrenko         : DFT Hessian,TD-DFT gradient, ASA, ECA, R-Raman, ABS, FL, XAS/XES, NRVS
   Peter Pinski           : DLPNO-MP2, DLPNO-MP2 Gradient
   Christoph Reimann      : Effective Core Potentials
   Marius Retegan         : Local ZFS, SOC
   Christoph Riplinger    : Optimizer, TS searches, QM/MM, DLPNO-CCSD(T), (RO)-DLPNO pert. Triples
   Tobias Risthaus        : Range-separated hybrids, TD-DFT gradient, RPA, STAB
   Michael Roemelt        : Original ROCIS implementation
   Masaaki Saitow         : Open-shell DLPNO-CCSD energy and density
   Barbara Sandhoefer     : DKH picture change effects
   Avijit Sen             : IP-ROCIS
   Kantharuban Sivalingam : CASSCF convergence, NEVPT2, FIC-MRCI
   Bernardo de Souza      : ESD, SOC TD-DFT
   Georgi Stoychev        : AutoAux, RI-MP2 NMR, DLPNO-MP2 response
   Willem Van den Heuvel  : Paramagnetic NMR
   Boris Wezisla          : Elementary symmetry handling
   Frank Wennmohs         : Technical directorship


 We gratefully acknowledge several colleagues who have allowed us to
 interface, adapt or use parts of their codes:
   Stefan Grimme, W. Hujo, H. Kruse, P. Pracht,  : VdW corrections, initial TS optimization,
                  C. Bannwarth, S. Ehlert          DFT functionals, gCP, sTDA/sTD-DF
   Ed Valeev, F. Pavosevic, A. Kumar             : LibInt (2-el integral package), F12 methods
   Garnet Chan, S. Sharma, J. Yang, R. Olivares  : DMRG
   Ulf Ekstrom                                   : XCFun DFT Library
   Mihaly Kallay                                 : mrcc  (arbitrary order and MRCC methods)
   Jiri Pittner, Ondrej Demel                    : Mk-CCSD
   Frank Weinhold                                : gennbo (NPA and NBO analysis)
   Christopher J. Cramer and Donald G. Truhlar   : smd solvation model
   Lars Goerigk                                  : TD-DFT with DH, B97 family of functionals
   V. Asgeirsson, H. Jonsson                     : NEB implementation
   FAccTs GmbH                                   : IRC, NEB, NEB-TS, DLPNO-Multilevel, CI-OPT
                                                   MM, QMMM, 2- and 3-layer-ONIOM, Crystal-QMMM,
                                                   LR-CPCM, SF, NACMEs, symmetry and pop. for TD-DFT,
                                                   nearIR, NL-DFT gradient (VV10), updates on ESD,
                                                   ML-optimized integration grids
   S Lehtola, MJT Oliveira, MAL Marques          : LibXC Library
   Liviu Ungur et al                             : ANISO software


 Your calculation uses the libint2 library for the computation of 2-el integrals
 For citations please refer to: http://libint.valeyev.net

 Your ORCA version has been built with support for libXC version: 5.1.0
 For citations please refer to: https://tddft.org/programs/libxc/

 This ORCA versions uses:
   CBLAS   interface :  Fast vector & matrix operations
   LAPACKE interface :  Fast linear algebra routines
   SCALAPACK package :  Parallel linear algebra routines
   Shared memory     :  Shared parallel matrices
   BLAS/LAPACK       :  OpenBLAS 0.3.15  USE64BITINT DYNAMIC_ARCH NO_AFFINITY Haswell SINGLE_THREADED
        Core in use  :  Haswell
   Copyright (c) 2011-2014, The OpenBLAS Project




***************************************
The coordinates will be read from file: pbe.xyz
***************************************


================================================================================

cite the ECPs for Au [Def2-ECP] as follows:
Ce-Yb(ecp-28): M. Dolg, H. Stoll, H.Preuss, J. Chem. Phys., 1989, 90, 1730-1734.
Y-Cd(ecp-28), Hf-Hg(ecp-46): D. Andrae,U. Haeussermann, M. Dolg, H. Stoll, H. Preuss, Theor. Chim. Acta, 1990, 77, 123-141.
In-Sb(ecp-28), Tl-Bi(ecp-46): B. Metz, H. Stoll, M. Dolg, J. Chem. Phys., 2000, 113, 2563-2569.
Te-Xe(ecp-28), Po-Rn(ecp-46): K. A. Peterson, D. Figgen, E. Goll, H. Stoll, M. Dolg, J. Chem. Phys., 2003, 119, 11113-11123.
Rb(ecp-28), Cs(ecp-46): T. Leininger, A. Nicklass, W. Kuechle, H. Stoll, M. Dolg, A. Bergner, Chem. Phys. Lett., 1996, 255, 274-280.
Sr(ecp-28), Ba(ecp-46): M. Kaupp, P. V. Schleyer, H. Stoll and H. Preuss, J. Chem. Phys., 1991, 94, 1360-1366.
La(ecp-46): M. Dolg, H. Stoll, A. Savin, H. Preuss, Theor. Chim. Acta, 1989, 75, 173-194.
Lu(ecp-28): X. Cao, M. Dolg, J. Chem. Phys., 2001, 115, 7348-7355.

ECP parameters for Au [Def2-ECP] have been obtained from:
TURBOMOLE (7.0.2)

----- Orbital basis set information -----
Your calculation utilizes the basis: def2-TZVP
   F. Weigend and R. Ahlrichs, Phys. Chem. Chem. Phys. 7, 3297 (2005).

----- AuxJ basis set information -----
Your calculation utilizes the auxiliary basis: def2/J
   F. Weigend, Phys. Chem. Chem. Phys. 8, 1057 (2006).

================================================================================
                                        WARNINGS
                       Please study these warnings very carefully!
================================================================================

Using LibXC functional ID 497 : Re-regularized SCAN exchange by Furness et al
[ 1]  J. W. Furness, A. D. Kaplan, J. Ning, J. P. Perdew, and J. Sun, J. Phys. Chem. Lett. 11, 8208 (2020)
[ 2]  J. W. Furness, A. D. Kaplan, J. Ning, J. P. Perdew, and J. Sun, J. Phys. Chem. Lett. 11, 9248 (2020)
Using LibXC functional ID 498 : Re-regularized SCAN correlation by Furness et al
[ 1]  J. W. Furness, A. D. Kaplan, J. Ning, J. P. Perdew, and J. Sun, J. Phys. Chem. Lett. 11, 8208 (2020)
[ 2]  J. W. Furness, A. D. Kaplan, J. Ning, J. P. Perdew, and J. Sun, J. Phys. Chem. Lett. 11, 9248 (2020)
Using LibXC functional ID 497 : Re-regularized SCAN exchange by Furness et al
[ 1]  J. W. Furness, A. D. Kaplan, J. Ning, J. P. Perdew, and J. Sun, J. Phys. Chem. Lett. 11, 8208 (2020)
[ 2]  J. W. Furness, A. D. Kaplan, J. Ning, J. P. Perdew, and J. Sun, J. Phys. Chem. Lett. 11, 9248 (2020)
Using LibXC functional ID 498 : Re-regularized SCAN correlation by Furness et al
[ 1]  J. W. Furness, A. D. Kaplan, J. Ning, J. P. Perdew, and J. Sun, J. Phys. Chem. Lett. 11, 8208 (2020)
[ 2]  J. W. Furness, A. D. Kaplan, J. Ning, J. P. Perdew, and J. Sun, J. Phys. Chem. Lett. 11, 9248 (2020)

WARNING: your system is open-shell and RHF/RKS was chosen
  ===> : WILL SWITCH to UHF/UKS


INFO   : the flag for use of the SHARK integral package has been found!



***************************************
The coordinates will be read from file: pbe.xyz
***************************************


================================================================================

cite the ECPs for Au [Def2-ECP] as follows:
Ce-Yb(ecp-28): M. Dolg, H. Stoll, H.Preuss, J. Chem. Phys., 1989, 90, 1730-1734.
Y-Cd(ecp-28), Hf-Hg(ecp-46): D. Andrae,U. Haeussermann, M. Dolg, H. Stoll, H. Preuss, Theor. Chim. Acta, 1990, 77, 123-141.
In-Sb(ecp-28), Tl-Bi(ecp-46): B. Metz, H. Stoll, M. Dolg, J. Chem. Phys., 2000, 113, 2563-2569.
Te-Xe(ecp-28), Po-Rn(ecp-46): K. A. Peterson, D. Figgen, E. Goll, H. Stoll, M. Dolg, J. Chem. Phys., 2003, 119, 11113-11123.
Rb(ecp-28), Cs(ecp-46): T. Leininger, A. Nicklass, W. Kuechle, H. Stoll, M. Dolg, A. Bergner, Chem. Phys. Lett., 1996, 255, 274-280.
Sr(ecp-28), Ba(ecp-46): M. Kaupp, P. V. Schleyer, H. Stoll and H. Preuss, J. Chem. Phys., 1991, 94, 1360-1366.
La(ecp-46): M. Dolg, H. Stoll, A. Savin, H. Preuss, Theor. Chim. Acta, 1989, 75, 173-194.
Lu(ecp-28): X. Cao, M. Dolg, J. Chem. Phys., 2001, 115, 7348-7355.

ECP parameters for Au [Def2-ECP] have been obtained from:
TURBOMOLE (7.0.2)

----- Orbital basis set information -----
Your calculation utilizes the basis: def2-TZVP
   F. Weigend and R. Ahlrichs, Phys. Chem. Chem. Phys. 7, 3297 (2005).

----- AuxJ basis set information -----
Your calculation utilizes the auxiliary basis: def2/J
   F. Weigend, Phys. Chem. Chem. Phys. 8, 1057 (2006).

================================================================================
                                        WARNINGS
                       Please study these warnings very carefully!
================================================================================

Using LibXC functional ID 497 : Re-regularized SCAN exchange by Furness et al
[ 1]  J. W. Furness, A. D. Kaplan, J. Ning, J. P. Perdew, and J. Sun, J. Phys. Chem. Lett. 11, 8208 (2020)
[ 2]  J. W. Furness, A. D. Kaplan, J. Ning, J. P. Perdew, and J. Sun, J. Phys. Chem. Lett. 11, 9248 (2020)
Using LibXC functional ID 498 : Re-regularized SCAN correlation by Furness et al
[ 1]  J. W. Furness, A. D. Kaplan, J. Ning, J. P. Perdew, and J. Sun, J. Phys. Chem. Lett. 11, 8208 (2020)
[ 2]  J. W. Furness, A. D. Kaplan, J. Ning, J. P. Perdew, and J. Sun, J. Phys. Chem. Lett. 11, 9248 (2020)
Using LibXC functional ID 497 : Re-regularized SCAN exchange by Furness et al
[ 1]  J. W. Furness, A. D. Kaplan, J. Ning, J. P. Perdew, and J. Sun, J. Phys. Chem. Lett. 11, 8208 (2020)
[ 2]  J. W. Furness, A. D. Kaplan, J. Ning, J. P. Perdew, and J. Sun, J. Phys. Chem. Lett. 11, 9248 (2020)
Using LibXC functional ID 498 : Re-regularized SCAN correlation by Furness et al
[ 1]  J. W. Furness, A. D. Kaplan, J. Ning, J. P. Perdew, and J. Sun, J. Phys. Chem. Lett. 11, 8208 (2020)
[ 2]  J. W. Furness, A. D. Kaplan, J. Ning, J. P. Perdew, and J. Sun, J. Phys. Chem. Lett. 11, 9248 (2020)

INFO   : the flag for use of the SHARK integral package has been found!

================================================================================
                                       INPUT FILE
================================================================================
NAME = scan.inp
|  1> !R2SCAN def2-TZVP VERYSLOWCONV
|  2> !KDIIS
|  3> %scf
|  4>   AutoTRAHIter 200
|  5>   maxiter 400
|  6> end
|  7> 
|  8> %pal nprocs 6 end 
|  9> 
| 10> *xyzfile 0 5 pbe.xyz
| 11> 
| 12> $new_job
| 13> 
| 14> !R2SCAN def2-TZVP VERYSLOWCONV
| 15> !KDIIS
| 16> %scf
| 17>   AutoTRAHIter 200
| 18>   maxiter 400
| 19> end
| 20> 
| 21> 
| 22> %pal nprocs 6 end 
| 23> 
| 24> *xyzfile 0 3 pbe.xyz
| 25> 
| 26> 
| 27> 
| 28> 
| 29> 
| 30>                          ****END OF INPUT****
================================================================================


                 $$$$$$$$$$$$$$$$$$$$$$$$$$$$$$$$$$$$$$$$$$$$$$ 
                 $ THERE ARE  2 JOBS TO BE PROCESSED THIS RUN $
                 $$$$$$$$$$$$$$$$$$$$$$$$$$$$$$$$$$$$$$$$$$$$$$ 




                 $$$$$$$$$$$$$$$$  JOB NUMBER  1 $$$$$$$$$$$$$$


                       ****************************
                       * Single Point Calculation *
                       ****************************

---------------------------------
CARTESIAN COORDINATES (ANGSTROEM)
---------------------------------
  Au    10.903102    5.430103    8.984597
  Au    10.114515    4.555455    6.441033
  Au     8.959549    3.418794    8.801176
  Au     9.681038    7.740477    9.497642
  Au     8.250496    6.331010    5.328916
  Au     7.703366    9.624382    9.439648
  Au     7.888660    8.349704    7.029397
  Au     6.393741    4.503344    9.122401
  Au     6.632525    7.114976    9.591009
  Au     7.316866    3.973584    6.527665
  Cr     8.412237    5.957169    8.019264

----------------------------
CARTESIAN COORDINATES (A.U.)
----------------------------
  NO LB      ZA    FRAG     MASS         X           Y           Z
   0 Au   19.0000*   0   196.966   20.603876   10.261407   16.978427
   1 Au   19.0000*   0   196.966   19.113664    8.608562   12.171788
   2 Au   19.0000*   0   196.966   16.931093    6.460584   16.631812
   3 Au   19.0000*   0   196.966   18.294511   14.627382   17.947942
   4 Au   19.0000*   0   196.966   15.591178   11.963874   10.070193
   5 Au   19.0000*   0   196.966   14.557252   18.187446   17.838350
   6 Au   19.0000*   0   196.966   14.907407   15.778655   13.283636
   7 Au   19.0000*   0   196.966   12.082420    8.510088   17.238840
   8 Au   19.0000*   0   196.966   12.533656   13.445356   18.124380
   9 Au   19.0000*   0   196.966   13.826872    7.508986   12.335500
  10 Cr   24.0000    0    52.000   15.896824   11.257418   15.154213
* core charge reduced due to ECP

--------------------------------
INTERNAL COORDINATES (ANGSTROEM)
--------------------------------
 Au     0   0   0     0.000000000000     0.00000000     0.00000000
 Au     1   0   0     2.802961628461     0.00000000     0.00000000
 Au     1   2   0     2.802927849126    61.42037654     0.00000000
 Au     1   2   3     2.663547214268   108.44404474   258.53781779
 Au     2   1   3     2.804276481572   110.44527196    99.41363821
 Au     4   1   2     2.731967518347   157.84813261    32.76846337
 Au     5   2   1     2.664148856724   108.47617370     2.03629339
 Au     3   1   2     2.804069076880   110.45335575   260.60028187
 Au     8   3   1     2.664062623353   108.49973127   357.98773767
 Au     8   3   1     2.804542637365    61.29945781    99.50174661
 Cr     4   1   2     2.641144533766    61.76559877    32.59592927

---------------------------
INTERNAL COORDINATES (A.U.)
---------------------------
 Au     0   0   0     0.000000000000     0.00000000     0.00000000
 Au     1   0   0     5.296829841682     0.00000000     0.00000000
 Au     1   2   0     5.296766007990    61.42037654     0.00000000
 Au     1   2   3     5.033374779735   108.44404474   258.53781779
 Au     2   1   3     5.299314553968   110.44527196    99.41363821
 Au     4   1   2     5.162670416444   157.84813261    32.76846337
 Au     5   2   1     5.034511719209   108.47617370     2.03629339
 Au     3   1   2     5.298922615901   110.45335575   260.60028187
 Au     8   3   1     5.034348761754   108.49973127   357.98773767
 Au     8   3   1     5.299817515525    61.29945781    99.50174661
 Cr     4   1   2     4.991039848922    61.76559877    32.59592927

---------------------
BASIS SET INFORMATION
---------------------
There are 2 groups of distinct atoms

 Group   1 Type Au  : 8s7p6d1f contracted to 6s4p3d1f pattern {311111/4111/411/1}
 Group   2 Type Cr  : 17s11p7d1f contracted to 6s4p4d1f pattern {842111/6311/4111/1}

Atom   0Au   basis set group =>   1
Atom   1Au   basis set group =>   1
Atom   2Au   basis set group =>   1
Atom   3Au   basis set group =>   1
Atom   4Au   basis set group =>   1
Atom   5Au   basis set group =>   1
Atom   6Au   basis set group =>   1
Atom   7Au   basis set group =>   1
Atom   8Au   basis set group =>   1
Atom   9Au   basis set group =>   1
Atom  10Cr   basis set group =>   2
---------------------------------
AUXILIARY/J BASIS SET INFORMATION
---------------------------------
There are 2 groups of distinct atoms

 Group   1 Type Au  : 11s5p5d3f3g contracted to 8s5p5d2f3g pattern {41111111/11111/11111/21/111}
 Group   2 Type Cr  : 19s5p5d3f3g contracted to 8s5p5d2f3g pattern {121111111/11111/11111/21/111}

Atom   0Au   basis set group =>   1
Atom   1Au   basis set group =>   1
Atom   2Au   basis set group =>   1
Atom   3Au   basis set group =>   1
Atom   4Au   basis set group =>   1
Atom   5Au   basis set group =>   1
Atom   6Au   basis set group =>   1
Atom   7Au   basis set group =>   1
Atom   8Au   basis set group =>   1
Atom   9Au   basis set group =>   1
Atom  10Cr   basis set group =>   2
-------------------------
ECP PARAMETER INFORMATION
-------------------------

 Group 1, Type Au ECP Def2-ECP (replacing 60 core electrons, lmax=3)

Atom   0Au   ECP group =>   1
Atom   1Au   ECP group =>   1
Atom   2Au   ECP group =>   1
Atom   3Au   ECP group =>   1
Atom   4Au   ECP group =>   1
Atom   5Au   ECP group =>   1
Atom   6Au   ECP group =>   1
Atom   7Au   ECP group =>   1
Atom   8Au   ECP group =>   1
Atom   9Au   ECP group =>   1



           ************************************************************
           *        Program running with 6 parallel MPI-processes     *
           *              working on a common directory               *
           ************************************************************
------------------------------------------------------------------------------
                           ORCA GTO INTEGRAL CALCULATION
                           -- RI-GTO INTEGRALS CHOSEN --
------------------------------------------------------------------------------
------------------------------------------------------------------------------
                   ___                                                        
                  /   \      - P O W E R E D   B Y -                         
                 /     \                                                     
                 |  |  |   _    _      __       _____    __    __             
                 |  |  |  | |  | |    /  \     |  _  \  |  |  /  |          
                  \  \/   | |  | |   /    \    | | | |  |  | /  /          
                 / \  \   | |__| |  /  /\  \   | |_| |  |  |/  /          
                |  |  |   |  __  | /  /__\  \  |    /   |      \           
                |  |  |   | |  | | |   __   |  |    \   |  |\   \          
                \     /   | |  | | |  |  |  |  | |\  \  |  | \   \       
                 \___/    |_|  |_| |__|  |__|  |_| \__\ |__|  \__/        
                                                                              
                      - O R C A' S   B I G   F R I E N D -                    
                                      &                                       
                       - I N T E G R A L  F E E D E R -                       
                                                                              
 v1 FN, 2020, v2 2021                                                         
------------------------------------------------------------------------------


Reading SHARK input file scan.SHARKINP.tmp ... ok
----------------------
SHARK INTEGRAL PACKAGE
----------------------

Number of atoms                             ...     11
Number of basis functions                   ...    445
Number of shells                            ...    155
Maximum angular momentum                    ...      3
Integral batch strategy                     ... SHARK/LIBINT Hybrid
RI-J (if used) integral strategy            ... SPLIT-RIJ (Revised 2003 algorithm where possible)
Printlevel                                  ...      1
Contraction scheme used                     ... SEGMENTED contraction
Coulomb Range Separation                    ... NOT USED
Exchange Range Separation                   ... NOT USED
Finite Nucleus Model                        ... NOT USED
Auxiliary Coulomb fitting basis             ... AVAILABLE
   # of basis functions in Aux-J            ...    979
   # of shells in Aux-J                     ...    253
   Maximum angular momentum in Aux-J        ...      4
Auxiliary J/K fitting basis                 ... NOT available
Auxiliary Correlation fitting basis         ... NOT available
Auxiliary 'external' fitting basis          ... NOT available
Integral threshold                          ...     1.000000e-10
Primitive cut-off                           ...     1.000000e-11
Primitive pair pre-selection threshold      ...     1.000000e-11

Calculating pre-screening integrals         ... done (  0.7 sec) Dimension = 155
Organizing shell pair data                  ... done ( 19.7 sec)
Shell pair information
Total number of shell pairs                 ...     12090
Shell pairs after pre-screening             ...     10030
Total number of primitive shell pairs       ...     33105
Primitive shell pairs kept                  ...     20337
          la=0 lb=0:   1568 shell pairs
          la=1 lb=0:   2303 shell pairs
          la=1 lb=1:    852 shell pairs
          la=2 lb=0:   1991 shell pairs
          la=2 lb=1:   1385 shell pairs
          la=2 lb=2:    579 shell pairs
          la=3 lb=0:    541 shell pairs
          la=3 lb=1:    404 shell pairs
          la=3 lb=2:    350 shell pairs
          la=3 lb=3:     57 shell pairs

Calculating one electron integrals          ... done (  0.8 sec)
Calculating ECP integrals                   ... done ( 27.8 sec)
Calculating RI/J V-Matrix + Cholesky decomp.... done (  2.5 sec)
Calculating Nuclear repulsion               ... done (  0.0 sec) ENN=   3146.328683254158 Eh

SHARK setup successfully completed in  54.1 seconds

Maximum memory used throughout the entire GTOINT-calculation: 27.3 MB


           ************************************************************
           *        Program running with 6 parallel MPI-processes     *
           *              working on a common directory               *
           ************************************************************
-------------------------------------------------------------------------------
                                 ORCA SCF
-------------------------------------------------------------------------------

------------
SCF SETTINGS
------------
Hamiltonian:
 Density Functional     Method          .... DFT(GTOs)
  Functional kind                       .... Exchange
  Functional name                       .... Re-regularized SCAN exchange by Furness et al
  Functional family                     .... MGGA
  Functional refs                              
    [ 0] J. W. Furness, A. D. Kaplan, J. Ning, J. P. Perdew, and J. Sun, J. Phys. Chem. Lett. 11, 8208 (2020)
    [ 1] J. W. Furness, A. D. Kaplan, J. Ning, J. P. Perdew, and J. Sun, J. Phys. Chem. Lett. 11, 9248 (2020)
  Functional external parameters         .... 8
 Parameter  0 :         c1 parameter
 Parameter  1 :         c2 parameter
 Parameter  2 :          d parameter
 Parameter  3 :         k1 parameter
 Parameter  4 :       taur parameter
 Parameter  5 :     alphar parameter
 Parameter  6 :        eta parameter
 Parameter  7 :        dp2 parameter
  Functional kind                       .... Correlation
  Functional name                       .... Re-regularized SCAN correlation by Furness et al
  Functional family                     .... MGGA
  Functional refs                              
    [ 0] J. W. Furness, A. D. Kaplan, J. Ning, J. P. Perdew, and J. Sun, J. Phys. Chem. Lett. 11, 8208 (2020)
    [ 1] J. W. Furness, A. D. Kaplan, J. Ning, J. P. Perdew, and J. Sun, J. Phys. Chem. Lett. 11, 9248 (2020)
  Functional external parameters         .... 0
 Gradients option       PostSCFGGA      .... off
   Density functional embedding theory  .... OFF
   NL short-range parameter             .... 12.300000
 RI-approximation to the Coulomb term is turned on
   Number of AuxJ basis functions       .... 979


General Settings:
 Integral files         IntName         .... scan
 Hartree-Fock type      HFTyp           .... UHF
 Total Charge           Charge          ....    0
 Multiplicity           Mult            ....    5
 Number of Electrons    NEL             ....  214
 Basis Dimension        Dim             ....  445
 Nuclear Repulsion      ENuc            ....   3146.3286832542 Eh

Convergence Acceleration:
 DIIS                   CNVDIIS         .... off
 Trust-Rad. Augm. Hess. CNVTRAH         .... auto
   Auto Start mean grad. ratio tolernc. ....  1.125000
   Auto Start start iteration           ....   200
   Auto Start num. interpolation iter.  ....    10
   Max. Number of Micro iterations      ....    16
   Max. Number of Macro iterations      .... Maxiter - #DIIS iter
   Number of Davidson start vectors     ....     2
   Converg. threshold I  (grad. norm)   ....   5.000e-05
   Converg. threshold II (energy diff.) ....   1.000e-06
   Grad. Scal. Fac. for Micro threshold ....   0.100
   Minimum threshold for Micro iter.    ....   0.010
   NR start threshold (gradient norm)   ....   0.001
   Initial trust radius                 ....   0.400
   Minimum AH scaling param. (alpha)    ....   1.000
   Maximum AH scaling param. (alpha)    .... 1000.000
   Orbital update algorithm             .... Taylor
   White noise on init. David. guess    .... on
   Maximum white noise                  ....   0.010
   Quad. conv. algorithm                .... NR
 SOSCF                  CNVSOSCF        .... off
 Level Shifting         CNVShift        .... off
 Zerner damping         CNVZerner       .... off
 Static damping         CNVDamp         .... off
 Fernandez-Rico         CNVRico         .... off

SCF Procedure:
 Maximum # iterations   MaxIter         ....   400
 SCF integral mode      SCFMode         .... Direct
   Integral package                     .... SHARK and LIBINT hybrid scheme
 Reset frequency        DirectResetFreq ....    20
 Integral Threshold     Thresh          ....  1.000e-10 Eh
 Primitive CutOff       TCut            ....  1.000e-11 Eh

Convergence Tolerance:
 Convergence Check Mode ConvCheckMode   .... All-Criteria
 Convergence forced     ConvForced      .... 0
 Energy Change          TolE            ....  1.000e-06 Eh
 Max Density Change     TolMaxP         ....  1.000e-05
 RMS Density Change     TolRMSP         ....  1.000e-06


Diagonalization of the overlap matrix:
Smallest eigenvalue                        ... 2.396e-04
Time for diagonalization                   ...    0.221 sec
Threshold for overlap eigenvalues          ... 1.000e-08
Number of eigenvalues below threshold      ... 0
Time for construction of square roots      ...    0.564 sec
Total time needed                          ...    1.349 sec

Time for model grid setup =    5.068 sec

------------------------------
INITIAL GUESS: MODEL POTENTIAL
------------------------------
Loading Hartree-Fock densities                     ... done
  calling /media/Programs/ORCA501/orca scan_atom79.inp > scan_atom79.out in order to generate an atomic fitting density for atom 0 (Au with ECP) on-the-fly... 
    atom 0 (Au), assumed electronic state with S=2: 1s2 2s2 2p6 3s2 3p6 4s2 3d10 4p6 5s2 4d10 5p6 6s1 4f14 5d10           ... done
Calculating cut-offs                               ... done
Initializing the effective Hamiltonian             ... done
Setting up the integral package (SHARK)            ... done
Starting the Coulomb interaction                   ... done (   4.6 sec)
Reading the grid                                   ... done
Mapping shells                                     ... done
Starting the XC term evaluation                    ... done (   1.8 sec)
  promolecular density results
     # of electrons  =    814.012078804
     EX              =  -3705.431949065
     EC              =    -49.436905690
     EX+EC           =  -3754.868854755
Transforming the Hamiltonian                       ... done (   1.5 sec)
Diagonalizing the Hamiltonian                      ... done (   1.5 sec)
Back transforming the eigenvectors                 ... done (   0.1 sec)
Now organizing SCF variables                       ... done
                      ------------------
                      INITIAL GUESS DONE (  18.7 sec)
                      ------------------
-------------------
DFT GRID GENERATION
-------------------

General Integration Accuracy     IntAcc      ... 4.388
Radial Grid Type                 RadialGrid  ... OptM3 with GC (2021)
Angular Grid (max. ang.)         AngularGrid ... 4 (Lebedev-302)
Angular grid pruning method      GridPruning ... 4 (adaptive)
Weight generation scheme         WeightScheme... Becke
Basis function cutoff            BFCut       ... 1.0000e-10
Integration weight cutoff        WCut        ... 1.0000e-14
Angular grids for H and He will be reduced by one unit
Partially contracted basis set               ... off
Rotationally invariant grid construction     ... off

Total number of grid points                  ...   123396
Total number of batches                      ...     1935
Average number of points per batch           ...       63
Average number of grid points per atom       ...    11218
Time for grid setup =   11.364 sec

--------------
SCF ITERATIONS
--------------
ITER       Energy         Delta-E        Max-DP      RMS-DP      [F,P]   Gradient Norm
               ***  Starting incremental Fock matrix formation  ***
                             ****Resetting KDIIS****
                             ****Turning on KDIIS(Cayley)****
  0  -2401.3701919690   0.000000000000 0.36091985  0.00166032  0.3412227   0.215170368
  1  -2402.1502344344  -0.780042465386 0.16949508  0.00174527  0.3053379   0.169157080
  2  -2402.5392557537  -0.389021319292 0.15476760  0.00144471  0.2413607   0.127214094
  3  -2402.7431283812  -0.203872627594 0.33997303  0.00175895  0.1409307   0.073136905
  4  -2402.8322310767  -0.089102695429 0.13642771  0.00057758  0.0323939   0.012299833
  5  -2402.8461340036  -0.013902926883 0.10066978  0.00050199  0.0177395   0.008318440
  6  -2402.8579822389  -0.011848235356 0.04129022  0.00048479  0.0203651   0.004035915
  7  -2402.8650087246  -0.007026485686 0.08544824  0.00034480  0.0079215   0.004965288
  8  -2402.8646314092   0.000377315391 0.06485258  0.00026964  0.0094398   0.007634503
  9  -2402.8695862312  -0.004954822023 0.03259528  0.00015399  0.0065771   0.001727640
 10  -2402.8705033589  -0.000917127696 0.01031318  0.00008337  0.0030511   0.001215782
 11  -2402.8709324713  -0.000429112363 0.01459979  0.00008000  0.0022718   0.000982623
 12  -2402.8712388976  -0.000306426299 0.01727318  0.00006728  0.0014819   0.000950630
 13  -2402.8713790299  -0.000140132261 0.00700165  0.00005707  0.0014273   0.001024034
 14  -2402.8715571535  -0.000178123667 0.00982705  0.00004400  0.0009911   0.000573509
 15  -2402.8715180776   0.000039075914 0.00655743  0.00002855  0.0030706   0.001084256
 16  -2402.8715836906  -0.000065613001 0.00332354  0.00002162  0.0007362   0.000468314
 17  -2402.8716212791  -0.000037588491 0.00300517  0.00001519  0.0008051   0.000355456
 18  -2402.8716476900  -0.000026410940 0.00420236  0.00001645  0.0010453   0.000251872
 19  -2402.8716560353  -0.000008345260 0.00196070  0.00001065  0.0007312   0.000265141
               *** Restarting incremental Fock matrix formation ***
                             ****Resetting KDIIS****
 20  -2402.8716704419  -0.000014406588 0.00026457  0.00000159  0.0006977   0.000161696
 21  -2402.8716729227  -0.000002480796 0.00025022  0.00000207  0.0006601   0.000122079
 22  -2402.8716766792  -0.000003756550 0.00065880  0.00000499  0.0006541   0.000109697
 23  -2402.8716834827  -0.000006803476 0.00363689  0.00003782  0.0004718   0.000106589
 24  -2402.8717296061  -0.000046123349 0.00073399  0.00000322  0.0000711   0.000066887
 25  -2402.8717313289  -0.000001722875 0.00061664  0.00000311  0.0000835   0.000019028
                          ***Energy convergence achieved***
 26  -2402.8717320154  -0.000000686431 0.00010314  0.00000126  0.0000676   0.000021294
 27  -2402.8717318722   0.000000143156 0.00023531  0.00000345  0.0000599   0.000018864
 28  -2402.8717335158  -0.000001643600 0.00020055  0.00000157  0.0000459   0.000023919
                          ***Energy convergence achieved***
                           ***RMSP convergence achieved***
 29  -2402.8717328228   0.000000692962 0.00004496  0.00000069  0.0000369   0.000014127

            ***Energy convergence in two consecutive cycles with***
                    ***'reasonable' density convergence***
                       *** signaling convergence ***

                    *** KDIIS BlockDiag (15.649 sec) ***

               *****************************************************
               *                     SUCCESS                       *
               *           SCF CONVERGED AFTER  30 CYCLES          *
               *****************************************************


----------------
TOTAL SCF ENERGY
----------------

Total Energy       :        -2402.87173295 Eh          -65385.46399 eV

Components:
Nuclear Repulsion  :         3146.32868325 Eh           85615.95610 eV
Electronic Energy  :        -5549.20041621 Eh         -151001.42009 eV
One Electron Energy:       -10111.35368377 Eh         -275143.92178 eV
Two Electron Energy:         4562.15326757 Eh          124142.50169 eV

Virial components:
Potential Energy   :        -3904.53817249 Eh         -106247.88521 eV
Kinetic Energy     :         1501.66643954 Eh           40862.42123 eV
Virial Ratio       :            2.60013680


DFT components:
N(Alpha)           :      108.999985258855 electrons
N(Beta)            :      104.999983480888 electrons
N(Total)           :      213.999968739743 electrons
E(X)               :     -169.055927816584 Eh       
E(C)               :       -8.846236806280 Eh       
E(XC)              :     -177.902164622864 Eh       
DFET-embed. en.    :        0.000000000000 Eh       

---------------
SCF CONVERGENCE
---------------

  Last Energy change         ...   -1.2933e-07  Tolerance :   1.0000e-06
  Last MAX-Density change    ...    5.3481e-05  Tolerance :   1.0000e-05
  Last RMS-Density change    ...    9.7021e-07  Tolerance :   1.0000e-06

             **** THE GBW FILE WAS UPDATED (scan.gbw) ****
             **** DENSITY scan.scfp WAS UPDATED ****
             **** ENERGY FILE WAS UPDATED (scan.en.tmp) ****
----------------------
UHF SPIN CONTAMINATION
----------------------

Warning: in a DFT calculation there is little theoretical justification to 
         calculate <S**2> as in Hartree-Fock theory. We will do it anyways
         but you should keep in mind that the values have only limited relevance

Expectation value of <S**2>     :     6.385589
Ideal value S*(S+1) for S=2.0   :     6.000000
Deviation                       :     0.385589

             **** THE GBW FILE WAS UPDATED (scan.gbw) ****
             **** DENSITY scan.scfp WAS UPDATED ****
----------------
ORBITAL ENERGIES
----------------
                 SPIN UP ORBITALS
  NO   OCC          E(Eh)            E(eV) 
   0   1.0000    -215.284554     -5858.1906 
   1   1.0000     -24.587294      -669.0543 
   2   1.0000     -20.854363      -567.4761 
   3   1.0000     -20.853311      -567.4474 
   4   1.0000     -20.852151      -567.4159 
   5   1.0000      -4.118246      -112.0632 
   6   1.0000      -4.116702      -112.0212 
   7   1.0000      -4.114477      -111.9606 
   8   1.0000      -4.112331      -111.9022 
   9   1.0000      -4.111422      -111.8775 
  10   1.0000      -4.111009      -111.8662 
  11   1.0000      -4.110393      -111.8495 
  12   1.0000      -4.109280      -111.8192 
  13   1.0000      -4.109128      -111.8151 
  14   1.0000      -4.107842      -111.7801 
  15   1.0000      -2.908392       -79.1414 
  16   1.0000      -2.310462       -62.8709 
  17   1.0000      -2.306341       -62.7587 
  18   1.0000      -2.306070       -62.7514 
  19   1.0000      -2.303514       -62.6818 
  20   1.0000      -2.303177       -62.6726 
  21   1.0000      -2.302727       -62.6604 
  22   1.0000      -2.302348       -62.6501 
  23   1.0000      -2.301188       -62.6185 
  24   1.0000      -2.300981       -62.6129 
  25   1.0000      -2.300079       -62.5883 
  26   1.0000      -2.299499       -62.5726 
  27   1.0000      -2.299366       -62.5689 
  28   1.0000      -2.298826       -62.5542 
  29   1.0000      -2.298284       -62.5395 
  30   1.0000      -2.297949       -62.5304 
  31   1.0000      -2.297362       -62.5144 
  32   1.0000      -2.296695       -62.4962 
  33   1.0000      -2.296592       -62.4935 
  34   1.0000      -2.295609       -62.4667 
  35   1.0000      -2.295276       -62.4576 
  36   1.0000      -2.295051       -62.4515 
  37   1.0000      -2.294600       -62.4392 
  38   1.0000      -2.294133       -62.4265 
  39   1.0000      -2.293185       -62.4007 
  40   1.0000      -2.293051       -62.3971 
  41   1.0000      -2.291870       -62.3650 
  42   1.0000      -2.290878       -62.3380 
  43   1.0000      -2.290090       -62.3165 
  44   1.0000      -2.290002       -62.3141 
  45   1.0000      -2.288448       -62.2718 
  46   1.0000      -1.857301       -50.5397 
  47   1.0000      -1.855078       -50.4792 
  48   1.0000      -1.853583       -50.4386 
  49   1.0000      -0.413725       -11.2580 
  50   1.0000      -0.384200       -10.4546 
  51   1.0000      -0.372696       -10.1416 
  52   1.0000      -0.371630       -10.1126 
  53   1.0000      -0.369429       -10.0527 
  54   1.0000      -0.365587        -9.9481 
  55   1.0000      -0.362924        -9.8757 
  56   1.0000      -0.360820        -9.8184 
  57   1.0000      -0.348605        -9.4860 
  58   1.0000      -0.343850        -9.3566 
  59   1.0000      -0.342118        -9.3095 
  60   1.0000      -0.336574        -9.1587 
  61   1.0000      -0.335086        -9.1182 
  62   1.0000      -0.332112        -9.0372 
  63   1.0000      -0.331183        -9.0119 
  64   1.0000      -0.330009        -8.9800 
  65   1.0000      -0.328280        -8.9329 
  66   1.0000      -0.325869        -8.8674 
  67   1.0000      -0.324581        -8.8323 
  68   1.0000      -0.320612        -8.7243 
  69   1.0000      -0.318740        -8.6734 
  70   1.0000      -0.317858        -8.6493 
  71   1.0000      -0.314051        -8.5458 
  72   1.0000      -0.312764        -8.5107 
  73   1.0000      -0.309490        -8.4216 
  74   1.0000      -0.298361        -8.1188 
  75   1.0000      -0.295377        -8.0376 
  76   1.0000      -0.294939        -8.0257 
  77   1.0000      -0.290280        -7.8989 
  78   1.0000      -0.288679        -7.8554 
  79   1.0000      -0.287574        -7.8253 
  80   1.0000      -0.285594        -7.7714 
  81   1.0000      -0.283785        -7.7222 
  82   1.0000      -0.281282        -7.6541 
  83   1.0000      -0.280187        -7.6243 
  84   1.0000      -0.277579        -7.5533 
  85   1.0000      -0.277392        -7.5482 
  86   1.0000      -0.274468        -7.4687 
  87   1.0000      -0.273652        -7.4464 
  88   1.0000      -0.273574        -7.4443 
  89   1.0000      -0.270404        -7.3581 
  90   1.0000      -0.267815        -7.2876 
  91   1.0000      -0.265577        -7.2267 
  92   1.0000      -0.263571        -7.1721 
  93   1.0000      -0.262843        -7.1523 
  94   1.0000      -0.260778        -7.0961 
  95   1.0000      -0.257103        -6.9961 
  96   1.0000      -0.254402        -6.9226 
  97   1.0000      -0.253352        -6.8941 
  98   1.0000      -0.247514        -6.7352 
  99   1.0000      -0.245569        -6.6823 
 100   1.0000      -0.244267        -6.6469 
 101   1.0000      -0.243423        -6.6239 
 102   1.0000      -0.239944        -6.5292 
 103   1.0000      -0.224747        -6.1157 
 104   1.0000      -0.211376        -5.7518 
 105   1.0000      -0.210939        -5.7399 
 106   1.0000      -0.209208        -5.6928 
 107   1.0000      -0.204463        -5.5637 
 108   1.0000      -0.191213        -5.2032 
 109   0.0000      -0.159607        -4.3431 
 110   0.0000      -0.153822        -4.1857 
 111   0.0000      -0.130754        -3.5580 
 112   0.0000      -0.127469        -3.4686 
 113   0.0000      -0.123950        -3.3728 
 114   0.0000      -0.091533        -2.4907 
 115   0.0000      -0.055923        -1.5217 
 116   0.0000      -0.053228        -1.4484 
 117   0.0000      -0.043383        -1.1805 
 118   0.0000      -0.034047        -0.9265 
 119   0.0000      -0.033540        -0.9127 
 120   0.0000      -0.021394        -0.5822 
 121   0.0000      -0.020324        -0.5531 
 122   0.0000      -0.009077        -0.2470 
 123   0.0000      -0.004433        -0.1206 
 124   0.0000       0.001859         0.0506 
 125   0.0000       0.033727         0.9178 
 126   0.0000       0.035067         0.9542 
 127   0.0000       0.059696         1.6244 
 128   0.0000       0.060586         1.6486 
 129   0.0000       0.061080         1.6621 
 130   0.0000       0.063573         1.7299 
 131   0.0000       0.065957         1.7948 
 132   0.0000       0.071846         1.9550 
 133   0.0000       0.076053         2.0695 
 134   0.0000       0.076949         2.0939 
 135   0.0000       0.078819         2.1448 
 136   0.0000       0.088049         2.3959 
 137   0.0000       0.101030         2.7492 
 138   0.0000       0.102280         2.7832 
 139   0.0000       0.111692         3.0393 
 140   0.0000       0.112216         3.0536 
 141   0.0000       0.113287         3.0827 
 142   0.0000       0.127825         3.4783 
 143   0.0000       0.127925         3.4810 
 144   0.0000       0.147047         4.0013 
 145   0.0000       0.147618         4.0169 
 146   0.0000       0.152388         4.1467 
 147   0.0000       0.153972         4.1898 
 148   0.0000       0.155431         4.2295 
 149   0.0000       0.159366         4.3366 
 150   0.0000       0.161465         4.3937 
 151   0.0000       0.172618         4.6972 
 152   0.0000       0.175888         4.7862 
 153   0.0000       0.178117         4.8468 
 154   0.0000       0.231947         6.3116 
 155   0.0000       0.234214         6.3733 
 156   0.0000       0.245620         6.6837 
 157   0.0000       0.247102         6.7240 
 158   0.0000       0.249062         6.7773 
 159   0.0000       0.262687         7.1481 
 160   0.0000       0.269526         7.3342 
 161   0.0000       0.270148         7.3511 
 162   0.0000       0.271071         7.3762 
 163   0.0000       0.281199         7.6518 
 164   0.0000       0.283050         7.7022 
 165   0.0000       0.283264         7.7080 
 166   0.0000       0.284875         7.7518 
 167   0.0000       0.303128         8.2485 
 168   0.0000       0.303704         8.2642 
 169   0.0000       0.305646         8.3170 
 170   0.0000       0.307313         8.3624 
 171   0.0000       0.315901         8.5961 
 172   0.0000       0.317138         8.6298 
 173   0.0000       0.317373         8.6362 
 174   0.0000       0.317834         8.6487 
 175   0.0000       0.343821         9.3558 
 176   0.0000       0.344485         9.3739 
 177   0.0000       0.356508         9.7011 
 178   0.0000       0.362824         9.8729 
 179   0.0000       0.363204         9.8833 
 180   0.0000       0.364703         9.9241 
 181   0.0000       0.368132        10.0174 
 182   0.0000       0.369994        10.0681 
 183   0.0000       0.371498        10.1090 
 184   0.0000       0.383809        10.4440 
 185   0.0000       0.386019        10.5041 
 186   0.0000       0.392661        10.6849 
 187   0.0000       0.397727        10.8227 
 188   0.0000       0.399336        10.8665 
 189   0.0000       0.416598        11.3362 
 190   0.0000       0.419111        11.4046 
 191   0.0000       0.422254        11.4901 
 192   0.0000       0.433132        11.7861 
 193   0.0000       0.440006        11.9732 
 194   0.0000       0.457575        12.4512 
 195   0.0000       0.459453        12.5024 
 196   0.0000       0.467479        12.7207 
 197   0.0000       0.468166        12.7394 
 198   0.0000       0.471485        12.8298 
 199   0.0000       0.471973        12.8430 
 200   0.0000       0.479475        13.0472 
 201   0.0000       0.480675        13.0798 
 202   0.0000       0.481393        13.0994 
 203   0.0000       0.489241        13.3129 
 204   0.0000       0.490042        13.3347 
 205   0.0000       0.514322        13.9954 
 206   0.0000       0.517456        14.0807 
 207   0.0000       0.540964        14.7204 
 208   0.0000       0.541890        14.7456 
 209   0.0000       0.543243        14.7824 
 210   0.0000       0.549725        14.9588 
 211   0.0000       0.554079        15.0773 
 212   0.0000       0.555226        15.1085 
 213   0.0000       0.562020        15.2933 
 214   0.0000       0.562174        15.2975 
 215   0.0000       0.563358        15.3298 
 216   0.0000       0.579790        15.7769 
 217   0.0000       0.582588        15.8530 
 218   0.0000       0.594671        16.1818 
 219   0.0000       0.685440        18.6518 
 220   0.0000       0.689086        18.7510 
 221   0.0000       0.690259        18.7829 
 222   0.0000       0.694320        18.8934 
 223   0.0000       0.730636        19.8816 
 224   0.0000       0.742630        20.2080 
 225   0.0000       0.749941        20.4069 
 226   0.0000       0.754036        20.5184 
 227   0.0000       0.768402        20.9093 
 228   0.0000       0.769627        20.9426 
 229   0.0000       0.802584        21.8394 
 230   0.0000       0.803006        21.8509 
 231   0.0000       0.812446        22.1078 
 232   0.0000       0.813366        22.1328 
 233   0.0000       0.850952        23.1556 
 234   0.0000       0.863284        23.4911 
 235   0.0000       0.870743        23.6941 
 236   0.0000       0.874058        23.7843 
 237   0.0000       0.877027        23.8651 
 238   0.0000       0.921268        25.0690 
 239   0.0000       0.922754        25.1094 
 240   0.0000       0.945064        25.7165 
 241   0.0000       0.961725        26.1699 
 242   0.0000       0.964208        26.2374 
 243   0.0000       0.978473        26.6256 
 244   0.0000       0.981803        26.7162 
 245   0.0000       1.049463        28.5573 
 246   0.0000       1.085888        29.5485 
 247   0.0000       1.088262        29.6131 
 248   0.0000       1.166948        31.7543 
 249   0.0000       1.265197        34.4278 
 250   0.0000       1.269471        34.5441 
 251   0.0000       1.312033        35.7022 
 252   0.0000       1.321277        35.9538 
 253   0.0000       1.322132        35.9770 
 254   0.0000       1.325740        36.0752 
 255   0.0000       1.336422        36.3659 
 256   0.0000       1.337069        36.3835 
 257   0.0000       1.361523        37.0489 
 258   0.0000       1.368077        37.2273 
 259   0.0000       1.370512        37.2935 
 260   0.0000       1.401926        38.1483 
 261   0.0000       1.402611        38.1670 
 262   0.0000       1.439367        39.1672 
 263   0.0000       1.441985        39.2384 
 264   0.0000       1.442105        39.2417 
 265   0.0000       1.447908        39.3996 
 266   0.0000       1.456149        39.6238 
 267   0.0000       1.459888        39.7256 
 268   0.0000       1.461161        39.7602 
 269   0.0000       1.470257        40.0077 
 270   0.0000       1.470551        40.0157 
 271   0.0000       1.471186        40.0330 
 272   0.0000       1.489378        40.5280 
 273   0.0000       1.490731        40.5649 
 274   0.0000       1.491221        40.5782 
 275   0.0000       1.495715        40.7005 
 276   0.0000       1.499895        40.8142 
 277   0.0000       1.501320        40.8530 
 278   0.0000       1.502510        40.8854 
 279   0.0000       1.507414        41.0188 
 280   0.0000       1.509459        41.0745 
 281   0.0000       1.514404        41.2090 
 282   0.0000       1.514524        41.2123 
 283   0.0000       1.525833        41.5200 
 284   0.0000       1.525937        41.5228 
 285   0.0000       1.534405        41.7533 
 286   0.0000       1.537321        41.8326 
 287   0.0000       1.542746        41.9803 
 288   0.0000       1.545515        42.0556 
 289   0.0000       1.545542        42.0563 
 290   0.0000       1.546917        42.0938 
 291   0.0000       1.551528        42.2192 
 292   0.0000       1.553332        42.2683 
 293   0.0000       1.553875        42.2831 
 294   0.0000       1.557097        42.3708 
 295   0.0000       1.557966        42.3944 
 296   0.0000       1.558757        42.4159 
 297   0.0000       1.565156        42.5901 
 298   0.0000       1.567380        42.6506 
 299   0.0000       1.567408        42.6513 
 300   0.0000       1.570682        42.7404 
 301   0.0000       1.571485        42.7623 
 302   0.0000       1.572901        42.8008 
 303   0.0000       1.574903        42.8553 
 304   0.0000       1.577906        42.9370 
 305   0.0000       1.581370        43.0313 
 306   0.0000       1.583878        43.0995 
 307   0.0000       1.584424        43.1144 
 308   0.0000       1.586492        43.1706 
 309   0.0000       1.586552        43.1723 
 310   0.0000       1.589302        43.2471 
 311   0.0000       1.590365        43.2760 
 312   0.0000       1.592939        43.3461 
 313   0.0000       1.594250        43.3817 
 314   0.0000       1.595039        43.4032 
 315   0.0000       1.596316        43.4380 
 316   0.0000       1.603782        43.6411 
 317   0.0000       1.608141        43.7597 
 318   0.0000       1.608757        43.7765 
 319   0.0000       1.610079        43.8125 
 320   0.0000       1.610346        43.8197 
 321   0.0000       1.612892        43.8890 
 322   0.0000       1.613493        43.9054 
 323   0.0000       1.618064        44.0298 
 324   0.0000       1.619753        44.0757 
 325   0.0000       1.620857        44.1058 
 326   0.0000       1.621865        44.1332 
 327   0.0000       1.627060        44.2746 
 328   0.0000       1.627666        44.2911 
 329   0.0000       1.630120        44.3578 
 330   0.0000       1.641900        44.6784 
 331   0.0000       1.642538        44.6957 
 332   0.0000       1.644234        44.7419 
 333   0.0000       1.646588        44.8059 
 334   0.0000       1.647465        44.8298 
 335   0.0000       1.652564        44.9686 
 336   0.0000       1.656627        45.0791 
 337   0.0000       1.656845        45.0850 
 338   0.0000       1.657831        45.1119 
 339   0.0000       1.663318        45.2612 
 340   0.0000       1.667657        45.3793 
 341   0.0000       1.669425        45.4274 
 342   0.0000       1.670703        45.4621 
 343   0.0000       1.676259        45.6133 
 344   0.0000       1.676529        45.6207 
 345   0.0000       1.685700        45.8702 
 346   0.0000       1.689161        45.9644 
 347   0.0000       1.689898        45.9845 
 348   0.0000       1.702048        46.3151 
 349   0.0000       1.702452        46.3261 
 350   0.0000       1.722955        46.8840 
 351   0.0000       1.727897        47.0185 
 352   0.0000       1.728154        47.0255 
 353   0.0000       1.737836        47.2889 
 354   0.0000       1.764689        48.0196 
 355   0.0000       1.767084        48.0848 
 356   0.0000       1.808491        49.2116 
 357   0.0000       1.823559        49.6216 
 358   0.0000       1.847220        50.2654 
 359   0.0000       1.850270        50.3484 
 360   0.0000       1.871569        50.9280 
 361   0.0000       1.872385        50.9502 
 362   0.0000       1.902227        51.7622 
 363   0.0000       1.917716        52.1837 
 364   0.0000       1.921139        52.2768 
 365   0.0000       1.938905        52.7603 
 366   0.0000       1.960930        53.3596 
 367   0.0000       1.968220        53.5580 
 368   0.0000       1.969699        53.5982 
 369   0.0000       2.015903        54.8555 
 370   0.0000       2.020298        54.9751 
 371   0.0000       2.122275        57.7500 
 372   0.0000       2.296843        62.5003 
 373   0.0000       2.302330        62.6496 
 374   0.0000       2.392617        65.1064 
 375   0.0000       2.396737        65.2185 
 376   0.0000       2.399847        65.3031 
 377   0.0000       2.449617        66.6575 
 378   0.0000       2.451937        66.7206 
 379   0.0000       2.498975        68.0006 
 380   0.0000       2.501308        68.0640 
 381   0.0000       2.502532        68.0974 
 382   0.0000       2.528656        68.8082 
 383   0.0000       2.532746        68.9195 
 384   0.0000       2.577442        70.1358 
 385   0.0000       2.634725        71.6945 
 386   0.0000       2.637223        71.7625 
 387   0.0000       2.898919        78.8836 
 388   0.0000       2.899457        78.8982 
 389   0.0000       2.920766        79.4781 
 390   0.0000       2.920958        79.4833 
 391   0.0000       2.925642        79.6108 
 392   0.0000       2.984422        81.2102 
 393   0.0000       2.993274        81.4511 
 394   0.0000       2.996236        81.5317 
 395   0.0000      24.152345       657.2187 
 396   0.0000      24.156592       657.3343 
 397   0.0000      24.173133       657.7844 
 398   0.0000      24.343321       662.4154 
 399   0.0000      24.744766       673.3393 
 400   0.0000      24.795191       674.7115 
 401   0.0000      24.796033       674.7344 
 402   0.0000      25.083737       682.5632 
 403   0.0000      25.172987       684.9918 
 404   0.0000      25.176067       685.0756 
 405   0.0000      25.699388       699.3159 
 406   0.0000      25.703893       699.4385 
 407   0.0000      25.955447       706.2836 
 408   0.0000      25.958345       706.3625 
 409   0.0000      26.655270       725.3268 
 410   0.0000      26.656603       725.3630 
 411   0.0000      26.666153       725.6229 
 412   0.0000      26.792488       729.0607 
 413   0.0000      26.794791       729.1233 
 414   0.0000      26.875553       731.3210 
 415   0.0000      27.190402       739.8885 
 416   0.0000      27.526169       749.0251 
 417   0.0000      27.530359       749.1392 
 418   0.0000      27.532524       749.1981 
 419   0.0000      28.329933       770.8967 
 420   0.0000      28.333396       770.9909 
 421   0.0000      28.488985       775.2247 
 422   0.0000      28.493416       775.3453 
 423   0.0000      29.067286       790.9611 
 424   0.0000      29.519879       803.2767 
 425   0.0000      44.391017      1207.9410 
 426   0.0000      44.453419      1209.6390 
 427   0.0000      44.508891      1211.1485 
 428   0.0000      44.513390      1211.2709 
 429   0.0000      44.595441      1213.5036 
 430   0.0000      44.599372      1213.6106 
 431   0.0000      44.602498      1213.6957 
 432   0.0000      44.621172      1214.2038 
 433   0.0000      44.625661      1214.3260 
 434   0.0000      44.639209      1214.6946 
 435   0.0000     205.258039      5585.3552 
 436   0.0000     205.280168      5585.9574 
 437   0.0000     205.302502      5586.5651 
 438   0.0000     205.306959      5586.6864 
 439   0.0000     205.340862      5587.6089 
 440   0.0000     205.342531      5587.6543 
 441   0.0000     205.345713      5587.7409 
 442   0.0000     205.348538      5587.8178 
 443   0.0000     205.354001      5587.9665 
 444   0.0000     205.357266      5588.0553 

                 SPIN DOWN ORBITALS
  NO   OCC          E(Eh)            E(eV) 
   0   1.0000    -215.283936     -5858.1737 
   1   1.0000     -24.524990      -667.3589 
   2   1.0000     -20.807982      -566.2140 
   3   1.0000     -20.804614      -566.1223 
   4   1.0000     -20.803301      -566.0866 
   5   1.0000      -4.116765      -112.0229 
   6   1.0000      -4.115720      -111.9944 
   7   1.0000      -4.112377      -111.9035 
   8   1.0000      -4.111547      -111.8809 
   9   1.0000      -4.110672      -111.8571 
  10   1.0000      -4.109756      -111.8322 
  11   1.0000      -4.109312      -111.8201 
  12   1.0000      -4.108063      -111.7861 
  13   1.0000      -4.107277      -111.7647 
  14   1.0000      -4.106060      -111.7316 
  15   1.0000      -2.745408       -74.7063 
  16   1.0000      -2.308318       -62.8125 
  17   1.0000      -2.304905       -62.7196 
  18   1.0000      -2.304557       -62.7102 
  19   1.0000      -2.302707       -62.6598 
  20   1.0000      -2.301171       -62.6181 
  21   1.0000      -2.300867       -62.6098 
  22   1.0000      -2.300042       -62.5873 
  23   1.0000      -2.299817       -62.5812 
  24   1.0000      -2.299403       -62.5699 
  25   1.0000      -2.298943       -62.5574 
  26   1.0000      -2.298260       -62.5388 
  27   1.0000      -2.297835       -62.5273 
  28   1.0000      -2.297714       -62.5240 
  29   1.0000      -2.296891       -62.5016 
  30   1.0000      -2.296482       -62.4905 
  31   1.0000      -2.295978       -62.4767 
  32   1.0000      -2.294937       -62.4484 
  33   1.0000      -2.294108       -62.4258 
  34   1.0000      -2.293812       -62.4178 
  35   1.0000      -2.293622       -62.4126 
  36   1.0000      -2.293325       -62.4045 
  37   1.0000      -2.292924       -62.3936 
  38   1.0000      -2.292624       -62.3855 
  39   1.0000      -2.291995       -62.3684 
  40   1.0000      -2.291825       -62.3637 
  41   1.0000      -2.290761       -62.3348 
  42   1.0000      -2.289283       -62.2946 
  43   1.0000      -2.288743       -62.2799 
  44   1.0000      -2.288208       -62.2653 
  45   1.0000      -2.287075       -62.2345 
  46   1.0000      -1.699510       -46.2460 
  47   1.0000      -1.690291       -45.9951 
  48   1.0000      -1.687754       -45.9261 
  49   1.0000      -0.404661       -11.0114 
  50   1.0000      -0.381756       -10.3881 
  51   1.0000      -0.367866       -10.0102 
  52   1.0000      -0.367019        -9.9871 
  53   1.0000      -0.364091        -9.9074 
  54   1.0000      -0.360622        -9.8130 
  55   1.0000      -0.358779        -9.7629 
  56   1.0000      -0.356567        -9.7027 
  57   1.0000      -0.346939        -9.4407 
  58   1.0000      -0.339220        -9.2306 
  59   1.0000      -0.338115        -9.2006 
  60   1.0000      -0.333309        -9.0698 
  61   1.0000      -0.331276        -9.0145 
  62   1.0000      -0.330064        -8.9815 
  63   1.0000      -0.327253        -8.9050 
  64   1.0000      -0.325980        -8.8704 
  65   1.0000      -0.325651        -8.8614 
  66   1.0000      -0.322326        -8.7709 
  67   1.0000      -0.321444        -8.7469 
  68   1.0000      -0.315427        -8.5832 
  69   1.0000      -0.314422        -8.5559 
  70   1.0000      -0.312724        -8.5097 
  71   1.0000      -0.310355        -8.4452 
  72   1.0000      -0.309410        -8.4195 
  73   1.0000      -0.308434        -8.3929 
  74   1.0000      -0.295281        -8.0350 
  75   1.0000      -0.293992        -7.9999 
  76   1.0000      -0.292876        -7.9696 
  77   1.0000      -0.288553        -7.8519 
  78   1.0000      -0.286729        -7.8023 
  79   1.0000      -0.285855        -7.7785 
  80   1.0000      -0.283849        -7.7239 
  81   1.0000      -0.282456        -7.6860 
  82   1.0000      -0.280290        -7.6271 
  83   1.0000      -0.278379        -7.5751 
  84   1.0000      -0.276433        -7.5221 
  85   1.0000      -0.275767        -7.5040 
  86   1.0000      -0.274065        -7.4577 
  87   1.0000      -0.272601        -7.4178 
  88   1.0000      -0.272271        -7.4089 
  89   1.0000      -0.267995        -7.2925 
  90   1.0000      -0.266291        -7.2461 
  91   1.0000      -0.264099        -7.1865 
  92   1.0000      -0.261850        -7.1253 
  93   1.0000      -0.260820        -7.0973 
  94   1.0000      -0.259310        -7.0562 
  95   1.0000      -0.254955        -6.9377 
  96   1.0000      -0.252235        -6.8637 
  97   1.0000      -0.251997        -6.8572 
  98   1.0000      -0.244403        -6.6505 
  99   1.0000      -0.243394        -6.6231 
 100   1.0000      -0.242155        -6.5894 
 101   1.0000      -0.239292        -6.5115 
 102   1.0000      -0.238902        -6.5009 
 103   1.0000      -0.203319        -5.5326 
 104   1.0000      -0.186561        -5.0766 
 105   0.0000      -0.185674        -5.0524 
 106   0.0000      -0.136490        -3.7141 
 107   0.0000      -0.136117        -3.7039 
 108   0.0000      -0.123536        -3.3616 
 109   0.0000      -0.085318        -2.3216 
 110   0.0000      -0.083430        -2.2703 
 111   0.0000      -0.082955        -2.2573 
 112   0.0000      -0.074131        -2.0172 
 113   0.0000      -0.073535        -2.0010 
 114   0.0000      -0.069795        -1.8992 
 115   0.0000      -0.049960        -1.3595 
 116   0.0000      -0.049495        -1.3468 
 117   0.0000      -0.041751        -1.1361 
 118   0.0000      -0.032781        -0.8920 
 119   0.0000      -0.032452        -0.8831 
 120   0.0000      -0.007252        -0.1973 
 121   0.0000      -0.006978        -0.1899 
 122   0.0000      -0.005883        -0.1601 
 123   0.0000       0.001899         0.0517 
 124   0.0000       0.004819         0.1311 
 125   0.0000       0.041274         1.1231 
 126   0.0000       0.041360         1.1255 
 127   0.0000       0.060359         1.6425 
 128   0.0000       0.060761         1.6534 
 129   0.0000       0.064946         1.7673 
 130   0.0000       0.066327         1.8049 
 131   0.0000       0.067672         1.8414 
 132   0.0000       0.071985         1.9588 
 133   0.0000       0.078880         2.1464 
 134   0.0000       0.079599         2.1660 
 135   0.0000       0.082262         2.2385 
 136   0.0000       0.087541         2.3821 
 137   0.0000       0.103785         2.8241 
 138   0.0000       0.104272         2.8374 
 139   0.0000       0.113086         3.0772 
 140   0.0000       0.114133         3.1057 
 141   0.0000       0.114319         3.1108 
 142   0.0000       0.131612         3.5813 
 143   0.0000       0.132056         3.5934 
 144   0.0000       0.147691         4.0189 
 145   0.0000       0.150952         4.1076 
 146   0.0000       0.156281         4.2526 
 147   0.0000       0.157916         4.2971 
 148   0.0000       0.162437         4.4201 
 149   0.0000       0.165219         4.4958 
 150   0.0000       0.166074         4.5191 
 151   0.0000       0.179186         4.8759 
 152   0.0000       0.181524         4.9395 
 153   0.0000       0.182468         4.9652 
 154   0.0000       0.235713         6.4141 
 155   0.0000       0.237189         6.4543 
 156   0.0000       0.250702         6.8220 
 157   0.0000       0.251689         6.8488 
 158   0.0000       0.252020         6.8578 
 159   0.0000       0.265223         7.2171 
 160   0.0000       0.270587         7.3630 
 161   0.0000       0.270605         7.3635 
 162   0.0000       0.280726         7.6389 
 163   0.0000       0.283814         7.7230 
 164   0.0000       0.283949         7.7267 
 165   0.0000       0.285092         7.7578 
 166   0.0000       0.288893         7.8612 
 167   0.0000       0.303595         8.2612 
 168   0.0000       0.303773         8.2661 
 169   0.0000       0.305465         8.3121 
 170   0.0000       0.307899         8.3784 
 171   0.0000       0.317362         8.6359 
 172   0.0000       0.317595         8.6422 
 173   0.0000       0.322574         8.7777 
 174   0.0000       0.323326         8.7982 
 175   0.0000       0.346708         9.4344 
 176   0.0000       0.347451         9.4546 
 177   0.0000       0.357876         9.7383 
 178   0.0000       0.363831         9.9003 
 179   0.0000       0.364218         9.9109 
 180   0.0000       0.365649         9.9498 
 181   0.0000       0.367841        10.0094 
 182   0.0000       0.370765        10.0890 
 183   0.0000       0.371797        10.1171 
 184   0.0000       0.386469        10.5164 
 185   0.0000       0.388041        10.5591 
 186   0.0000       0.395298        10.7566 
 187   0.0000       0.401794        10.9334 
 188   0.0000       0.402396        10.9498 
 189   0.0000       0.423217        11.5163 
 190   0.0000       0.424709        11.5569 
 191   0.0000       0.427469        11.6320 
 192   0.0000       0.434028        11.8105 
 193   0.0000       0.443520        12.0688 
 194   0.0000       0.459917        12.5150 
 195   0.0000       0.461016        12.5449 
 196   0.0000       0.468763        12.7557 
 197   0.0000       0.470910        12.8141 
 198   0.0000       0.476736        12.9726 
 199   0.0000       0.477018        12.9803 
 200   0.0000       0.482023        13.1165 
 201   0.0000       0.482308        13.1243 
 202   0.0000       0.486234        13.2311 
 203   0.0000       0.496228        13.5030 
 204   0.0000       0.496824        13.5193 
 205   0.0000       0.521627        14.1942 
 206   0.0000       0.523597        14.2478 
 207   0.0000       0.544848        14.8261 
 208   0.0000       0.546158        14.8617 
 209   0.0000       0.550428        14.9779 
 210   0.0000       0.550566        14.9817 
 211   0.0000       0.556175        15.1343 
 212   0.0000       0.557381        15.1671 
 213   0.0000       0.567055        15.4304 
 214   0.0000       0.572501        15.5785 
 215   0.0000       0.572984        15.5917 
 216   0.0000       0.588476        16.0133 
 217   0.0000       0.590675        16.0731 
 218   0.0000       0.606014        16.4905 
 219   0.0000       0.694987        18.9115 
 220   0.0000       0.695941        18.9375 
 221   0.0000       0.697285        18.9741 
 222   0.0000       0.699309        19.0292 
 223   0.0000       0.731624        19.9085 
 224   0.0000       0.750587        20.4245 
 225   0.0000       0.752775        20.4840 
 226   0.0000       0.755503        20.5583 
 227   0.0000       0.774976        21.0882 
 228   0.0000       0.776167        21.1206 
 229   0.0000       0.804219        21.8839 
 230   0.0000       0.804346        21.8874 
 231   0.0000       0.814317        22.1587 
 232   0.0000       0.815310        22.1857 
 233   0.0000       0.856322        23.3017 
 234   0.0000       0.871998        23.7283 
 235   0.0000       0.874709        23.8021 
 236   0.0000       0.876624        23.8541 
 237   0.0000       0.878377        23.9019 
 238   0.0000       0.925883        25.1946 
 239   0.0000       0.926355        25.2074 
 240   0.0000       0.963415        26.2159 
 241   0.0000       0.975546        26.5460 
 242   0.0000       0.978214        26.6186 
 243   0.0000       0.988423        26.8964 
 244   0.0000       0.990574        26.9549 
 245   0.0000       1.056795        28.7568 
 246   0.0000       1.097952        29.8768 
 247   0.0000       1.099769        29.9262 
 248   0.0000       1.170835        31.8600 
 249   0.0000       1.267545        34.4916 
 250   0.0000       1.271662        34.6037 
 251   0.0000       1.314437        35.7676 
 252   0.0000       1.324170        36.0325 
 253   0.0000       1.325426        36.0667 
 254   0.0000       1.326898        36.1067 
 255   0.0000       1.341590        36.5065 
 256   0.0000       1.342670        36.5359 
 257   0.0000       1.365682        37.1621 
 258   0.0000       1.372768        37.3549 
 259   0.0000       1.375275        37.4231 
 260   0.0000       1.403830        38.2002 
 261   0.0000       1.404434        38.2166 
 262   0.0000       1.447650        39.3925 
 263   0.0000       1.447907        39.3995 
 264   0.0000       1.449228        39.4355 
 265   0.0000       1.451116        39.4869 
 266   0.0000       1.463302        39.8185 
 267   0.0000       1.463745        39.8305 
 268   0.0000       1.464910        39.8622 
 269   0.0000       1.474169        40.1142 
 270   0.0000       1.477596        40.2074 
 271   0.0000       1.477824        40.2136 
 272   0.0000       1.491120        40.5755 
 273   0.0000       1.492840        40.6223 
 274   0.0000       1.493050        40.6280 
 275   0.0000       1.498989        40.7896 
 276   0.0000       1.503724        40.9184 
 277   0.0000       1.505209        40.9588 
 278   0.0000       1.506966        41.0066 
 279   0.0000       1.508784        41.0561 
 280   0.0000       1.514359        41.2078 
 281   0.0000       1.519599        41.3504 
 282   0.0000       1.519761        41.3548 
 283   0.0000       1.527622        41.5687 
 284   0.0000       1.527697        41.5707 
 285   0.0000       1.537101        41.8266 
 286   0.0000       1.539345        41.8877 
 287   0.0000       1.546497        42.0823 
 288   0.0000       1.547365        42.1060 
 289   0.0000       1.551475        42.2178 
 290   0.0000       1.552731        42.2520 
 291   0.0000       1.552798        42.2538 
 292   0.0000       1.554789        42.3080 
 293   0.0000       1.555540        42.3284 
 294   0.0000       1.560346        42.4592 
 295   0.0000       1.560560        42.4650 
 296   0.0000       1.561945        42.5027 
 297   0.0000       1.567801        42.6620 
 298   0.0000       1.568717        42.6870 
 299   0.0000       1.569158        42.6990 
 300   0.0000       1.572151        42.7804 
 301   0.0000       1.573666        42.8216 
 302   0.0000       1.577199        42.9178 
 303   0.0000       1.577738        42.9324 
 304   0.0000       1.580038        42.9950 
 305   0.0000       1.584874        43.1266 
 306   0.0000       1.586472        43.1701 
 307   0.0000       1.586879        43.1812 
 308   0.0000       1.588377        43.2219 
 309   0.0000       1.589207        43.2445 
 310   0.0000       1.591251        43.3001 
 311   0.0000       1.592172        43.3252 
 312   0.0000       1.596790        43.4509 
 313   0.0000       1.597191        43.4618 
 314   0.0000       1.598086        43.4861 
 315   0.0000       1.598695        43.5027 
 316   0.0000       1.606762        43.7222 
 317   0.0000       1.610187        43.8154 
 318   0.0000       1.612904        43.8894 
 319   0.0000       1.614765        43.9400 
 320   0.0000       1.615186        43.9514 
 321   0.0000       1.615206        43.9520 
 322   0.0000       1.616218        43.9795 
 323   0.0000       1.621390        44.1203 
 324   0.0000       1.622538        44.1515 
 325   0.0000       1.624419        44.2027 
 326   0.0000       1.624692        44.2101 
 327   0.0000       1.631224        44.3879 
 328   0.0000       1.631579        44.3975 
 329   0.0000       1.632461        44.4215 
 330   0.0000       1.643898        44.7327 
 331   0.0000       1.644278        44.7431 
 332   0.0000       1.649000        44.8716 
 333   0.0000       1.650797        44.9205 
 334   0.0000       1.651783        44.9473 
 335   0.0000       1.654724        45.0273 
 336   0.0000       1.659090        45.1461 
 337   0.0000       1.663551        45.2675 
 338   0.0000       1.664225        45.2859 
 339   0.0000       1.671561        45.4855 
 340   0.0000       1.671794        45.4918 
 341   0.0000       1.673473        45.5375 
 342   0.0000       1.676171        45.6109 
 343   0.0000       1.680141        45.7190 
 344   0.0000       1.680301        45.7233 
 345   0.0000       1.687705        45.9248 
 346   0.0000       1.691411        46.0256 
 347   0.0000       1.691804        46.0363 
 348   0.0000       1.709007        46.5044 
 349   0.0000       1.709279        46.5118 
 350   0.0000       1.734569        47.2000 
 351   0.0000       1.734721        47.2042 
 352   0.0000       1.736318        47.2476 
 353   0.0000       1.749408        47.6038 
 354   0.0000       1.785200        48.5778 
 355   0.0000       1.787081        48.6289 
 356   0.0000       1.817108        49.4460 
 357   0.0000       1.824403        49.6445 
 358   0.0000       1.862173        50.6723 
 359   0.0000       1.863563        50.7101 
 360   0.0000       1.877398        51.0866 
 361   0.0000       1.879721        51.1498 
 362   0.0000       1.903541        51.7980 
 363   0.0000       1.929178        52.4956 
 364   0.0000       1.932431        52.5841 
 365   0.0000       1.958001        53.2799 
 366   0.0000       1.968061        53.5536 
 367   0.0000       2.011484        54.7353 
 368   0.0000       2.014088        54.8061 
 369   0.0000       2.039198        55.4894 
 370   0.0000       2.042019        55.5662 
 371   0.0000       2.171341        59.0852 
 372   0.0000       2.313559        62.9551 
 373   0.0000       2.341939        63.7274 
 374   0.0000       2.395642        65.1887 
 375   0.0000       2.399707        65.2994 
 376   0.0000       2.438438        66.3533 
 377   0.0000       2.484401        67.6040 
 378   0.0000       2.487938        67.7002 
 379   0.0000       2.519822        68.5679 
 380   0.0000       2.538858        69.0858 
 381   0.0000       2.543066        69.2004 
 382   0.0000       2.560279        69.6687 
 383   0.0000       2.561604        69.7048 
 384   0.0000       2.592390        70.5425 
 385   0.0000       2.700194        73.4760 
 386   0.0000       2.701383        73.5084 
 387   0.0000       3.002068        81.6904 
 388   0.0000       3.064865        83.3992 
 389   0.0000       3.069638        83.5291 
 390   0.0000       3.070396        83.5497 
 391   0.0000       3.078218        83.7626 
 392   0.0000       3.124056        85.0099 
 393   0.0000       3.125478        85.0486 
 394   0.0000       3.127405        85.1010 
 395   0.0000      24.154360       657.2736 
 396   0.0000      24.158557       657.3878 
 397   0.0000      24.175319       657.8439 
 398   0.0000      24.345810       662.4832 
 399   0.0000      24.747430       673.4118 
 400   0.0000      24.797798       674.7824 
 401   0.0000      24.798893       674.8122 
 402   0.0000      25.088183       682.6842 
 403   0.0000      25.175720       685.0662 
 404   0.0000      25.178309       685.1366 
 405   0.0000      25.702199       699.3924 
 406   0.0000      25.705623       699.4856 
 407   0.0000      25.958319       706.3618 
 408   0.0000      25.962463       706.4745 
 409   0.0000      26.657529       725.3882 
 410   0.0000      26.658793       725.4226 
 411   0.0000      26.669592       725.7165 
 412   0.0000      26.794352       729.1114 
 413   0.0000      26.796717       729.1757 
 414   0.0000      26.877546       731.3752 
 415   0.0000      27.192285       739.9397 
 416   0.0000      27.528828       749.0975 
 417   0.0000      27.533877       749.2349 
 418   0.0000      27.536400       749.3035 
 419   0.0000      28.334279       771.0149 
 420   0.0000      28.338115       771.1193 
 421   0.0000      28.493123       775.3373 
 422   0.0000      28.498494       775.4834 
 423   0.0000      29.071826       791.0846 
 424   0.0000      29.525078       803.4182 
 425   0.0000      44.393921      1208.0200 
 426   0.0000      44.455425      1209.6936 
 427   0.0000      44.512329      1211.2421 
 428   0.0000      44.517880      1211.3931 
 429   0.0000      44.598040      1213.5744 
 430   0.0000      44.601448      1213.6671 
 431   0.0000      44.606211      1213.7967 
 432   0.0000      44.623501      1214.2672 
 433   0.0000      44.630307      1214.4524 
 434   0.0000      44.642267      1214.7778 
 435   0.0000     205.258456      5585.3665 
 436   0.0000     205.280497      5585.9663 
 437   0.0000     205.303036      5586.5796 
 438   0.0000     205.307549      5586.7024 
 439   0.0000     205.341226      5587.6188 
 440   0.0000     205.342790      5587.6614 
 441   0.0000     205.346145      5587.7527 
 442   0.0000     205.348999      5587.8303 
 443   0.0000     205.354601      5587.9828 
 444   0.0000     205.357769      5588.0690 

                    ********************************
                    * MULLIKEN POPULATION ANALYSIS *
                    ********************************

--------------------------------------------
MULLIKEN ATOMIC CHARGES AND SPIN POPULATIONS
--------------------------------------------
   0 Au:    0.219541    0.062570
   1 Au:    0.406416   -0.054399
   2 Au:    0.417201   -0.024555
   3 Au:    0.205242    0.087863
   4 Au:    0.228320    0.039051
   5 Au:    0.221841    0.126536
   6 Au:    0.153791   -0.069292
   7 Au:    0.231185    0.033295
   8 Au:    0.140620   -0.106530
   9 Au:    0.466358    0.124819
  10 Cr:   -2.690516    3.780642
Sum of atomic charges         :   -0.0000000
Sum of atomic spin populations:    4.0000000

-----------------------------------------------------
MULLIKEN REDUCED ORBITAL CHARGES AND SPIN POPULATIONS
-----------------------------------------------------
CHARGE
  0 Aus       :     2.989741  s :     2.989741
      pz      :     2.027324  p :     6.072673
      px      :     1.997820
      py      :     2.047529
      dz2     :     1.935532  d :     9.713989
      dxz     :     1.955902
      dyz     :     1.970858
      dx2y2   :     1.935407
      dxy     :     1.916291
[...]
      f+1     :     0.000036
      f-1     :     0.000014
      f+2     :     0.000005
      f-2     :     0.000090
      f+3     :     0.000017
      f-3     :     0.000109
  8 Aus       :    -0.205503  s :    -0.205503
      pz      :     0.006821  p :     0.012557
      px      :     0.008125
      py      :    -0.002389
      dz2     :     0.005810  d :     0.000485
      dxz     :    -0.002432
      dyz     :    -0.000161
      dx2y2   :    -0.003229
      dxy     :     0.000496
      f0      :     0.000039  f :     0.000330
      f+1     :     0.000067
      f-1     :     0.000042
      f+2     :     0.000038
      f-2     :     0.000089
      f+3     :    -0.000007
      f-3     :     0.000062
  9 Aus       :    -0.159337  s :    -0.159337
      pz      :    -0.005325  p :    -0.008992
      px      :     0.000032
      py      :    -0.003699
      dz2     :     0.001106  d :     0.000560
      dxz     :     0.000469
      dyz     :    -0.000953
      dx2y2   :     0.000926
      dxy     :    -0.000988
      f0      :     0.000046  f :     0.000251
      f+1     :     0.000011
      f-1     :     0.000014
      f+2     :     0.000046
      f-2     :     0.000080
      f+3     :     0.000029
      f-3     :     0.000025
 10 Crs       :     0.050573  s :     0.050573
      pz      :     0.037333  p :     0.109043
      px      :     0.037785
      py      :     0.033925
      dz2     :     0.835913  d :     3.322320
      dxz     :     0.719077
      dyz     :     0.516261
      dx2y2   :     0.599769
      dxy     :     0.651300
      f0      :     0.000009  f :     0.000111
      f+1     :     0.000017
      f-1     :     0.000017
      f+2     :     0.000014
      f-2     :     0.000020
      f+3     :     0.000017
      f-3     :     0.000017


                     *******************************
                     * LOEWDIN POPULATION ANALYSIS *
                     *******************************

-------------------------------------------
LOEWDIN ATOMIC CHARGES AND SPIN POPULATIONS
-------------------------------------------
   0 Au:    0.119735   -0.085330
   1 Au:    0.085887   -0.132882
   2 Au:    0.085794   -0.133095
   3 Au:    0.070162   -0.134926
   4 Au:    0.120001   -0.084878
   5 Au:    0.122698   -0.217194
   6 Au:    0.070219   -0.135031
   7 Au:    0.120019   -0.085271
   8 Au:    0.070366   -0.135236
   9 Au:    0.085807   -0.133196
  10 Cr:   -0.950688    3.277038

----------------------------------------------------
LOEWDIN REDUCED ORBITAL CHARGES AND SPIN POPULATIONS
----------------------------------------------------
CHARGE
  0 Aus       :     2.634329  s :     2.634329
      pz      :     2.105148  p :     6.367795
      px      :     2.069643
      py      :     2.193004
      dz2     :     1.979252  d :     9.873141
      dxz     :     1.973033
      dyz     :     1.980009
      dx2y2   :     1.955022
      dxy     :     1.985825
      f0      :     0.000623  f :     0.005001
      f+1     :     0.000764
      f-1     :     0.000727
      f+2     :     0.000451
      f-2     :     0.000570
      f+3     :     0.000978
      f-3     :     0.000889
  1 Aus       :     2.580532  s :     2.580532
      pz      :     2.179049  p :     6.438308
      px      :     2.151568
      py      :     2.107692
      dz2     :     1.998964  d :     9.890312
      dxz     :     1.959825
      dyz     :     1.967069
      dx2y2   :     1.986497
      dxy     :     1.977958
      f0      :     0.000680  f :     0.004960
      f+1     :     0.000917
      f-1     :     0.000789
      f+2     :     0.000484
      f-2     :     0.000826
      f+3     :     0.000689
      f-3     :     0.000575
  2 Aus       :     2.580581  s :     2.580581
      pz      :     2.125546  p :     6.438313
      px      :     2.219970
      py      :     2.092797
      dz2     :     1.989701  d :     9.890352
      dxz     :     1.981898
      dyz     :     1.979371
      dx2y2   :     1.947305
      dxy     :     1.992077
      f0      :     0.000502  f :     0.004959
      f+1     :     0.000917
      f-1     :     0.000750
      f+2     :     0.000481
      f-2     :     0.000626
      f+3     :     0.000798
      f-3     :     0.000883
  3 Aus       :     2.645127  s :     2.645127
      pz      :     2.070205  p :     6.429044
      px      :     2.179643
      py      :     2.179196
      dz2     :     1.981881  d :     9.850138
      dxz     :     1.975384
      dyz     :     1.969275
      dx2y2   :     1.982569
      dxy     :     1.941029
      f0      :     0.000469  f :     0.005529
      f+1     :     0.000703
      f-1     :     0.000751
      f+2     :     0.000439
      f-2     :     0.000756
      f+3     :     0.001315
      f-3     :     0.001095
  4 Aus       :     2.634519  s :     2.634519
      pz      :     2.069731  p :     6.367418
      px      :     2.080557
      py      :     2.217130
      dz2     :     1.955979  d :     9.873075
      dxz     :     1.979683
      dyz     :     1.977670
      dx2y2   :     1.980639
      dxy     :     1.979104
      f0      :     0.000783  f :     0.004987
      f+1     :     0.000385
      f-1     :     0.000988
      f+2     :     0.000779
      f-2     :     0.000915
      f+3     :     0.000588
      f-3     :     0.000549
  5 Aus       :     2.716519  s :     2.716519
      pz      :     2.082274  p :     6.265051
      px      :     2.079856
      py      :     2.102921
      dz2     :     1.967621  d :     9.891157
      dxz     :     1.988947
      dyz     :     1.983111
      dx2y2   :     1.984915
      dxy     :     1.966563
      f0      :     0.000592  f :     0.004575
      f+1     :     0.000446
      f-1     :     0.001010
      f+2     :     0.000337
      f-2     :     0.000496
      f+3     :     0.000915
      f-3     :     0.000780
  6 Aus       :     2.644601  s :     2.644601
      pz      :     2.232700  p :     6.429347
      px      :     2.064840
      py      :     2.131806
      dz2     :     1.983691  d :     9.850311
      dxz     :     1.992284
      dyz     :     1.926946
      dx2y2   :     1.973053
      dxy     :     1.974337
      f0      :     0.000754  f :     0.005522
      f+1     :     0.000467
      f-1     :     0.001447
      f+2     :     0.001160
      f-2     :     0.000756
      f+3     :     0.000445
      f-3     :     0.000495
  7 Aus       :     2.634541  s :     2.634541
      pz      :     2.106474  p :     6.367440
      px      :     2.092325
      py      :     2.168641
      dz2     :     1.979709  d :     9.873011
      dxz     :     1.979125
      dyz     :     1.971937
      dx2y2   :     1.972039
      dxy     :     1.970201
      f0      :     0.000684  f :     0.004989
      f+1     :     0.000784
      f-1     :     0.000672
      f+2     :     0.000558
      f-2     :     0.000457
      f+3     :     0.000857
      f-3     :     0.000978
  8 Aus       :     2.644891  s :     2.644891
      pz      :     2.071777  p :     6.429065
      px      :     2.105048
      py      :     2.252240
      dz2     :     1.980569  d :     9.850156
      dxz     :     1.964142
      dyz     :     1.978524
      dx2y2   :     1.959571
      dxy     :     1.967350
      f0      :     0.000485  f :     0.005521
      f+1     :     0.000530
      f-1     :     0.000941
      f+2     :     0.000687
      f-2     :     0.000487
      f+3     :     0.001219
      f-3     :     0.001172
  9 Aus       :     2.580183  s :     2.580183
      pz      :     2.184707  p :     6.438565
      px      :     2.141335
      py      :     2.112523
      dz2     :     1.997170  d :     9.890484
      dxz     :     1.976369
      dyz     :     1.952556
      dx2y2   :     1.984464
      dxy     :     1.979924
      f0      :     0.000708  f :     0.004961
      f+1     :     0.000981
      f-1     :     0.000678
      f+2     :     0.000678
      f-2     :     0.000645
      f+3     :     0.000708
      f-3     :     0.000564
 10 Crs       :     6.294421  s :     6.294421
      pz      :     4.207546  p :    12.632670
      px      :     4.206028
      py      :     4.219095
      dz2     :     1.187371  d :     6.021624
      dxz     :     1.203626
      dyz     :     1.221340
      dx2y2   :     1.150897
      dxy     :     1.258391
      f0      :     0.000316  f :     0.001973
      f+1     :     0.000177
      f-1     :     0.000218
      f+2     :     0.000291
      f-2     :     0.000410
      f+3     :     0.000267
      f-3     :     0.000293

SPIN
  0 Aus       :    -0.028044  s :    -0.028044
      pz      :    -0.012045  p :    -0.063335
      px      :     0.002896
      py      :    -0.054187
      dz2     :     0.000096  d :     0.005563
      dxz     :     0.006678
      dyz     :    -0.000620
      dx2y2   :     0.005351
      dxy     :    -0.005943
      f0      :     0.000068  f :     0.000486
      f+1     :     0.000090
      f-1     :    -0.000010
      f+2     :     0.000085
      f-2     :     0.000034
      f+3     :     0.000159
      f-3     :     0.000061
  1 Aus       :    -0.092324  s :    -0.092324
      pz      :    -0.018380  p :    -0.045861
      px      :    -0.015233
      py      :    -0.012247
      dz2     :     0.001099  d :     0.004879
      dxz     :     0.000933
      dyz     :     0.000589
      dx2y2   :     0.003806
      dxy     :    -0.001547
      f0      :     0.000067  f :     0.000423
      f+1     :     0.000052
      f-1     :     0.000006
      f+2     :     0.000043
      f-2     :     0.000180
      f+3     :     0.000042
      f-3     :     0.000034
  2 Aus       :    -0.092618  s :    -0.092618
      pz      :    -0.011001  p :    -0.045901
      px      :    -0.021298
      py      :    -0.013602
      dz2     :    -0.003650  d :     0.005001
      dxz     :    -0.005113
      dyz     :     0.005978
      dx2y2   :     0.001845
      dxy     :     0.005941
      f0      :     0.000054  f :     0.000423
      f+1     :     0.000007
      f-1     :     0.000068
      f+2     :     0.000062
      f-2     :     0.000017
      f+3     :     0.000082
      f-3     :     0.000134
  3 Aus       :    -0.102110  s :    -0.102110
      pz      :    -0.003438  p :    -0.040557
      px      :    -0.018604
      py      :    -0.018515
      dz2     :     0.008070  d :     0.007210
      dxz     :    -0.003210
      dyz     :     0.003179
      dx2y2   :     0.002384
      dxy     :    -0.003213
      f0      :     0.000059  f :     0.000530
      f+1     :     0.000032
      f-1     :     0.000139
      f+2     :     0.000061
      f-2     :     0.000156
      f+3     :     0.000095
      f-3     :    -0.000012
  4 Aus       :    -0.028045  s :    -0.028045
      pz      :     0.002220  p :    -0.063176
      px      :    -0.000467
      py      :    -0.064929
      dz2     :     0.013976  d :     0.005853
      dxz     :     0.011927
      dyz     :    -0.012645
      dx2y2   :    -0.002634
      dxy     :    -0.004772
      f0      :     0.000330  f :     0.000491
      f+1     :     0.000134
      f-1     :     0.000099
      f+2     :    -0.000033
      f-2     :    -0.000024
      f+3     :    -0.000007
      f-3     :    -0.000009
  5 Aus       :    -0.121399  s :    -0.121399
      pz      :    -0.024098  p :    -0.064841
      px      :    -0.025502
      py      :    -0.015241
      dz2     :    -0.013903  d :    -0.030830
      dxz     :     0.000058
      dyz     :    -0.002017
      dx2y2   :    -0.002349
      dxy     :    -0.012619
      f0      :    -0.000008  f :    -0.000123
      f+1     :    -0.000022
      f-1     :    -0.000036
      f+2     :    -0.000003
      f-2     :    -0.000012
      f+3     :    -0.000024
      f-3     :    -0.000019
  6 Aus       :    -0.101955  s :    -0.101955
      pz      :    -0.024823  p :    -0.040714
      px      :     0.000664
      py      :    -0.016555
      dz2     :     0.003138  d :     0.007109
      dxz     :    -0.006379
      dyz     :    -0.007269
      dx2y2   :     0.006020
      dxy     :     0.011599
      f0      :     0.000047  f :     0.000529
      f+1     :    -0.000001
      f-1     :    -0.000007
      f+2     :     0.000145
      f-2     :     0.000072
      f+3     :     0.000146
      f-3     :     0.000126
  7 Aus       :    -0.028103  s :    -0.028103
      pz      :    -0.012774  p :    -0.063312
      px      :    -0.006824
      py      :    -0.043714
      dz2     :     0.000406  d :     0.005654
      dxz     :     0.003449
      dyz     :     0.002978
      dx2y2   :    -0.007611
      dxy     :     0.006432
      f0      :     0.000068  f :     0.000490
      f+1     :     0.000068
      f-1     :     0.000013
      f+2     :    -0.000006
      f-2     :     0.000149
      f+3     :     0.000036
      f-3     :     0.000161
  8 Aus       :    -0.102030  s :    -0.102030
      pz      :    -0.004251  p :    -0.040699
      px      :    -0.010806
      py      :    -0.025643
      dz2     :     0.007804  d :     0.006964
      dxz     :    -0.000808
      dyz     :     0.000864
      dx2y2   :    -0.003669
      dxy     :     0.002774
      f0      :     0.000064  f :     0.000528
      f+1     :     0.000119
      f-1     :     0.000058
      f+2     :     0.000070
      f-2     :     0.000146
      f+3     :    -0.000032
      f-3     :     0.000103
  9 Aus       :    -0.092486  s :    -0.092486
      pz      :    -0.018923  p :    -0.046038
      px      :    -0.012983
      py      :    -0.014132
      dz2     :     0.001288  d :     0.004906
      dxz     :    -0.000223
      dyz     :     0.001560
      dx2y2   :     0.001725
      dxy     :     0.000556
      f0      :     0.000072  f :     0.000422
      f+1     :     0.000016
      f-1     :     0.000024
      f+2     :     0.000079
      f-2     :     0.000139
      f+3     :     0.000044
      f-3     :     0.000048
 10 Crs       :     0.022014  s :     0.022014
      pz      :     0.017582  p :     0.048712
      px      :     0.018173
      py      :     0.012956
      dz2     :     0.819513  d :     3.206271
      dxz     :     0.677803
      dyz     :     0.492230
      dx2y2   :     0.586426
      dxy     :     0.630297
      f0      :    -0.000008  f :     0.000042
      f+1     :     0.000012
      f-1     :     0.000010
      f+2     :     0.000002
      f-2     :     0.000008
      f+3     :     0.000009
      f-3     :     0.000008


                      *****************************
                      * MAYER POPULATION ANALYSIS *
                      *****************************

  NA   - Mulliken gross atomic population
  ZA   - Total nuclear charge
  QA   - Mulliken gross atomic charge
  VA   - Mayer's total valence
  BVA  - Mayer's bonded valence
  FA   - Mayer's free valence

  ATOM       NA         ZA         QA         VA         BVA        FA
  0 Au    18.7461    19.0000     0.2539     1.5392     1.5334     0.0057
  1 Au    18.5855    19.0000     0.4145     1.6159     1.5851     0.0308
  2 Au    18.5855    19.0000     0.4145     1.6160     1.5851     0.0310
  3 Au    18.8862    19.0000     0.1138     1.7545     1.7076     0.0469
  4 Au    18.7465    19.0000     0.2535     1.5384     1.5326     0.0058
  5 Au    18.6746    19.0000     0.3254     1.4013     1.3552     0.0461
  6 Au    18.8850    19.0000     0.1150     1.7552     1.7086     0.0466
  7 Au    18.7465    19.0000     0.2535     1.5387     1.5329     0.0058
  8 Au    18.8852    19.0000     0.1148     1.7546     1.7080     0.0467
  9 Au    18.5854    19.0000     0.4146     1.6159     1.5850     0.0309
 10 Cr    26.6734    24.0000    -2.6734     9.1280     6.1926     2.9354

  Mayer bond orders larger than 0.100000
B(  0-Au,  1-Au) :   0.2233 B(  0-Au,  2-Au) :   0.2235 B(  0-Au,  3-Au) :   0.4145 
B(  0-Au, 10-Cr) :   0.4715 B(  1-Au,  2-Au) :   0.1134 B(  1-Au,  4-Au) :   0.2226 
B(  1-Au,  9-Au) :   0.1154 B(  1-Au, 10-Cr) :   0.7301 B(  2-Au,  7-Au) :   0.2228 
B(  2-Au,  9-Au) :   0.1150 B(  2-Au, 10-Cr) :   0.7302 B(  3-Au,  5-Au) :   0.2851 
B(  3-Au, 10-Cr) :   0.7565 B(  4-Au,  6-Au) :   0.4146 B(  4-Au,  9-Au) :   0.2227 
B(  4-Au, 10-Cr) :   0.4724 B(  5-Au,  6-Au) :   0.2852 B(  5-Au,  8-Au) :   0.2853 
B(  5-Au, 10-Cr) :   0.3176 B(  6-Au, 10-Cr) :   0.7566 B(  7-Au,  8-Au) :   0.4144 
B(  7-Au,  9-Au) :   0.2226 B(  7-Au, 10-Cr) :   0.4726 B(  8-Au, 10-Cr) :   0.7564 
B(  9-Au, 10-Cr) :   0.7287 

-------
TIMINGS
-------

Total SCF time: 0 days 0 hours 17 min 49 sec 

Total time                  ....    1069.064 sec
Sum of individual times     ....     917.902 sec  ( 85.9%)

Fock matrix formation       ....     621.843 sec  ( 58.2%)
  Split-RI-J                ....     151.802 sec  ( 24.4% of F)
  XC integration            ....     360.071 sec  ( 57.9% of F)
    Basis function eval.    ....      21.467 sec  (  6.0% of XC)
    Density eval.           ....     125.668 sec  ( 34.9% of XC)
    XC-Functional eval.     ....      17.270 sec  (  4.8% of XC)
    XC-Potential eval.      ....     156.007 sec  ( 43.3% of XC)
Diagonalization             ....     262.391 sec  ( 24.5%)
Density matrix formation    ....      14.161 sec  (  1.3%)
Population analysis         ....       5.667 sec  (  0.5%)
Initial guess               ....       1.232 sec  (  0.1%)
Orbital Transformation      ....       0.000 sec  (  0.0%)
Orbital Orthonormalization  ....       0.587 sec  (  0.1%)
DIIS solution               ....       0.000 sec  (  0.0%)
Grid generation             ....      12.608 sec  (  1.2%)

Maximum memory used throughout the entire SCF-calculation: 63.8 MB

-------------------------   --------------------
FINAL SINGLE POINT ENERGY     -2402.871024661709
-------------------------   --------------------


                            ***************************************
                            *     ORCA property calculations      *
                            ***************************************

                                    ---------------------
                                    Active property flags
                                    ---------------------
   (+) Dipole Moment


------------------------------------------------------------------------------
                       ORCA ELECTRIC PROPERTIES CALCULATION
------------------------------------------------------------------------------

Dipole Moment Calculation                       ... on
Quadrupole Moment Calculation                   ... off
Polarizability Calculation                      ... off
GBWName                                         ... scan_job2.gbw
Electron density                                ... scan_job2.scfp
The origin for moment calculation is the CENTER OF MASS  = (15.845547, 11.528088 15.259312)

-------------
DIPOLE MOMENT
-------------
                                X             Y             Z
Electronic contribution:     -1.01088       5.32861       2.06892
Nuclear contribution   :      0.97345      -5.13838      -1.99520
                        -----------------------------------------
Total Dipole Moment    :     -0.03743       0.19023       0.07372
                        -----------------------------------------
Magnitude (a.u.)       :      0.20742
Magnitude (Debye)      :      0.52723



--------------------
Rotational spectrum 
--------------------
 
Rotational constants in cm-1:     0.002191     0.001394     0.001393 
Rotational constants in MHz :    65.688799    41.789289    41.773619 

 Dipole components along the rotational axes: 
x,y,z [a.u.] :    -0.207423    -0.000462     0.000280 
x,y,z [Debye]:    -0.527229    -0.001176     0.000712 

 

Timings for individual modules:

Sum of individual times         ...     1107.196 sec (=  18.453 min)
GTO integral calculation        ...       36.577 sec (=   0.610 min)   3.3 %
SCF iterations                  ...     1070.619 sec (=  17.844 min)  96.7 %



                             ****ORCA TERMINATED NORMALLY****
TOTAL RUN TIME: 0 days 0 hours 37 minutes 28 seconds 571 msec
