
                                 *****************
                                 * O   R   C   A *
                                 *****************

                                            #,                                       
                                            ###                                      
                                            ####                                     
                                            #####                                    
                                            ######                                   
                                           ########,                                 
                                     ,,################,,,,,                         
                               ,,#################################,,                 
                          ,,##########################################,,             
                       ,#########################################, ''#####,          
                    ,#############################################,,   '####,        
                  ,##################################################,,,,####,       
                ,###########''''           ''''###############################       
              ,#####''   ,,,,##########,,,,          '''####'''          '####       
            ,##' ,,,,###########################,,,                        '##       
           ' ,,###''''                  '''############,,,                           
         ,,##''                                '''############,,,,        ,,,,,,###''
      ,#''                                            '''#######################'''  
     '                                                          ''''####''''         
             ,#######,   #######,   ,#######,      ##                                
            ,#'     '#,  ##    ##  ,#'     '#,    #''#        ######   ,####,        
            ##       ##  ##   ,#'  ##            #'  '#       #        #'  '#        
            ##       ##  #######   ##           ,######,      #####,   #    #        
            '#,     ,#'  ##    ##  '#,     ,#' ,#      #,         ##   #,  ,#        
             '#######'   ##     ##  '#######'  #'      '#     #####' # '####'        



                  #######################################################
                  #                        -***-                        #
                  #          Department of theory and spectroscopy      #
                  #    Directorship and core code : Frank Neese         #
                  #        Max Planck Institute fuer Kohlenforschung    #
                  #                Kaiser Wilhelm Platz 1               #
                  #                 D-45470 Muelheim/Ruhr               #
                  #                      Germany                        #
                  #                                                     #
                  #                  All rights reserved                #
                  #                        -***-                        #
                  #######################################################


                         Program Version 5.0.3 -  RELEASE  -


 With contributions from (in alphabetic order):
   Daniel Aravena         : Magnetic Suceptibility
   Michael Atanasov       : Ab Initio Ligand Field Theory (pilot matlab implementation)
   Alexander A. Auer      : GIAO ZORA, VPT2 properties, NMR spectrum
   Ute Becker             : Parallelization
   Giovanni Bistoni       : ED, misc. LED, open-shell LED, HFLD
   Martin Brehm           : Molecular dynamics
   Dmytro Bykov           : SCF Hessian
   Vijay G. Chilkuri      : MRCI spin determinant printing, contributions to CSF-ICE
   Dipayan Datta          : RHF DLPNO-CCSD density
   Achintya Kumar Dutta   : EOM-CC, STEOM-CC
   Dmitry Ganyushin       : Spin-Orbit,Spin-Spin,Magnetic field MRCI
   Miquel Garcia          : C-PCM and meta-GGA Hessian, CC/C-PCM, Gaussian charge scheme
   Yang Guo               : DLPNO-NEVPT2, F12-NEVPT2, CIM, IAO-localization
   Andreas Hansen         : Spin unrestricted coupled pair/coupled cluster methods
   Benjamin Helmich-Paris : MC-RPA, TRAH-SCF, COSX integrals
   Lee Huntington         : MR-EOM, pCC
   Robert Izsak           : Overlap fitted RIJCOSX, COSX-SCS-MP3, EOM
   Marcus Kettner         : VPT2
   Christian Kollmar      : KDIIS, OOCD, Brueckner-CCSD(T), CCSD density, CASPT2, CASPT2-K
   Simone Kossmann        : Meta GGA functionals, TD-DFT gradient, OOMP2, MP2 Hessian
   Martin Krupicka        : Initial AUTO-CI
   Lucas Lang             : DCDCAS
   Marvin Lechner         : AUTO-CI (C++ implementation), FIC-MRCC
   Dagmar Lenk            : GEPOL surface, SMD
   Dimitrios Liakos       : Extrapolation schemes; Compound Job, initial MDCI parallelization
   Dimitrios Manganas     : Further ROCIS development; embedding schemes
   Dimitrios Pantazis     : SARC Basis sets
   Anastasios Papadopoulos: AUTO-CI, single reference methods and gradients
   Taras Petrenko         : DFT Hessian,TD-DFT gradient, ASA, ECA, R-Raman, ABS, FL, XAS/XES, NRVS
   Peter Pinski           : DLPNO-MP2, DLPNO-MP2 Gradient
   Christoph Reimann      : Effective Core Potentials
   Marius Retegan         : Local ZFS, SOC
   Christoph Riplinger    : Optimizer, TS searches, QM/MM, DLPNO-CCSD(T), (RO)-DLPNO pert. Triples
   Tobias Risthaus        : Range-separated hybrids, TD-DFT gradient, RPA, STAB
   Michael Roemelt        : Original ROCIS implementation
   Masaaki Saitow         : Open-shell DLPNO-CCSD energy and density
   Barbara Sandhoefer     : DKH picture change effects
   Avijit Sen             : IP-ROCIS
   Kantharuban Sivalingam : CASSCF convergence, NEVPT2, FIC-MRCI
   Bernardo de Souza      : ESD, SOC TD-DFT
   Georgi Stoychev        : AutoAux, RI-MP2 NMR, DLPNO-MP2 response
   Willem Van den Heuvel  : Paramagnetic NMR
   Boris Wezisla          : Elementary symmetry handling
   Frank Wennmohs         : Technical directorship


 We gratefully acknowledge several colleagues who have allowed us to
 interface, adapt or use parts of their codes:
   Stefan Grimme, W. Hujo, H. Kruse, P. Pracht,  : VdW corrections, initial TS optimization,
                  C. Bannwarth, S. Ehlert          DFT functionals, gCP, sTDA/sTD-DF
   Ed Valeev, F. Pavosevic, A. Kumar             : LibInt (2-el integral package), F12 methods
   Garnet Chan, S. Sharma, J. Yang, R. Olivares  : DMRG
   Ulf Ekstrom                                   : XCFun DFT Library
   Mihaly Kallay                                 : mrcc  (arbitrary order and MRCC methods)
   Jiri Pittner, Ondrej Demel                    : Mk-CCSD
   Frank Weinhold                                : gennbo (NPA and NBO analysis)
   Christopher J. Cramer and Donald G. Truhlar   : smd solvation model
   Lars Goerigk                                  : TD-DFT with DH, B97 family of functionals
   V. Asgeirsson, H. Jonsson                     : NEB implementation
   FAccTs GmbH                                   : IRC, NEB, NEB-TS, DLPNO-Multilevel, CI-OPT
                                                   MM, QMMM, 2- and 3-layer-ONIOM, Crystal-QMMM,
                                                   LR-CPCM, SF, NACMEs, symmetry and pop. for TD-DFT,
                                                   nearIR, NL-DFT gradient (VV10), updates on ESD,
                                                   ML-optimized integration grids
   S Lehtola, MJT Oliveira, MAL Marques          : LibXC Library
   Liviu Ungur et al                             : ANISO software


 Your calculation uses the libint2 library for the computation of 2-el integrals
 For citations please refer to: http://libint.valeyev.net

 Your ORCA version has been built with support for libXC version: 5.1.0
 For citations please refer to: https://tddft.org/programs/libxc/

 This ORCA versions uses:
   CBLAS   interface :  Fast vector & matrix operations
   LAPACKE interface :  Fast linear algebra routines
   SCALAPACK package :  Parallel linear algebra routines
   Shared memory     :  Shared parallel matrices
   BLAS/LAPACK       :  OpenBLAS 0.3.15  USE64BITINT DYNAMIC_ARCH NO_AFFINITY Sandybridge SINGLE_THREADED
        Core in use  :  Sandybridge
   Copyright (c) 2011-2014, The OpenBLAS Project




***************************************
The coordinates will be read from file: pbe.xyz
***************************************


================================================================================

cite the ECPs for Au [Def2-ECP] as follows:
Ce-Yb(ecp-28): M. Dolg, H. Stoll, H.Preuss, J. Chem. Phys., 1989, 90, 1730-1734.
Y-Cd(ecp-28), Hf-Hg(ecp-46): D. Andrae,U. Haeussermann, M. Dolg, H. Stoll, H. Preuss, Theor. Chim. Acta, 1990, 77, 123-141.
In-Sb(ecp-28), Tl-Bi(ecp-46): B. Metz, H. Stoll, M. Dolg, J. Chem. Phys., 2000, 113, 2563-2569.
Te-Xe(ecp-28), Po-Rn(ecp-46): K. A. Peterson, D. Figgen, E. Goll, H. Stoll, M. Dolg, J. Chem. Phys., 2003, 119, 11113-11123.
Rb(ecp-28), Cs(ecp-46): T. Leininger, A. Nicklass, W. Kuechle, H. Stoll, M. Dolg, A. Bergner, Chem. Phys. Lett., 1996, 255, 274-280.
Sr(ecp-28), Ba(ecp-46): M. Kaupp, P. V. Schleyer, H. Stoll and H. Preuss, J. Chem. Phys., 1991, 94, 1360-1366.
La(ecp-46): M. Dolg, H. Stoll, A. Savin, H. Preuss, Theor. Chim. Acta, 1989, 75, 173-194.
Lu(ecp-28): X. Cao, M. Dolg, J. Chem. Phys., 2001, 115, 7348-7355.

ECP parameters for Au [Def2-ECP] have been obtained from:
TURBOMOLE (7.0.2)

----- Orbital basis set information -----
Your calculation utilizes the basis: def2-TZVP
   F. Weigend and R. Ahlrichs, Phys. Chem. Chem. Phys. 7, 3297 (2005).

----- AuxJ basis set information -----
Your calculation utilizes the auxiliary basis: def2/J
   F. Weigend, Phys. Chem. Chem. Phys. 8, 1057 (2006).

================================================================================
                                        WARNINGS
                       Please study these warnings very carefully!
================================================================================


WARNING: your system is open-shell and RHF/RKS was chosen
  ===> : WILL SWITCH to UHF/UKS


INFO   : the flag for use of the SHARK integral package has been found!

================================================================================
                                       INPUT FILE
================================================================================
NAME = pbeQRO.inp
|  1> %pal nprocs 16 end 
|  2> 
|  3> !PBE def2-TZVP UNO
|  4> !SLOWCONV
|  5> 
|  6> *xyzfile 0 5 pbe.xyz 
|  7> 
|  8>                          ****END OF INPUT****
================================================================================

                       ****************************
                       * Single Point Calculation *
                       ****************************

---------------------------------
CARTESIAN COORDINATES (ANGSTROEM)
---------------------------------
  Au     6.305628    9.014371    9.031280
  Au     8.735667    5.904696    8.862535
  Au     9.005907    8.663708    9.383534
  Au     8.375974   10.745516    5.484367
  Au     6.074389    6.247279    8.530792
  Au    10.442262   10.047937    7.214382
  Au    10.755290    7.348018    7.522981
  Au     6.794291    8.572291    4.762463
  Au     8.059735   11.032881    8.258156
  Au     9.049718    5.624010    6.078713
  Au     6.387097    5.956057    5.746341
  Au     5.838479   10.609171    6.628954
  Au     4.817217    8.065891    6.772122
  Au     9.498277    8.225057    5.093071
  Fe     7.813583    7.863510    7.135131

----------------------------
CARTESIAN COORDINATES (A.U.)
----------------------------
  NO LB      ZA    FRAG     MASS         X           Y           Z
   0 Au   19.0000*   0   196.966   11.915910   17.034693   17.066646
   1 Au   19.0000*   0   196.966   16.508018   11.158259   16.747764
   2 Au   19.0000*   0   196.966   17.018698   16.372036   17.732309
   3 Au   19.0000*   0   196.966   15.828297   20.306082   10.363951
   4 Au   19.0000*   0   196.966   11.478932   11.805646   16.120861
   5 Au   19.0000*   0   196.966   19.733015   18.987849   13.633207
   6 Au   19.0000*   0   196.966   20.324552   13.885741   14.216373
   7 Au   19.0000*   0   196.966   12.839349   16.199283    8.999750
   8 Au   19.0000*   0   196.966   15.230692   20.849124   15.605653
   9 Au   19.0000*   0   196.966   17.101489   10.627839   11.487103
  10 Au   19.0000*   0   196.966   12.069864   11.255317   10.859011
  11 Au   19.0000*   0   196.966   11.033126   20.048427   12.526907
  12 Au   19.0000*   0   196.966    9.103220   15.242325   12.797456
  13 Au   19.0000*   0   196.966   17.949142   15.543105    9.624509
  14 Fe   26.0000    0    55.850   14.765532   14.859881   13.483444
* core charge reduced due to ECP

--------------------------------
INTERNAL COORDINATES (ANGSTROEM)
--------------------------------
 Au     0   0   0     0.000000000000     0.00000000     0.00000000
 Au     1   0   0     3.950144627594     0.00000000     0.00000000
 Au     1   2   0     2.745642852167    45.56700033     0.00000000
 Au     1   2   3     4.456881104867    89.19856479    65.56513066
 Au     2   1   3     2.703666520896    45.56972609   179.53893502
 Au     4   1   2     2.783723198851    75.69311107   310.62201962
 Au     6   4   1     2.735467528446   113.72749928    68.81586773
 Au     4   1   2     2.783122845695    68.84627617    72.44745380
 Au     6   4   1     2.781368509769    60.57055696   323.73195322
 Au     2   1   3     2.815506567474   100.91417305   258.73488198
 Au    10   2   1     2.703752564956    89.96886561   315.23380340
 Au     4   1   2     2.787032936926    39.75627870   145.71882009
 Au    12   4   1     2.744402649952   113.92669564   296.68781481
 Au     8   4   1     2.746163730709    60.52282839   260.43600746
 Fe     3   1   2     2.667820608330    59.37867696    54.84960274

---------------------------
INTERNAL COORDINATES (A.U.)
---------------------------
 Au     0   0   0     0.000000000000     0.00000000     0.00000000
 Au     1   0   0     7.464691535533     0.00000000     0.00000000
 Au     1   2   0     5.188513052154    45.56700033     0.00000000
 Au     1   2   3     8.422284699648    89.19856479    65.56513066
 Au     2   1   3     5.109189281944    45.56972609   179.53893502
 Au     4   1   2     5.260474478472    75.69311107   310.62201962
 Au     6   4   1     5.169284476998   113.72749928    68.81586773
 Au     4   1   2     5.259339975424    68.84627617    72.44745380
 Au     6   4   1     5.256024760977    60.57055696   323.73195322
 Au     2   1   3     5.320536340783   100.91417305   258.73488198
 Au    10   2   1     5.109351881653    89.96886561   315.23380340
 Au     4   1   2     5.266728977009    39.75627870   145.71882009
 Au    12   4   1     5.186169409617   113.92669564   296.68781481
 Au     8   4   1     5.189497369947    60.52282839   260.43600746
 Fe     3   1   2     5.041450324174    59.37867696    54.84960274

---------------------
BASIS SET INFORMATION
---------------------
There are 2 groups of distinct atoms

 Group   1 Type Au  : 8s7p6d1f contracted to 6s4p3d1f pattern {311111/4111/411/1}
 Group   2 Type Fe  : 17s11p7d1f contracted to 6s4p4d1f pattern {842111/6311/4111/1}

Atom   0Au   basis set group =>   1
Atom   1Au   basis set group =>   1
Atom   2Au   basis set group =>   1
Atom   3Au   basis set group =>   1
Atom   4Au   basis set group =>   1
Atom   5Au   basis set group =>   1
Atom   6Au   basis set group =>   1
Atom   7Au   basis set group =>   1
Atom   8Au   basis set group =>   1
Atom   9Au   basis set group =>   1
Atom  10Au   basis set group =>   1
Atom  11Au   basis set group =>   1
Atom  12Au   basis set group =>   1
Atom  13Au   basis set group =>   1
Atom  14Fe   basis set group =>   2
---------------------------------
AUXILIARY/J BASIS SET INFORMATION
---------------------------------
There are 2 groups of distinct atoms

 Group   1 Type Au  : 11s5p5d3f3g contracted to 8s5p5d2f3g pattern {41111111/11111/11111/21/111}
 Group   2 Type Fe  : 19s5p5d3f3g contracted to 8s5p5d2f3g pattern {121111111/11111/11111/21/111}

Atom   0Au   basis set group =>   1
Atom   1Au   basis set group =>   1
Atom   2Au   basis set group =>   1
Atom   3Au   basis set group =>   1
Atom   4Au   basis set group =>   1
Atom   5Au   basis set group =>   1
Atom   6Au   basis set group =>   1
Atom   7Au   basis set group =>   1
Atom   8Au   basis set group =>   1
Atom   9Au   basis set group =>   1
Atom  10Au   basis set group =>   1
Atom  11Au   basis set group =>   1
Atom  12Au   basis set group =>   1
Atom  13Au   basis set group =>   1
Atom  14Fe   basis set group =>   2
-------------------------
ECP PARAMETER INFORMATION
-------------------------

 Group 1, Type Au ECP Def2-ECP (replacing 60 core electrons, lmax=3)

Atom   0Au   ECP group =>   1
Atom   1Au   ECP group =>   1
Atom   2Au   ECP group =>   1
Atom   3Au   ECP group =>   1
Atom   4Au   ECP group =>   1
Atom   5Au   ECP group =>   1
Atom   6Au   ECP group =>   1
Atom   7Au   ECP group =>   1
Atom   8Au   ECP group =>   1
Atom   9Au   ECP group =>   1
Atom  10Au   ECP group =>   1
Atom  11Au   ECP group =>   1
Atom  12Au   ECP group =>   1
Atom  13Au   ECP group =>   1



           ************************************************************
           *        Program running with 16 parallel MPI-processes    *
           *              working on a common directory               *
           ************************************************************
------------------------------------------------------------------------------
                           ORCA GTO INTEGRAL CALCULATION
                           -- RI-GTO INTEGRALS CHOSEN --
------------------------------------------------------------------------------
------------------------------------------------------------------------------
                   ___                                                        
                  /   \      - P O W E R E D   B Y -                         
                 /     \                                                     
                 |  |  |   _    _      __       _____    __    __             
                 |  |  |  | |  | |    /  \     |  _  \  |  |  /  |          
                  \  \/   | |  | |   /    \    | | | |  |  | /  /          
                 / \  \   | |__| |  /  /\  \   | |_| |  |  |/  /          
                |  |  |   |  __  | /  /__\  \  |    /   |      \           
                |  |  |   | |  | | |   __   |  |    \   |  |\   \          
                \     /   | |  | | |  |  |  |  | |\  \  |  | \   \       
                 \___/    |_|  |_| |__|  |__|  |_| \__\ |__|  \__/        
                                                                              
                      - O R C A' S   B I G   F R I E N D -                    
                                      &                                       
                       - I N T E G R A L  F E E D E R -                       
                                                                              
 v1 FN, 2020, v2 2021                                                         
------------------------------------------------------------------------------


Reading SHARK input file pbeQRO.SHARKINP.tmp ... ok
----------------------
SHARK INTEGRAL PACKAGE
----------------------

Number of atoms                             ...     15
Number of basis functions                   ...    605
Number of shells                            ...    211
Maximum angular momentum                    ...      3
Integral batch strategy                     ... SHARK/LIBINT Hybrid
RI-J (if used) integral strategy            ... SPLIT-RIJ (Revised 2003 algorithm where possible)
Printlevel                                  ...      1
Contraction scheme used                     ... SEGMENTED contraction
Coulomb Range Separation                    ... NOT USED
Exchange Range Separation                   ... NOT USED
Finite Nucleus Model                        ... NOT USED
Auxiliary Coulomb fitting basis             ... AVAILABLE
   # of basis functions in Aux-J            ...   1335
   # of shells in Aux-J                     ...    345
   Maximum angular momentum in Aux-J        ...      4
Auxiliary J/K fitting basis                 ... NOT available
Auxiliary Correlation fitting basis         ... NOT available
Auxiliary 'external' fitting basis          ... NOT available
Integral threshold                          ...     1.000000e-10
Primitive cut-off                           ...     1.000000e-11
Primitive pair pre-selection threshold      ...     1.000000e-11

Calculating pre-screening integrals         ... done (  0.2 sec) Dimension = 211
Organizing shell pair data                  ... done (  0.7 sec)
Shell pair information
Total number of shell pairs                 ...     22366
Shell pairs after pre-screening             ...     17969
Total number of primitive shell pairs       ...     59609
Primitive shell pairs kept                  ...     34514
          la=0 lb=0:   2812 shell pairs
          la=1 lb=0:   4090 shell pairs
          la=1 lb=1:   1540 shell pairs
          la=2 lb=0:   3568 shell pairs
          la=2 lb=1:   2518 shell pairs
          la=2 lb=2:   1046 shell pairs
          la=3 lb=0:    928 shell pairs
          la=3 lb=1:    734 shell pairs
          la=3 lb=2:    632 shell pairs
          la=3 lb=3:    101 shell pairs

Calculating one electron integrals          ... done (  0.0 sec)
Calculating ECP integrals                   ... done ( 22.7 sec)
Calculating RI/J V-Matrix + Cholesky decomp.... done (  0.1 sec)
Calculating Nuclear repulsion               ... done (  0.0 sec) ENN=   5773.775942024975 Eh

SHARK setup successfully completed in  24.5 seconds

Maximum memory used throughout the entire GTOINT-calculation: 34.7 MB


           ************************************************************
           *        Program running with 16 parallel MPI-processes    *
           *              working on a common directory               *
           ************************************************************
-------------------------------------------------------------------------------
                                 ORCA SCF
-------------------------------------------------------------------------------

------------
SCF SETTINGS
------------
Hamiltonian:
 Density Functional     Method          .... DFT(GTOs)
 Exchange Functional    Exchange        .... PBE
   PBE kappa parameter   XKappa         ....  0.804000
   PBE mue parameter    XMuePBE         ....  0.219520
 Correlation Functional Correlation     .... PBE
   PBE beta parameter  CBetaPBE         ....  0.066725
 LDA part of GGA corr.  LDAOpt          .... PW91-LDA
 Gradients option       PostSCFGGA      .... off
   Density functional embedding theory  .... OFF
   NL short-range parameter             ....  6.400000
 RI-approximation to the Coulomb term is turned on
   Number of AuxJ basis functions       .... 1335


General Settings:
 Integral files         IntName         .... pbeQRO
 Hartree-Fock type      HFTyp           .... UHF
 Total Charge           Charge          ....    0
 Multiplicity           Mult            ....    5
 Number of Electrons    NEL             ....  292
 Basis Dimension        Dim             ....  605
 Nuclear Repulsion      ENuc            ....   5773.7759420250 Eh

Convergence Acceleration:
 DIIS                   CNVDIIS         .... on
   Start iteration      DIISMaxIt       ....     0
   Startup error        DIISStart       ....  0.200000
   # of expansion vecs  DIISMaxEq       ....     5
   Bias factor          DIISBfac        ....   1.050
   Max. coefficient     DIISMaxC        ....  10.000
 Trust-Rad. Augm. Hess. CNVTRAH         .... auto
   Auto Start mean grad. ratio tolernc. ....  1.125000
   Auto Start start iteration           ....    20
   Auto Start num. interpolation iter.  ....    10
   Max. Number of Micro iterations      ....    16
   Max. Number of Macro iterations      .... Maxiter - #DIIS iter
   Number of Davidson start vectors     ....     2
   Converg. threshold I  (grad. norm)   ....   5.000e-05
   Converg. threshold II (energy diff.) ....   1.000e-06
   Grad. Scal. Fac. for Micro threshold ....   0.100
   Minimum threshold for Micro iter.    ....   0.010
   NR start threshold (gradient norm)   ....   0.001
   Initial trust radius                 ....   0.400
   Minimum AH scaling param. (alpha)    ....   1.000
   Maximum AH scaling param. (alpha)    .... 1000.000
   Orbital update algorithm             .... Taylor
   White noise on init. David. guess    .... on
   Maximum white noise                  ....   0.010
   Quad. conv. algorithm                .... NR
 SOSCF                  CNVSOSCF        .... off
 Level Shifting         CNVShift        .... on
   Level shift para.    LevelShift      ....    0.2500
   Turn off err/grad.   ShiftErr        ....    0.0000
 Zerner damping         CNVZerner       .... off
 Static damping         CNVDamp         .... on
   Fraction old density DampFac         ....    0.8500
   Max. Damping (<1)    DampMax         ....    0.9800
   Min. Damping (>=0)   DampMin         ....    0.0000
   Turn off err/grad.   DampErr         ....    0.0300
 Fernandez-Rico         CNVRico         .... off

SCF Procedure:
 Maximum # iterations   MaxIter         ....   125
 SCF integral mode      SCFMode         .... Direct
   Integral package                     .... SHARK and LIBINT hybrid scheme
 Reset frequency        DirectResetFreq ....    20
 Integral Threshold     Thresh          ....  1.000e-10 Eh
 Primitive CutOff       TCut            ....  1.000e-11 Eh

Convergence Tolerance:
 Convergence Check Mode ConvCheckMode   .... Total+1el-Energy
 Convergence forced     ConvForced      .... 0
 Energy Change          TolE            ....  1.000e-06 Eh
 1-El. energy change                    ....  1.000e-03 Eh
 DIIS Error             TolErr          ....  1.000e-06


Diagonalization of the overlap matrix:
Smallest eigenvalue                        ... 5.024e-04
Time for diagonalization                   ...    0.148 sec
Threshold for overlap eigenvalues          ... 1.000e-08
Number of eigenvalues below threshold      ... 0
Time for construction of square roots      ...    0.117 sec
Total time needed                          ...    0.269 sec

Time for model grid setup =    0.682 sec

------------------------------
INITIAL GUESS: MODEL POTENTIAL
------------------------------
Loading Hartree-Fock densities                     ... done
  calling /home/ehlert/src/miniconda3/envs/orca500/Programs/ORCA501/orca pbeQRO_atom79.inp > pbeQRO_atom79.out in order to generate an atomic fitting density for atom 0 (Au with ECP) on-the-fly... 
    atom 0 (Au), assumed electronic state with S=2: 1s2 2s2 2p6 3s2 3p6 4s2 3d10 4p6 5s2 4d10 5p6 6s1 4f14 5d10           ... done
Calculating cut-offs                               ... done
Initializing the effective Hamiltonian             ... done
Setting up the integral package (SHARK)            ... done
Starting the Coulomb interaction                   ... done (   0.4 sec)
Reading the grid                                   ... done
Mapping shells                                     ... done
Starting the XC term evaluation                    ... done (   0.4 sec)
  promolecular density results
     # of electrons  =   1132.014892313
     EX              =  -5175.649992492
     EC              =    -68.993443598
     EX+EC           =  -5244.643436090
Transforming the Hamiltonian                       ... done (   0.1 sec)
Diagonalizing the Hamiltonian                      ... done (   0.1 sec)
Back transforming the eigenvectors                 ... done (   0.0 sec)
Now organizing SCF variables                       ... done
                      ------------------
                      INITIAL GUESS DONE (   2.9 sec)
                      ------------------
-------------------
DFT GRID GENERATION
-------------------

General Integration Accuracy     IntAcc      ... 4.388
Radial Grid Type                 RadialGrid  ... OptM3 with GC (2021)
Angular Grid (max. ang.)         AngularGrid ... 4 (Lebedev-302)
Angular grid pruning method      GridPruning ... 4 (adaptive)
Weight generation scheme         WeightScheme... Becke
Basis function cutoff            BFCut       ... 1.0000e-10
Integration weight cutoff        WCut        ... 1.0000e-14
Angular grids for H and He will be reduced by one unit
Partially contracted basis set               ... off
Rotationally invariant grid construction     ... off

Total number of grid points                  ...   165480
Total number of batches                      ...     2591
Average number of points per batch           ...       63
Average number of grid points per atom       ...    11032
Time for grid setup =    2.398 sec

--------------
SCF ITERATIONS
--------------
ITER       Energy         Delta-E        Max-DP      RMS-DP      [F,P]     Damp
               ***  Starting incremental Fock matrix formation  ***
  0  -3161.5957605237   0.000000000000 0.15128696  0.00123176  0.5475014 0.8500
  1  -3163.6101418502  -2.014381326571 0.11789454  0.00093630  0.2436352 0.8500
                               ***Turning on DIIS***
  2  -3163.9312770896  -0.321135239318 0.06647989  0.00063337  0.2055279 0.8500
  3  -3163.7617509579   0.169526131632 0.07002163  0.00047329  0.1734208 0.8500
  4  -3164.0001657807  -0.238414822818 0.04518568  0.00040613  0.1459833 0.8500
  5  -3164.2792005853  -0.279034804517 0.03829607  0.00032277  0.1235967 0.8500
  6  -3164.3769216699  -0.097721084598 0.03285619  0.00027728  0.1052750 0.8500
  7  -3164.4109790050  -0.034057335128 0.02494388  0.00025122  0.0971251 0.8500
  8  -3164.4989293948  -0.087950389824 0.01941234  0.00022845  0.0838402 0.8500
  9  -3164.5947757082  -0.095846313393 0.01647749  0.00019921  0.0643737 0.8500
 10  -3164.6740099780  -0.079234269815 0.01506252  0.00016983  0.0547162 0.8500
 11  -3164.7338141364  -0.059804158367 0.01628963  0.00014271  0.0464826 0.8500
 12  -3164.7777541790  -0.043940042639 0.01644360  0.00012692  0.0394120 0.8500
 13  -3164.8141506566  -0.036396477603 0.01500584  0.00011564  0.0358962 0.8500
 14  -3164.8492402040  -0.035089547378 0.01208097  0.00011650  0.0335603 0.8500
 15  -3164.8844351247  -0.035194920688 0.07480880  0.00069005  0.0241758 0.0000
 16  -3165.0397710016  -0.155335876877 0.00225949  0.00001689  0.0555980 0.8500
 17  -3165.0436993931  -0.003928391528 0.00356659  0.00002892  0.0511146 0.8500
 18  -3165.0496016108  -0.005902217664 0.00448351  0.00003258  0.0434501 0.8500
 19  -3165.0550957013  -0.005494090563 0.00500327  0.00003190  0.0341941 0.8500
               *** Restarting incremental Fock matrix formation ***
                                   *** Resetting DIIS ***

 WARNING: the maximum gradient error descreased on average only by a factor   1.0
          during the last 20 iterations

                      *** Initiating the TRAH-SCF procedure ***


TRAH GRID
---------

General Integration Accuracy     IntAcc      ... 3.467
Radial Grid Type                 RadialGrid  ... OptM3 with GC (2021)
Angular Grid (max. ang.)         AngularGrid ... 1 (Lebedev-50)
Angular grid pruning method      GridPruning ... 4 (adaptive)
Weight generation scheme         WeightScheme... Becke
Basis function cutoff            BFCut       ... 1.0000e-10
Integration weight cutoff        WCut        ... 1.0000e-14
Angular grids for H and He will be reduced by one unit
Partially contracted basis set               ... off
Rotationally invariant grid construction     ... off

Total number of grid points                  ...    71316
Total number of batches                      ...     1123
Average number of points per batch           ...       63
Average number of grid points per atom       ...     4754

 --------------------------------------------------------------------------------------------
   Iter.        energy            ||Error||_2        Shift      TRadius  Mac/Mic        Rej.
 --------------------------------------------------------------------------------------------
    0      -3165.059899467363     1.519910e-01                     0.400 (TRAH MAcro)   No
WARNING : small    HOMO - LUMO gap : (op = alpha) 0.000647
    0     dE    -4.113453e-03     8.588326e-02    -4.1104e-03      0.027 (TRAH MIcro)
    0     dE    -6.565126e-03     1.955915e-02    -6.5323e-03      0.071 (TRAH MIcro)
    0     dE    -1.295041e-02     2.334781e-02    -1.7657e-02      0.400 (TRAH MIcro)
    0     dE    -1.335074e-02     1.521109e-02    -1.9931e-02      0.400 (TRAH MIcro)
    0     dE    -1.350776e-02     6.712679e-03    -2.0747e-02      0.400 (TRAH MIcro)
    1      -3165.065275025182     6.857663e-02                     0.400 (TRAH MAcro)   No
WARNING : small    HOMO - LUMO gap : (op = alpha) 0.001215
WARNING : small    HOMO - LUMO gap : (op =  beta) 0.008202
    1     dE    -9.438283e-04     4.735427e-02    -9.4365e-04      0.014 (TRAH MIcro)
    1     dE    -1.499415e-03     2.125694e-02    -1.4971e-03      0.040 (TRAH MIcro)
    1     dE    -3.230815e-03     1.674937e-02    -3.1823e-03      0.123 (TRAH MIcro)
    1     dE    -3.353714e-03     6.096641e-03    -3.2959e-03      0.132 (TRAH MIcro)
    2      -3165.068969623926     1.306362e-02                     0.480 (TRAH MAcro)   No
WARNING : small    HOMO - LUMO gap : (op = alpha) 0.002991
    2     dE    -2.713442e-05     3.215030e-02    -2.7134e-05      0.002 (TRAH MIcro)
    2     dE    -7.800964e-05     9.062678e-03    -7.8000e-05      0.011 (TRAH MIcro)
    2     dE    -2.215574e-04     1.108153e-02    -2.2110e-04      0.045 (TRAH MIcro)
    2     dE    -2.569222e-04     4.348523e-03    -2.5612e-04      0.056 (TRAH MIcro)
    2     dE    -2.604807e-04     1.580934e-03    -2.5963e-04      0.057 (TRAH MIcro)
    2     dE    -2.616919e-04     9.592898e-04    -2.6083e-04      0.057 (TRAH MIcro)
    3      -3165.069241350442     1.350249e-03                     0.576 (TRAH MAcro)   No
WARNING : small    HOMO - LUMO gap : (op = alpha) 0.003075
    3     dE    -2.647759e-07     3.907794e-03    -2.6478e-07      0.000 (TRAH MIcro)
    3     dE    -7.803053e-07     1.124782e-03    -7.8030e-07      0.001 (TRAH MIcro)
    3     dE    -2.045873e-06     9.834238e-04    -2.0458e-06      0.004 (TRAH MIcro)
    3     dE    -2.941084e-06     7.976030e-04    -2.9409e-06      0.007 (TRAH MIcro)
    3     dE    -3.125850e-06     2.787251e-04    -3.1257e-06      0.008 (TRAH MIcro)
    3     dE    -3.183045e-06     2.529420e-04    -3.1828e-06      0.008 (TRAH MIcro)
    3     dE    -3.203675e-06     1.619897e-04    -3.2035e-06      0.008 (TRAH MIcro)
    3     dE    -3.213158e-06     6.534515e-05    -3.2129e-06      0.008 (TRAH MIcro)
    4      -3165.069244565388     6.532933e-05                           (NR   MAcro)
WARNING : small    HOMO - LUMO gap : (op = alpha) 0.003113
    4     dE    -1.017018e-09     4.705997e-05                           (NR   MIcro)
    4     dE    -1.514749e-09     3.235236e-05                           (NR   MIcro)
    4     dE    -2.038530e-09     1.608706e-05                           (NR   MIcro)
    4     dE    -2.169981e-09     1.020390e-05                           (NR   MIcro)
    4     dE    -2.233606e-09     7.392288e-06                           (NR   MIcro)
    4     dE    -2.263065e-09     3.719617e-06                           (NR   MIcro)
    5      -3165.069244567651     3.721523e-06                           (NR   MAcro)
WARNING : small    HOMO - LUMO gap : (op = alpha) 0.003112

               *****************************************************
               *                     SUCCESS                       *
               *           SCF CONVERGED AFTER  55 CYCLES          *
               *****************************************************


----------------
TOTAL SCF ENERGY
----------------

Total Energy       :        -3165.06924457 Eh          -86125.91270 eV

Components:
Nuclear Repulsion  :         5773.77594202 Eh          157112.43082 eV
Electronic Energy  :        -8938.84518659 Eh         -243238.34353 eV
One Electron Energy:       -16621.81064076 Eh         -452302.46215 eV
Two Electron Energy:         7682.96545417 Eh          209064.11862 eV

Virial components:
Potential Energy   :        -5067.67521171 Eh         -137898.45313 eV
Kinetic Energy     :         1902.60596714 Eh           51772.54043 eV
Virial Ratio       :            2.66354426


DFT components:
N(Alpha)           :      148.000046160354 electrons
N(Beta)            :      144.000048890435 electrons
N(Total)           :      292.000095050790 electrons
E(X)               :     -223.018190997338 Eh       
E(C)               :      -12.778952084157 Eh       
E(XC)              :     -235.797143081495 Eh       
DFET-embed. en.    :        0.000000000000 Eh       

---------------
SCF CONVERGENCE
---------------

  Last Energy change         ...   -2.2633e-09  Tolerance :   1.0000e-06
  Last Orbital Gradient      ...    3.7215e-06  Tolerance :   5.0000e-05
  Last Orbital Rotation      ...    1.5475e-04

             **** THE GBW FILE WAS UPDATED (pbeQRO.gbw) ****
             **** DENSITY pbeQRO.scfp WAS UPDATED ****
             **** ENERGY FILE WAS UPDATED (pbeQRO.en.tmp) ****
----------------------
UHF SPIN CONTAMINATION
----------------------

Warning: in a DFT calculation there is little theoretical justification to 
         calculate <S**2> as in Hartree-Fock theory. We will do it anyways
         but you should keep in mind that the values have only limited relevance

Expectation value of <S**2>     :     6.491775
Ideal value S*(S+1) for S=2.0   :     6.000000
Deviation                       :     0.491775

             **** THE GBW FILE WAS UPDATED (pbeQRO.gbw) ****
             **** DENSITY pbeQRO.scfp WAS UPDATED ****
----------------
ORBITAL ENERGIES
----------------
                 SPIN UP ORBITALS
  NO   OCC          E(Eh)            E(eV) 
   0   1.0000    -254.785144     -6933.0562 
   1   1.0000     -29.625628      -806.1543 
   2   1.0000     -25.562702      -695.5965 
   3   1.0000     -25.561857      -695.5735 
   4   1.0000     -25.556783      -695.4354 
   5   1.0000      -4.036624      -109.8421 
   6   1.0000      -4.036534      -109.8397 
   7   1.0000      -4.036306      -109.8335 
   8   1.0000      -4.036181      -109.8301 
   9   1.0000      -4.030318      -109.6705 
  10   1.0000      -4.030262      -109.6690 
  11   1.0000      -4.027819      -109.6025 
  12   1.0000      -4.027690      -109.5990 
  13   1.0000      -4.027275      -109.5877 
  14   1.0000      -4.027163      -109.5847 
  15   1.0000      -4.022964      -109.4704 
  16   1.0000      -4.022840      -109.4670 
  17   1.0000      -4.020341      -109.3990 
  18   1.0000      -4.019984      -109.3893 
  19   1.0000      -3.404608       -92.6441 
  20   1.0000      -2.253161       -61.3116 
  21   1.0000      -2.253050       -61.3086 
  22   1.0000      -2.251273       -61.2603 
  23   1.0000      -2.251152       -61.2570 
  24   1.0000      -2.250575       -61.2413 
  25   1.0000      -2.250510       -61.2395 
  26   1.0000      -2.248999       -61.1984 
  27   1.0000      -2.248957       -61.1972 
  28   1.0000      -2.247430       -61.1557 
  29   1.0000      -2.247367       -61.1540 
  30   1.0000      -2.246255       -61.1237 
  31   1.0000      -2.246154       -61.1209 
  32   1.0000      -2.245358       -61.0993 
  33   1.0000      -2.245086       -61.0919 
  34   1.0000      -2.243764       -61.0559 
  35   1.0000      -2.243555       -61.0502 
  36   1.0000      -2.242924       -61.0331 
  37   1.0000      -2.242808       -61.0299 
  38   1.0000      -2.242673       -61.0262 
  39   1.0000      -2.242394       -61.0186 
  40   1.0000      -2.241669       -60.9989 
  41   1.0000      -2.241310       -60.9891 
  42   1.0000      -2.241213       -60.9865 
  43   1.0000      -2.240777       -60.9746 
  44   1.0000      -2.238822       -60.9214 
  45   1.0000      -2.238774       -60.9201 
  46   1.0000      -2.238651       -60.9168 
  47   1.0000      -2.238615       -60.9158 
  48   1.0000      -2.238186       -60.9041 
  49   1.0000      -2.237859       -60.8953 
  50   1.0000      -2.237680       -60.8904 
  51   1.0000      -2.236809       -60.8667 
  52   1.0000      -2.236228       -60.8509 
  53   1.0000      -2.235737       -60.8375 
  54   1.0000      -2.235319       -60.8261 
  55   1.0000      -2.234236       -60.7966 
  56   1.0000      -2.233580       -60.7788 
  57   1.0000      -2.233155       -60.7672 
  58   1.0000      -2.232176       -60.7406 
  59   1.0000      -2.231689       -60.7274 
  60   1.0000      -2.231189       -60.7137 
  61   1.0000      -2.230879       -60.7053 
  62   1.0000      -2.222188       -60.4688 
  63   1.0000      -2.220887       -60.4334 
  64   1.0000      -2.210055       -60.1387 
  65   1.0000      -0.437887       -11.9155 
  66   1.0000      -0.390439       -10.6244 
  67   1.0000      -0.388886       -10.5821 
  68   1.0000      -0.383732       -10.4419 
  69   1.0000      -0.381652       -10.3853 
  70   1.0000      -0.375947       -10.2300 
  71   1.0000      -0.373993       -10.1769 
  72   1.0000      -0.373326       -10.1587 
  73   1.0000      -0.370725       -10.0879 
  74   1.0000      -0.367298        -9.9947 
  75   1.0000      -0.358688        -9.7604 
  76   1.0000      -0.356930        -9.7125 
  77   1.0000      -0.355977        -9.6866 
  78   1.0000      -0.354828        -9.6553 
  79   1.0000      -0.352847        -9.6015 
  80   1.0000      -0.350920        -9.5490 
  81   1.0000      -0.349458        -9.5092 
  82   1.0000      -0.348381        -9.4799 
  83   1.0000      -0.347677        -9.4608 
  84   1.0000      -0.344594        -9.3769 
  85   1.0000      -0.341169        -9.2837 
  86   1.0000      -0.339091        -9.2271 
  87   1.0000      -0.338948        -9.2233 
  88   1.0000      -0.338888        -9.2216 
  89   1.0000      -0.336269        -9.1503 
  90   1.0000      -0.335003        -9.1159 
  91   1.0000      -0.330620        -8.9966 
  92   1.0000      -0.326393        -8.8816 
  93   1.0000      -0.325640        -8.8611 
  94   1.0000      -0.322637        -8.7794 
  95   1.0000      -0.319401        -8.6913 
  96   1.0000      -0.317297        -8.6341 
  97   1.0000      -0.316874        -8.6226 
  98   1.0000      -0.315114        -8.5747 
  99   1.0000      -0.314008        -8.5446 
 100   1.0000      -0.310877        -8.4594 
 101   1.0000      -0.309743        -8.4285 
 102   1.0000      -0.300092        -8.1659 
 103   1.0000      -0.298696        -8.1279 
 104   1.0000      -0.296920        -8.0796 
 105   1.0000      -0.296211        -8.0603 
 106   1.0000      -0.293528        -7.9873 
 107   1.0000      -0.292053        -7.9472 
 108   1.0000      -0.289806        -7.8860 
 109   1.0000      -0.283164        -7.7053 
 110   1.0000      -0.280518        -7.6333 
 111   1.0000      -0.280226        -7.6253 
 112   1.0000      -0.276384        -7.5208 
 113   1.0000      -0.275511        -7.4970 
 114   1.0000      -0.274337        -7.4651 
 115   1.0000      -0.271985        -7.4011 
 116   1.0000      -0.271499        -7.3879 
 117   1.0000      -0.270384        -7.3575 
 118   1.0000      -0.268239        -7.2992 
 119   1.0000      -0.268228        -7.2989 
 120   1.0000      -0.266487        -7.2515 
 121   1.0000      -0.264701        -7.2029 
 122   1.0000      -0.264272        -7.1912 
 123   1.0000      -0.264087        -7.1862 
 124   1.0000      -0.261640        -7.1196 
 125   1.0000      -0.261027        -7.1029 
 126   1.0000      -0.260368        -7.0850 
 127   1.0000      -0.260295        -7.0830 
 128   1.0000      -0.259712        -7.0671 
 129   1.0000      -0.257455        -7.0057 
 130   1.0000      -0.256983        -6.9929 
 131   1.0000      -0.255758        -6.9595 
 132   1.0000      -0.254581        -6.9275 
 133   1.0000      -0.252874        -6.8811 
 134   1.0000      -0.252137        -6.8610 
 135   1.0000      -0.248631        -6.7656 
 136   1.0000      -0.248513        -6.7624 
 137   1.0000      -0.247683        -6.7398 
 138   1.0000      -0.243749        -6.6328 
 139   1.0000      -0.242701        -6.6042 
 140   1.0000      -0.242596        -6.6014 
 141   1.0000      -0.242171        -6.5898 
 142   1.0000      -0.240059        -6.5323 
 143   1.0000      -0.231125        -6.2892 
 144   1.0000      -0.212121        -5.7721 
 145   1.0000      -0.210464        -5.7270 
 146   1.0000      -0.202114        -5.4998 
 147   1.0000      -0.196223        -5.3395 
 148   0.0000      -0.193111        -5.2548 
 149   0.0000      -0.138910        -3.7799 
 150   0.0000      -0.127076        -3.4579 
 151   0.0000      -0.126486        -3.4419 
 152   0.0000      -0.123081        -3.3492 
 153   0.0000      -0.118690        -3.2297 
 154   0.0000      -0.114669        -3.1203 
 155   0.0000      -0.082333        -2.2404 
 156   0.0000      -0.078220        -2.1285 
 157   0.0000      -0.072779        -1.9804 
 158   0.0000      -0.067877        -1.8470 
 159   0.0000      -0.056111        -1.5269 
 160   0.0000      -0.033554        -0.9130 
 161   0.0000      -0.023020        -0.6264 
 162   0.0000      -0.020178        -0.5491 
 163   0.0000      -0.015896        -0.4326 
 164   0.0000      -0.015757        -0.4288 
 165   0.0000      -0.006039        -0.1643 
 166   0.0000      -0.003895        -0.1060 
 167   0.0000       0.009823         0.2673 
 168   0.0000       0.016139         0.4392 
 169   0.0000       0.018298         0.4979 
 170   0.0000       0.025747         0.7006 
 171   0.0000       0.035992         0.9794 
 172   0.0000       0.037398         1.0176 
 173   0.0000       0.046091         1.2542 
 174   0.0000       0.048861         1.3296 
 175   0.0000       0.060371         1.6428 
 176   0.0000       0.065137         1.7725 
 177   0.0000       0.065689         1.7875 
 178   0.0000       0.069622         1.8945 
 179   0.0000       0.072147         1.9632 
 180   0.0000       0.072246         1.9659 
 181   0.0000       0.078222         2.1285 
 182   0.0000       0.079093         2.1522 
 183   0.0000       0.082491         2.2447 
 184   0.0000       0.084251         2.2926 
 185   0.0000       0.088688         2.4133 
 186   0.0000       0.094004         2.5580 
 187   0.0000       0.107529         2.9260 
 188   0.0000       0.108489         2.9521 
 189   0.0000       0.111216         3.0264 
 190   0.0000       0.117148         3.1878 
 191   0.0000       0.127130         3.4594 
 192   0.0000       0.130647         3.5551 
 193   0.0000       0.143103         3.8940 
 194   0.0000       0.148686         4.0459 
 195   0.0000       0.153732         4.1833 
 196   0.0000       0.157645         4.2897 
 197   0.0000       0.160197         4.3592 
 198   0.0000       0.160751         4.3743 
 199   0.0000       0.162617         4.4250 
 200   0.0000       0.164587         4.4786 
 201   0.0000       0.167365         4.5542 
 202   0.0000       0.172099         4.6831 
 203   0.0000       0.172382         4.6908 
 204   0.0000       0.172726         4.7001 
 205   0.0000       0.187602         5.1049 
 206   0.0000       0.197049         5.3620 
 207   0.0000       0.198739         5.4080 
 208   0.0000       0.200621         5.4592 
 209   0.0000       0.211426         5.7532 
 210   0.0000       0.217843         5.9278 
 211   0.0000       0.225312         6.1311 
 212   0.0000       0.227675         6.1954 
 213   0.0000       0.229146         6.2354 
 214   0.0000       0.232999         6.3402 
 215   0.0000       0.234008         6.3677 
 216   0.0000       0.236265         6.4291 
 217   0.0000       0.242689         6.6039 
 218   0.0000       0.249518         6.7897 
 219   0.0000       0.253974         6.9110 
 220   0.0000       0.263032         7.1575 
 221   0.0000       0.269249         7.3267 
 222   0.0000       0.273697         7.4477 
 223   0.0000       0.274075         7.4580 
 224   0.0000       0.275204         7.4887 
 225   0.0000       0.281110         7.6494 
 226   0.0000       0.282729         7.6934 
 227   0.0000       0.285543         7.7700 
 228   0.0000       0.291753         7.9390 
 229   0.0000       0.293203         7.9785 
 230   0.0000       0.296202         8.0601 
 231   0.0000       0.296778         8.0758 
 232   0.0000       0.309577         8.4240 
 233   0.0000       0.316345         8.6082 
 234   0.0000       0.321948         8.7606 
 235   0.0000       0.325094         8.8463 
 236   0.0000       0.326729         8.8907 
 237   0.0000       0.340279         9.2595 
 238   0.0000       0.342657         9.3242 
 239   0.0000       0.348544         9.4844 
 240   0.0000       0.351985         9.5780 
 241   0.0000       0.352621         9.5953 
 242   0.0000       0.357221         9.7205 
 243   0.0000       0.362776         9.8716 
 244   0.0000       0.366512         9.9733 
 245   0.0000       0.368230        10.0201 
 246   0.0000       0.385136        10.4801 
 247   0.0000       0.394487        10.7345 
 248   0.0000       0.399696        10.8763 
 249   0.0000       0.400063        10.8863 
 250   0.0000       0.404326        11.0023 
 251   0.0000       0.412403        11.2220 
 252   0.0000       0.413352        11.2479 
 253   0.0000       0.415198        11.2981 
 254   0.0000       0.416104        11.3228 
 255   0.0000       0.423538        11.5250 
 256   0.0000       0.426408        11.6031 
 257   0.0000       0.432636        11.7726 
 258   0.0000       0.432867        11.7789 
 259   0.0000       0.440639        11.9904 
 260   0.0000       0.441385        12.0107 
 261   0.0000       0.443854        12.0779 
 262   0.0000       0.451423        12.2838 
 263   0.0000       0.455168        12.3858 
 264   0.0000       0.456472        12.4212 
 265   0.0000       0.464167        12.6306 
 266   0.0000       0.468421        12.7464 
 267   0.0000       0.474218        12.9041 
 268   0.0000       0.474745        12.9185 
 269   0.0000       0.475775        12.9465 
 270   0.0000       0.483137        13.1468 
 271   0.0000       0.486175        13.2295 
 272   0.0000       0.491842        13.3837 
 273   0.0000       0.493617        13.4320 
 274   0.0000       0.500518        13.6198 
 275   0.0000       0.503430        13.6990 
 276   0.0000       0.506727        13.7887 
 277   0.0000       0.510016        13.8782 
 278   0.0000       0.510130        13.8813 
 279   0.0000       0.518133        14.0991 
 280   0.0000       0.532430        14.4882 
 281   0.0000       0.536364        14.5952 
 282   0.0000       0.537673        14.6308 
 283   0.0000       0.538998        14.6669 
 284   0.0000       0.542433        14.7603 
 285   0.0000       0.543782        14.7971 
 286   0.0000       0.563730        15.3399 
 287   0.0000       0.580705        15.8018 
 288   0.0000       0.595437        16.2027 
 289   0.0000       0.619851        16.8670 
 290   0.0000       0.649819        17.6825 
 291   0.0000       0.668920        18.2022 
 292   0.0000       0.675240        18.3742 
 293   0.0000       0.690241        18.7824 
 294   0.0000       0.694242        18.8913 
 295   0.0000       0.696981        18.9658 
 296   0.0000       0.706558        19.2264 
 297   0.0000       0.707236        19.2449 
 298   0.0000       0.719104        19.5678 
 299   0.0000       0.720289        19.6001 
 300   0.0000       0.735189        20.0055 
 301   0.0000       0.747991        20.3539 
 302   0.0000       0.749985        20.4081 
 303   0.0000       0.763663        20.7803 
 304   0.0000       0.766222        20.8500 
 305   0.0000       0.771924        21.0051 
 306   0.0000       0.781122        21.2554 
 307   0.0000       0.782935        21.3048 
 308   0.0000       0.789678        21.4882 
 309   0.0000       0.792551        21.5664 
 310   0.0000       0.807757        21.9802 
 311   0.0000       0.815343        22.1866 
 312   0.0000       0.824852        22.4454 
 313   0.0000       0.828595        22.5472 
 314   0.0000       0.838428        22.8148 
 315   0.0000       0.839762        22.8511 
 316   0.0000       0.852462        23.1967 
 317   0.0000       0.855001        23.2658 
 318   0.0000       0.859122        23.3779 
 319   0.0000       0.872258        23.7353 
 320   0.0000       0.881891        23.9975 
 321   0.0000       0.895430        24.3659 
 322   0.0000       0.899330        24.4720 
 323   0.0000       0.902409        24.5558 
 324   0.0000       0.903345        24.5813 
 325   0.0000       0.916806        24.9476 
 326   0.0000       0.921991        25.0886 
 327   0.0000       0.926976        25.2243 
 328   0.0000       0.932510        25.3749 
 329   0.0000       0.981774        26.7154 
 330   0.0000       0.982160        26.7259 
 331   0.0000       1.013577        27.5808 
 332   0.0000       1.100704        29.9517 
 333   0.0000       1.110451        30.2169 
 334   0.0000       1.112636        30.2764 
 335   0.0000       1.213803        33.0293 
 336   0.0000       1.215672        33.0801 
 337   0.0000       1.222261        33.2594 
 338   0.0000       1.236473        33.6461 
 339   0.0000       1.241127        33.7728 
 340   0.0000       1.241375        33.7795 
 341   0.0000       1.261280        34.3212 
 342   0.0000       1.264099        34.3979 
 343   0.0000       1.265768        34.4433 
 344   0.0000       1.278081        34.7783 
 345   0.0000       1.295848        35.2618 
 346   0.0000       1.296774        35.2870 
 347   0.0000       1.306507        35.5519 
 348   0.0000       1.312276        35.7088 
 349   0.0000       1.322732        35.9934 
 350   0.0000       1.328909        36.1614 
 351   0.0000       1.332192        36.2508 
 352   0.0000       1.339002        36.4361 
 353   0.0000       1.340665        36.4813 
 354   0.0000       1.350225        36.7415 
 355   0.0000       1.350823        36.7578 
 356   0.0000       1.353140        36.8208 
 357   0.0000       1.358502        36.9667 
 358   0.0000       1.369086        37.2547 
 359   0.0000       1.374067        37.3903 
 360   0.0000       1.377768        37.4910 
 361   0.0000       1.396327        37.9960 
 362   0.0000       1.398404        38.0525 
 363   0.0000       1.401442        38.1352 
 364   0.0000       1.402979        38.1770 
 365   0.0000       1.410021        38.3686 
 366   0.0000       1.417826        38.5810 
 367   0.0000       1.419184        38.6180 
 368   0.0000       1.419498        38.6265 
 369   0.0000       1.424287        38.7568 
 370   0.0000       1.429014        38.8855 
 371   0.0000       1.430841        38.9352 
 372   0.0000       1.431755        38.9600 
 373   0.0000       1.436284        39.0833 
 374   0.0000       1.438190        39.1351 
 375   0.0000       1.442984        39.2656 
 376   0.0000       1.444533        39.3078 
 377   0.0000       1.450972        39.4830 
 378   0.0000       1.452110        39.5139 
 379   0.0000       1.453751        39.5586 
 380   0.0000       1.460537        39.7432 
 381   0.0000       1.463499        39.8238 
 382   0.0000       1.464503        39.8511 
 383   0.0000       1.467737        39.9392 
 384   0.0000       1.471910        40.0527 
 385   0.0000       1.479204        40.2512 
 386   0.0000       1.480165        40.2773 
 387   0.0000       1.480918        40.2978 
 388   0.0000       1.482435        40.3391 
 389   0.0000       1.485122        40.4122 
 390   0.0000       1.486840        40.4590 
 391   0.0000       1.487033        40.4642 
 392   0.0000       1.490099        40.5476 
 393   0.0000       1.490479        40.5580 
 394   0.0000       1.491533        40.5867 
 395   0.0000       1.492654        40.6172 
 396   0.0000       1.493233        40.6329 
 397   0.0000       1.493842        40.6495 
 398   0.0000       1.499242        40.7965 
 399   0.0000       1.499989        40.8168 
 400   0.0000       1.501718        40.8638 
 401   0.0000       1.504749        40.9463 
 402   0.0000       1.505003        40.9532 
 403   0.0000       1.506064        40.9821 
 404   0.0000       1.507730        41.0274 
 405   0.0000       1.508183        41.0397 
 406   0.0000       1.509400        41.0729 
 407   0.0000       1.509740        41.0821 
 408   0.0000       1.511227        41.1226 
 409   0.0000       1.514214        41.2038 
 410   0.0000       1.514761        41.2187 
 411   0.0000       1.516012        41.2528 
 412   0.0000       1.517235        41.2861 
 413   0.0000       1.519912        41.3589 
 414   0.0000       1.521314        41.3970 
 415   0.0000       1.523494        41.4564 
 416   0.0000       1.525028        41.4981 
 417   0.0000       1.526081        41.5268 
 418   0.0000       1.526559        41.5398 
 419   0.0000       1.526944        41.5503 
 420   0.0000       1.532356        41.6975 
 421   0.0000       1.533153        41.7192 
 422   0.0000       1.534639        41.7597 
 423   0.0000       1.535443        41.7815 
 424   0.0000       1.537761        41.8446 
 425   0.0000       1.545920        42.0666 
 426   0.0000       1.546392        42.0795 
 427   0.0000       1.552468        42.2448 
 428   0.0000       1.553708        42.2786 
 429   0.0000       1.556459        42.3534 
 430   0.0000       1.556636        42.3582 
 431   0.0000       1.560360        42.4596 
 432   0.0000       1.562893        42.5285 
 433   0.0000       1.562985        42.5310 
 434   0.0000       1.565101        42.5886 
 435   0.0000       1.569050        42.6960 
 436   0.0000       1.569775        42.7157 
 437   0.0000       1.573537        42.8181 
 438   0.0000       1.574567        42.8461 
 439   0.0000       1.574776        42.8518 
 440   0.0000       1.575660        42.8759 
 441   0.0000       1.576383        42.8956 
 442   0.0000       1.576634        42.9024 
 443   0.0000       1.585076        43.1321 
 444   0.0000       1.585903        43.1546 
 445   0.0000       1.586084        43.1595 
 446   0.0000       1.587834        43.2071 
 447   0.0000       1.590642        43.2836 
 448   0.0000       1.591302        43.3015 
 449   0.0000       1.596623        43.4463 
 450   0.0000       1.597883        43.4806 
 451   0.0000       1.600110        43.5412 
 452   0.0000       1.602783        43.6139 
 453   0.0000       1.606370        43.7115 
 454   0.0000       1.609503        43.7968 
 455   0.0000       1.610105        43.8132 
 456   0.0000       1.616837        43.9964 
 457   0.0000       1.620551        44.0974 
 458   0.0000       1.629673        44.3457 
 459   0.0000       1.631144        44.3857 
 460   0.0000       1.634263        44.4705 
 461   0.0000       1.635552        44.5056 
 462   0.0000       1.639576        44.6151 
 463   0.0000       1.640784        44.6480 
 464   0.0000       1.641443        44.6659 
 465   0.0000       1.645068        44.7646 
 466   0.0000       1.653958        45.0065 
 467   0.0000       1.655487        45.0481 
 468   0.0000       1.658481        45.1296 
 469   0.0000       1.658863        45.1400 
 470   0.0000       1.680318        45.7238 
 471   0.0000       1.683317        45.8054 
 472   0.0000       1.700755        46.2799 
 473   0.0000       1.711224        46.5648 
 474   0.0000       1.714213        46.6461 
 475   0.0000       1.722784        46.8793 
 476   0.0000       1.732803        47.1520 
 477   0.0000       1.736247        47.2457 
 478   0.0000       1.740532        47.3623 
 479   0.0000       1.753280        47.7092 
 480   0.0000       1.754934        47.7542 
 481   0.0000       1.759982        47.8915 
 482   0.0000       1.764552        48.0159 
 483   0.0000       1.768436        48.1216 
 484   0.0000       1.770365        48.1741 
 485   0.0000       1.784567        48.5605 
 486   0.0000       1.798123        48.9294 
 487   0.0000       1.799496        48.9668 
 488   0.0000       1.800248        48.9872 
 489   0.0000       1.809089        49.2278 
 490   0.0000       1.810823        49.2750 
 491   0.0000       1.812766        49.3279 
 492   0.0000       1.816957        49.4419 
 493   0.0000       1.838918        50.0395 
 494   0.0000       1.849507        50.3276 
 495   0.0000       1.851765        50.3891 
 496   0.0000       1.865122        50.7525 
 497   0.0000       1.867600        50.8200 
 498   0.0000       1.891866        51.4803 
 499   0.0000       1.915440        52.1218 
 500   0.0000       1.954902        53.1956 
 501   0.0000       1.957019        53.2532 
 502   0.0000       1.974748        53.7356 
 503   0.0000       2.072200        56.3874 
 504   0.0000       2.112662        57.4885 
 505   0.0000       2.128578        57.9216 
 506   0.0000       2.267788        61.7097 
 507   0.0000       2.278130        61.9911 
 508   0.0000       2.291664        62.3594 
 509   0.0000       2.372122        64.5487 
 510   0.0000       2.389870        65.0317 
 511   0.0000       2.406480        65.4837 
 512   0.0000       2.413399        65.6719 
 513   0.0000       2.426045        66.0160 
 514   0.0000       2.446605        66.5755 
 515   0.0000       2.447996        66.6134 
 516   0.0000       2.483604        67.5823 
 517   0.0000       2.494851        67.8883 
 518   0.0000       2.520264        68.5799 
 519   0.0000       2.525999        68.7359 
 520   0.0000       2.538219        69.0684 
 521   0.0000       2.558664        69.6248 
 522   0.0000       3.390023        92.2472 
 523   0.0000       3.557847        96.8139 
 524   0.0000       3.604642        98.0873 
 525   0.0000       3.694827       100.5413 
 526   0.0000       3.723129       101.3115 
 527   0.0000       3.787547       103.0644 
 528   0.0000       3.877395       105.5093 
 529   0.0000       3.878569       105.5412 
 530   0.0000       3.886141       105.7473 
 531   0.0000       3.887768       105.7915 
 532   0.0000       3.888509       105.8117 
 533   0.0000       3.893024       105.9346 
 534   0.0000       3.897250       106.0496 
 535   0.0000      24.025353       653.7631 
 536   0.0000      24.074789       655.1083 
 537   0.0000      24.079762       655.2436 
 538   0.0000      24.229059       659.3062 
 539   0.0000      24.454386       665.4377 
 540   0.0000      24.590902       669.1525 
 541   0.0000      24.725716       672.8209 
 542   0.0000      24.953465       679.0183 
 543   0.0000      25.035544       681.2518 
 544   0.0000      25.136110       683.9883 
 545   0.0000      25.192776       685.5303 
 546   0.0000      25.357766       690.0199 
 547   0.0000      25.448956       692.5013 
 548   0.0000      25.562749       695.5978 
 549   0.0000      25.591551       696.3815 
 550   0.0000      25.795441       701.9296 
 551   0.0000      25.830493       702.8834 
 552   0.0000      25.887255       704.4280 
 553   0.0000      25.949003       706.1083 
 554   0.0000      26.015535       707.9187 
 555   0.0000      26.106534       710.3949 
 556   0.0000      26.150779       711.5989 
 557   0.0000      26.157970       711.7945 
 558   0.0000      26.211558       713.2528 
 559   0.0000      26.460999       720.0404 
 560   0.0000      26.494674       720.9567 
 561   0.0000      26.513177       721.4602 
 562   0.0000      26.840185       730.3586 
 563   0.0000      27.036738       735.7070 
 564   0.0000      27.066640       736.5207 
 565   0.0000      27.188479       739.8361 
 566   0.0000      27.274345       742.1726 
 567   0.0000      27.303711       742.9717 
 568   0.0000      27.316676       743.3245 
 569   0.0000      27.482096       747.8259 
 570   0.0000      27.591267       750.7965 
 571   0.0000      28.064771       763.6812 
 572   0.0000      28.244896       768.5827 
 573   0.0000      28.351478       771.4829 
 574   0.0000      28.452240       774.2248 
 575   0.0000      30.396708       827.1365 
 576   0.0000      30.946472       842.0963 
 577   0.0000      43.897713      1194.5175 
 578   0.0000      44.025769      1198.0021 
 579   0.0000      44.030905      1198.1418 
 580   0.0000      44.067494      1199.1375 
 581   0.0000      44.112487      1200.3618 
 582   0.0000      44.125246      1200.7090 
 583   0.0000      44.127371      1200.7668 
 584   0.0000      44.149142      1201.3592 
 585   0.0000      44.152689      1201.4557 
 586   0.0000      44.167298      1201.8533 
 587   0.0000      44.171913      1201.9789 
 588   0.0000      44.206490      1202.9198 
 589   0.0000      44.249150      1204.0806 
 590   0.0000      44.252121      1204.1614 
 591   0.0000     205.085842      5580.6695 
 592   0.0000     205.138833      5582.1114 
 593   0.0000     205.142051      5582.1990 
 594   0.0000     205.154264      5582.5313 
 595   0.0000     205.179889      5583.2286 
 596   0.0000     205.182369      5583.2961 
 597   0.0000     205.185498      5583.3813 
 598   0.0000     205.193457      5583.5978 
 599   0.0000     205.194748      5583.6330 
 600   0.0000     205.199294      5583.7567 
 601   0.0000     205.204858      5583.9081 
 602   0.0000     205.210197      5584.0533 
 603   0.0000     205.232142      5584.6505 
 604   0.0000     205.235306      5584.7366 

                 SPIN DOWN ORBITALS
  NO   OCC          E(Eh)            E(eV) 
   0   1.0000    -254.784381     -6933.0355 
   1   1.0000     -29.563459      -804.4626 
   2   1.0000     -25.515008      -694.2987 
   3   1.0000     -25.513491      -694.2574 
   4   1.0000     -25.511949      -694.2154 
   5   1.0000      -4.036015      -109.8256 
   6   1.0000      -4.035915      -109.8228 
   7   1.0000      -4.035700      -109.8170 
   8   1.0000      -4.035567      -109.8134 
   9   1.0000      -4.030308      -109.6703 
  10   1.0000      -4.030193      -109.6671 
  11   1.0000      -4.027613      -109.5969 
  12   1.0000      -4.027494      -109.5937 
  13   1.0000      -4.027079      -109.5824 
  14   1.0000      -4.026971      -109.5794 
  15   1.0000      -4.022605      -109.4606 
  16   1.0000      -4.022480      -109.4573 
  17   1.0000      -4.020194      -109.3950 
  18   1.0000      -4.019836      -109.3853 
  19   1.0000      -3.264948       -88.8438 
  20   1.0000      -2.252200       -61.2855 
  21   1.0000      -2.252170       -61.2847 
  22   1.0000      -2.250155       -61.2298 
  23   1.0000      -2.250122       -61.2289 
  24   1.0000      -2.249888       -61.2226 
  25   1.0000      -2.249845       -61.2214 
  26   1.0000      -2.248575       -61.1868 
  27   1.0000      -2.248524       -61.1854 
  28   1.0000      -2.246911       -61.1416 
  29   1.0000      -2.246852       -61.1400 
  30   1.0000      -2.245794       -61.1112 
  31   1.0000      -2.245701       -61.1086 
  32   1.0000      -2.245037       -61.0906 
  33   1.0000      -2.244646       -61.0799 
  34   1.0000      -2.243460       -61.0476 
  35   1.0000      -2.242877       -61.0318 
  36   1.0000      -2.242778       -61.0291 
  37   1.0000      -2.242709       -61.0272 
  38   1.0000      -2.242572       -61.0235 
  39   1.0000      -2.242259       -61.0150 
  40   1.0000      -2.241320       -60.9894 
  41   1.0000      -2.241056       -60.9822 
  42   1.0000      -2.240849       -60.9766 
  43   1.0000      -2.240408       -60.9646 
  44   1.0000      -2.239048       -60.9276 
  45   1.0000      -2.238538       -60.9137 
  46   1.0000      -2.238496       -60.9126 
  47   1.0000      -2.238331       -60.9081 
  48   1.0000      -2.238264       -60.9063 
  49   1.0000      -2.237487       -60.8851 
  50   1.0000      -2.237416       -60.8832 
  51   1.0000      -2.236964       -60.8709 
  52   1.0000      -2.236368       -60.8547 
  53   1.0000      -2.235405       -60.8285 
  54   1.0000      -2.234838       -60.8130 
  55   1.0000      -2.233876       -60.7869 
  56   1.0000      -2.233236       -60.7695 
  57   1.0000      -2.233089       -60.7654 
  58   1.0000      -2.232209       -60.7415 
  59   1.0000      -2.231440       -60.7206 
  60   1.0000      -2.231027       -60.7093 
  61   1.0000      -2.230747       -60.7017 
  62   1.0000      -2.083527       -56.6957 
  63   1.0000      -2.080600       -56.6160 
  64   1.0000      -2.079022       -56.5731 
  65   1.0000      -0.433093       -11.7851 
  66   1.0000      -0.389240       -10.5918 
  67   1.0000      -0.386044       -10.5048 
  68   1.0000      -0.382395       -10.4055 
  69   1.0000      -0.370925       -10.0934 
  70   1.0000      -0.365650        -9.9498 
  71   1.0000      -0.364816        -9.9272 
  72   1.0000      -0.362760        -9.8712 
  73   1.0000      -0.362669        -9.8687 
  74   1.0000      -0.360601        -9.8124 
  75   1.0000      -0.356662        -9.7053 
  76   1.0000      -0.355560        -9.6753 
  77   1.0000      -0.354134        -9.6365 
  78   1.0000      -0.353898        -9.6301 
  79   1.0000      -0.352890        -9.6026 
  80   1.0000      -0.349586        -9.5127 
  81   1.0000      -0.348425        -9.4811 
  82   1.0000      -0.348026        -9.4703 
  83   1.0000      -0.346032        -9.4160 
  84   1.0000      -0.343916        -9.3584 
  85   1.0000      -0.338634        -9.2147 
  86   1.0000      -0.338522        -9.2117 
  87   1.0000      -0.338184        -9.2024 
  88   1.0000      -0.337332        -9.1793 
  89   1.0000      -0.334520        -9.1027 
  90   1.0000      -0.329647        -8.9702 
  91   1.0000      -0.325648        -8.8613 
  92   1.0000      -0.321609        -8.7514 
  93   1.0000      -0.318230        -8.6595 
  94   1.0000      -0.317374        -8.6362 
  95   1.0000      -0.316437        -8.6107 
  96   1.0000      -0.313339        -8.5264 
  97   1.0000      -0.313087        -8.5195 
  98   1.0000      -0.311017        -8.4632 
  99   1.0000      -0.310865        -8.4591 
 100   1.0000      -0.305072        -8.3014 
 101   1.0000      -0.297107        -8.0847 
 102   1.0000      -0.295227        -8.0335 
 103   1.0000      -0.294196        -8.0055 
 104   1.0000      -0.293923        -7.9981 
 105   1.0000      -0.292442        -7.9578 
 106   1.0000      -0.289775        -7.8852 
 107   1.0000      -0.287182        -7.8146 
 108   1.0000      -0.282071        -7.6755 
 109   1.0000      -0.279184        -7.5970 
 110   1.0000      -0.278354        -7.5744 
 111   1.0000      -0.275100        -7.4859 
 112   1.0000      -0.271208        -7.3800 
 113   1.0000      -0.271068        -7.3761 
 114   1.0000      -0.270584        -7.3630 
 115   1.0000      -0.267279        -7.2730 
 116   1.0000      -0.265938        -7.2365 
 117   1.0000      -0.265307        -7.2194 
 118   1.0000      -0.265069        -7.2129 
 119   1.0000      -0.263761        -7.1773 
 120   1.0000      -0.262807        -7.1513 
 121   1.0000      -0.261544        -7.1170 
 122   1.0000      -0.260629        -7.0921 
 123   1.0000      -0.260433        -7.0868 
 124   1.0000      -0.256983        -6.9929 
 125   1.0000      -0.256440        -6.9781 
 126   1.0000      -0.255856        -6.9622 
 127   1.0000      -0.254141        -6.9155 
 128   1.0000      -0.253057        -6.8860 
 129   1.0000      -0.252462        -6.8699 
 130   1.0000      -0.247828        -6.7438 
 131   1.0000      -0.247606        -6.7377 
 132   1.0000      -0.247001        -6.7212 
 133   1.0000      -0.243768        -6.6333 
 134   1.0000      -0.242352        -6.5947 
 135   1.0000      -0.241778        -6.5791 
 136   1.0000      -0.241650        -6.5756 
 137   1.0000      -0.239492        -6.5169 
 138   1.0000      -0.231387        -6.2964 
 139   1.0000      -0.218151        -5.9362 
 140   1.0000      -0.216337        -5.8868 
 141   1.0000      -0.211559        -5.7568 
 142   1.0000      -0.211160        -5.7460 
 143   1.0000      -0.204894        -5.5754 
 144   0.0000      -0.179535        -4.8854 
 145   0.0000      -0.176973        -4.8157 
 146   0.0000      -0.171855        -4.6764 
 147   0.0000      -0.169285        -4.6065 
 148   0.0000      -0.168661        -4.5895 
 149   0.0000      -0.130562        -3.5528 
 150   0.0000      -0.124541        -3.3889 
 151   0.0000      -0.123997        -3.3741 
 152   0.0000      -0.120362        -3.2752 
 153   0.0000      -0.117746        -3.2040 
 154   0.0000      -0.113524        -3.0892 
 155   0.0000      -0.078133        -2.1261 
 156   0.0000      -0.077966        -2.1216 
 157   0.0000      -0.068690        -1.8692 
 158   0.0000      -0.064189        -1.7467 
 159   0.0000      -0.053388        -1.4528 
 160   0.0000      -0.031143        -0.8474 
 161   0.0000      -0.020641        -0.5617 
 162   0.0000      -0.018413        -0.5010 
 163   0.0000      -0.011903        -0.3239 
 164   0.0000      -0.011015        -0.2997 
 165   0.0000      -0.001367        -0.0372 
 166   0.0000       0.001920         0.0523 
 167   0.0000       0.013296         0.3618 
 168   0.0000       0.019341         0.5263 
 169   0.0000       0.020250         0.5510 
 170   0.0000       0.030134         0.8200 
 171   0.0000       0.036748         1.0000 
 172   0.0000       0.040792         1.1100 
 173   0.0000       0.047967         1.3052 
 174   0.0000       0.050441         1.3726 
 175   0.0000       0.063467         1.7270 
 176   0.0000       0.068264         1.8576 
 177   0.0000       0.068369         1.8604 
 178   0.0000       0.072543         1.9740 
 179   0.0000       0.074062         2.0153 
 180   0.0000       0.074841         2.0365 
 181   0.0000       0.081220         2.2101 
 182   0.0000       0.082735         2.2513 
 183   0.0000       0.086469         2.3529 
 184   0.0000       0.087036         2.3684 
 185   0.0000       0.090680         2.4675 
 186   0.0000       0.095772         2.6061 
 187   0.0000       0.109498         2.9796 
 188   0.0000       0.110399         3.0041 
 189   0.0000       0.112795         3.0693 
 190   0.0000       0.123233         3.3534 
 191   0.0000       0.130396         3.5482 
 192   0.0000       0.134248         3.6531 
 193   0.0000       0.147478         4.0131 
 194   0.0000       0.156254         4.2519 
 195   0.0000       0.159050         4.3280 
 196   0.0000       0.160815         4.3760 
 197   0.0000       0.162286         4.4160 
 198   0.0000       0.165147         4.4939 
 199   0.0000       0.166738         4.5372 
 200   0.0000       0.167664         4.5624 
 201   0.0000       0.173244         4.7142 
 202   0.0000       0.173397         4.7184 
 203   0.0000       0.175319         4.7707 
 204   0.0000       0.179808         4.8928 
 205   0.0000       0.189819         5.1652 
 206   0.0000       0.199147         5.4191 
 207   0.0000       0.199317         5.4237 
 208   0.0000       0.203067         5.5257 
 209   0.0000       0.213385         5.8065 
 210   0.0000       0.221682         6.0323 
 211   0.0000       0.226076         6.1518 
 212   0.0000       0.229587         6.2474 
 213   0.0000       0.230589         6.2747 
 214   0.0000       0.234514         6.3814 
 215   0.0000       0.235218         6.4006 
 216   0.0000       0.238064         6.4780 
 217   0.0000       0.243838         6.6352 
 218   0.0000       0.251588         6.8461 
 219   0.0000       0.256039         6.9672 
 220   0.0000       0.264459         7.1963 
 221   0.0000       0.269872         7.3436 
 222   0.0000       0.275145         7.4871 
 223   0.0000       0.275264         7.4903 
 224   0.0000       0.276657         7.5282 
 225   0.0000       0.282078         7.6757 
 226   0.0000       0.283938         7.7264 
 227   0.0000       0.286725         7.8022 
 228   0.0000       0.295552         8.0424 
 229   0.0000       0.296572         8.0701 
 230   0.0000       0.297766         8.1026 
 231   0.0000       0.298354         8.1186 
 232   0.0000       0.311159         8.4671 
 233   0.0000       0.319637         8.6978 
 234   0.0000       0.325388         8.8543 
 235   0.0000       0.328095         8.9279 
 236   0.0000       0.328193         8.9306 
 237   0.0000       0.341123         9.2824 
 238   0.0000       0.344155         9.3649 
 239   0.0000       0.350251         9.5308 
 240   0.0000       0.353613         9.6223 
 241   0.0000       0.354688         9.6516 
 242   0.0000       0.358326         9.7505 
 243   0.0000       0.365430         9.9438 
 244   0.0000       0.366944         9.9851 
 245   0.0000       0.369570        10.0565 
 246   0.0000       0.388206        10.5636 
 247   0.0000       0.397364        10.8128 
 248   0.0000       0.402508        10.9528 
 249   0.0000       0.403734        10.9862 
 250   0.0000       0.408786        11.1236 
 251   0.0000       0.415343        11.3021 
 252   0.0000       0.416648        11.3376 
 253   0.0000       0.419334        11.4107 
 254   0.0000       0.420919        11.4538 
 255   0.0000       0.425640        11.5823 
 256   0.0000       0.428243        11.6531 
 257   0.0000       0.434722        11.8294 
 258   0.0000       0.438968        11.9449 
 259   0.0000       0.442873        12.0512 
 260   0.0000       0.443792        12.0762 
 261   0.0000       0.446431        12.1480 
 262   0.0000       0.452256        12.3065 
 263   0.0000       0.458183        12.4678 
 264   0.0000       0.460808        12.5392 
 265   0.0000       0.467697        12.7267 
 266   0.0000       0.471598        12.8328 
 267   0.0000       0.477146        12.9838 
 268   0.0000       0.477276        12.9873 
 269   0.0000       0.478420        13.0185 
 270   0.0000       0.483632        13.1603 
 271   0.0000       0.488746        13.2994 
 272   0.0000       0.492015        13.3884 
 273   0.0000       0.498901        13.5758 
 274   0.0000       0.505314        13.7503 
 275   0.0000       0.506964        13.7952 
 276   0.0000       0.509039        13.8517 
 277   0.0000       0.510188        13.8829 
 278   0.0000       0.511555        13.9201 
 279   0.0000       0.525563        14.3013 
 280   0.0000       0.536316        14.5939 
 281   0.0000       0.537466        14.6252 
 282   0.0000       0.539766        14.6878 
 283   0.0000       0.540745        14.7144 
 284   0.0000       0.546434        14.8692 
 285   0.0000       0.547333        14.8937 
 286   0.0000       0.565617        15.3912 
 287   0.0000       0.582191        15.8422 
 288   0.0000       0.597665        16.2633 
 289   0.0000       0.622113        16.9286 
 290   0.0000       0.655738        17.8435 
 291   0.0000       0.670321        18.2404 
 292   0.0000       0.676524        18.4091 
 293   0.0000       0.696281        18.9468 
 294   0.0000       0.699109        19.0237 
 295   0.0000       0.699919        19.0458 
 296   0.0000       0.711123        19.3506 
 297   0.0000       0.714462        19.4415 
 298   0.0000       0.724103        19.7039 
 299   0.0000       0.725335        19.7374 
 300   0.0000       0.737788        20.0762 
 301   0.0000       0.750001        20.4086 
 302   0.0000       0.756129        20.5753 
 303   0.0000       0.767028        20.8719 
 304   0.0000       0.767721        20.8907 
 305   0.0000       0.774666        21.0797 
 306   0.0000       0.783025        21.3072 
 307   0.0000       0.785280        21.3685 
 308   0.0000       0.791019        21.5247 
 309   0.0000       0.793445        21.5907 
 310   0.0000       0.811204        22.0740 
 311   0.0000       0.827294        22.5118 
 312   0.0000       0.829742        22.5784 
 313   0.0000       0.830602        22.6018 
 314   0.0000       0.840784        22.8789 
 315   0.0000       0.847649        23.0657 
 316   0.0000       0.852760        23.2048 
 317   0.0000       0.855766        23.2866 
 318   0.0000       0.861140        23.4328 
 319   0.0000       0.874036        23.7837 
 320   0.0000       0.884877        24.0787 
 321   0.0000       0.895390        24.3648 
 322   0.0000       0.902132        24.5482 
[...]
 215( 0) :     0.234007 a.u.     6.368 eV
 216( 0) :     0.236264 a.u.     6.429 eV
 217( 0) :     0.242688 a.u.     6.604 eV
 218( 0) :     0.249517 a.u.     6.790 eV
 219( 0) :     0.253974 a.u.     6.911 eV
 220( 0) :     0.263031 a.u.     7.157 eV
 221( 0) :     0.269249 a.u.     7.327 eV
 222( 0) :     0.273695 a.u.     7.448 eV
 223( 0) :     0.274073 a.u.     7.458 eV
 224( 0) :     0.275204 a.u.     7.489 eV
 225( 0) :     0.281109 a.u.     7.649 eV
 226( 0) :     0.282728 a.u.     7.693 eV
 227( 0) :     0.285543 a.u.     7.770 eV
 228( 0) :     0.291744 a.u.     7.939 eV
 229( 0) :     0.293201 a.u.     7.978 eV
 230( 0) :     0.296201 a.u.     8.060 eV
 231( 0) :     0.296776 a.u.     8.076 eV
 232( 0) :     0.309576 a.u.     8.424 eV
 233( 0) :     0.316342 a.u.     8.608 eV
 234( 0) :     0.321945 a.u.     8.761 eV
 235( 0) :     0.325092 a.u.     8.846 eV
 236( 0) :     0.326727 a.u.     8.891 eV
 237( 0) :     0.340278 a.u.     9.259 eV
 238( 0) :     0.342656 a.u.     9.324 eV
 239( 0) :     0.348544 a.u.     9.484 eV
 240( 0) :     0.351984 a.u.     9.578 eV
 241( 0) :     0.352620 a.u.     9.595 eV
 242( 0) :     0.357220 a.u.     9.720 eV
 243( 0) :     0.362775 a.u.     9.872 eV
 244( 0) :     0.366511 a.u.     9.973 eV
 245( 0) :     0.368228 a.u.    10.020 eV
 246( 0) :     0.385133 a.u.    10.480 eV
 247( 0) :     0.394485 a.u.    10.734 eV
 248( 0) :     0.399694 a.u.    10.876 eV
 249( 0) :     0.400059 a.u.    10.886 eV
 250( 0) :     0.404321 a.u.    11.002 eV
 251( 0) :     0.412395 a.u.    11.222 eV
 252( 0) :     0.413335 a.u.    11.247 eV
 253( 0) :     0.415198 a.u.    11.298 eV
 254( 0) :     0.416094 a.u.    11.322 eV
 255( 0) :     0.423536 a.u.    11.525 eV
 256( 0) :     0.426404 a.u.    11.603 eV
 257( 0) :     0.432633 a.u.    11.773 eV
 258( 0) :     0.432854 a.u.    11.779 eV
 259( 0) :     0.440636 a.u.    11.990 eV
 260( 0) :     0.441380 a.u.    12.011 eV
 261( 0) :     0.443849 a.u.    12.078 eV
 262( 0) :     0.451417 a.u.    12.284 eV
 263( 0) :     0.455164 a.u.    12.386 eV
 264( 0) :     0.456441 a.u.    12.420 eV
 265( 0) :     0.464157 a.u.    12.630 eV
 266( 0) :     0.468413 a.u.    12.746 eV
 267( 0) :     0.474214 a.u.    12.904 eV
 268( 0) :     0.474737 a.u.    12.918 eV
 269( 0) :     0.475773 a.u.    12.946 eV
 270( 0) :     0.483134 a.u.    13.147 eV
 271( 0) :     0.486171 a.u.    13.229 eV
 272( 0) :     0.491841 a.u.    13.384 eV
 273( 0) :     0.493599 a.u.    13.432 eV
 274( 0) :     0.500510 a.u.    13.620 eV
 275( 0) :     0.503427 a.u.    13.699 eV
 276( 0) :     0.506723 a.u.    13.789 eV
 277( 0) :     0.510015 a.u.    13.878 eV
 278( 0) :     0.510128 a.u.    13.881 eV
 279( 0) :     0.518119 a.u.    14.099 eV
 280( 0) :     0.532425 a.u.    14.488 eV
 281( 0) :     0.536363 a.u.    14.595 eV
 282( 0) :     0.537671 a.u.    14.631 eV
 283( 0) :     0.538997 a.u.    14.667 eV
 284( 0) :     0.542428 a.u.    14.760 eV
 285( 0) :     0.543778 a.u.    14.797 eV
 286( 0) :     0.563729 a.u.    15.340 eV
 287( 0) :     0.580703 a.u.    15.802 eV
 288( 0) :     0.595436 a.u.    16.203 eV
 289( 0) :     0.619851 a.u.    16.867 eV
 290( 0) :     0.649799 a.u.    17.682 eV
 291( 0) :     0.668918 a.u.    18.202 eV
 292( 0) :     0.675238 a.u.    18.374 eV
 293( 0) :     0.690229 a.u.    18.782 eV
 294( 0) :     0.694232 a.u.    18.891 eV
 295( 0) :     0.696979 a.u.    18.966 eV
 296( 0) :     0.706546 a.u.    19.226 eV
 297( 0) :     0.707232 a.u.    19.245 eV
 298( 0) :     0.719080 a.u.    19.567 eV
 299( 0) :     0.720276 a.u.    19.600 eV
 300( 0) :     0.735186 a.u.    20.005 eV
 301( 0) :     0.747984 a.u.    20.354 eV
 302( 0) :     0.749977 a.u.    20.408 eV
 303( 0) :     0.763661 a.u.    20.780 eV
 304( 0) :     0.766221 a.u.    20.850 eV
 305( 0) :     0.771920 a.u.    21.005 eV
 306( 0) :     0.781115 a.u.    21.255 eV
 307( 0) :     0.782933 a.u.    21.305 eV
 308( 0) :     0.789677 a.u.    21.488 eV
 309( 0) :     0.792550 a.u.    21.566 eV
 310( 0) :     0.807753 a.u.    21.980 eV
 311( 0) :     0.815331 a.u.    22.186 eV
 312( 0) :     0.824843 a.u.    22.445 eV
 313( 0) :     0.828594 a.u.    22.547 eV
 314( 0) :     0.838425 a.u.    22.815 eV
 315( 0) :     0.839759 a.u.    22.851 eV
 316( 0) :     0.852461 a.u.    23.197 eV
 317( 0) :     0.854999 a.u.    23.266 eV
 318( 0) :     0.859120 a.u.    23.378 eV
 319( 0) :     0.872257 a.u.    23.735 eV
 320( 0) :     0.881889 a.u.    23.997 eV
 321( 0) :     0.895429 a.u.    24.366 eV
 322( 0) :     0.899328 a.u.    24.472 eV
 323( 0) :     0.902404 a.u.    24.556 eV
 324( 0) :     0.903339 a.u.    24.581 eV
 325( 0) :     0.916804 a.u.    24.948 eV
 326( 0) :     0.921976 a.u.    25.088 eV
 327( 0) :     0.926976 a.u.    25.224 eV
 328( 0) :     0.932505 a.u.    25.375 eV
 329( 0) :     0.981773 a.u.    26.715 eV
 330( 0) :     0.982133 a.u.    26.725 eV
 331( 0) :     1.013574 a.u.    27.581 eV
 332( 0) :     1.100684 a.u.    29.951 eV
 333( 0) :     1.110449 a.u.    30.217 eV
 334( 0) :     1.112633 a.u.    30.276 eV
 335( 0) :     1.213802 a.u.    33.029 eV
 336( 0) :     1.215672 a.u.    33.080 eV
 337( 0) :     1.222261 a.u.    33.259 eV
 338( 0) :     1.236471 a.u.    33.646 eV
 339( 0) :     1.241127 a.u.    33.773 eV
 340( 0) :     1.241373 a.u.    33.779 eV
 341( 0) :     1.261279 a.u.    34.321 eV
 342( 0) :     1.264098 a.u.    34.398 eV
 343( 0) :     1.265768 a.u.    34.443 eV
 344( 0) :     1.278081 a.u.    34.778 eV
 345( 0) :     1.295847 a.u.    35.262 eV
 346( 0) :     1.296772 a.u.    35.287 eV
 347( 0) :     1.306507 a.u.    35.552 eV
 348( 0) :     1.312274 a.u.    35.709 eV
 349( 0) :     1.322732 a.u.    35.993 eV
 350( 0) :     1.328908 a.u.    36.161 eV
 351( 0) :     1.332189 a.u.    36.251 eV
 352( 0) :     1.339000 a.u.    36.436 eV
 353( 0) :     1.340665 a.u.    36.481 eV
 354( 0) :     1.350224 a.u.    36.741 eV
 355( 0) :     1.350821 a.u.    36.758 eV
 356( 0) :     1.353140 a.u.    36.821 eV
 357( 0) :     1.358499 a.u.    36.967 eV
 358( 0) :     1.369085 a.u.    37.255 eV
 359( 0) :     1.374060 a.u.    37.390 eV
 360( 0) :     1.377766 a.u.    37.491 eV
 361( 0) :     1.396323 a.u.    37.996 eV
 362( 0) :     1.398398 a.u.    38.052 eV
 363( 0) :     1.401441 a.u.    38.135 eV
 364( 0) :     1.402977 a.u.    38.177 eV
 365( 0) :     1.410021 a.u.    38.369 eV
 366( 0) :     1.417826 a.u.    38.581 eV
 367( 0) :     1.419184 a.u.    38.618 eV
 368( 0) :     1.419498 a.u.    38.626 eV
 369( 0) :     1.424287 a.u.    38.757 eV
 370( 0) :     1.429014 a.u.    38.885 eV
 371( 0) :     1.430841 a.u.    38.935 eV
 372( 0) :     1.431754 a.u.    38.960 eV
 373( 0) :     1.436284 a.u.    39.083 eV
 374( 0) :     1.438189 a.u.    39.135 eV
 375( 0) :     1.442982 a.u.    39.266 eV
 376( 0) :     1.444533 a.u.    39.308 eV
 377( 0) :     1.450972 a.u.    39.483 eV
 378( 0) :     1.452109 a.u.    39.514 eV
 379( 0) :     1.453750 a.u.    39.559 eV
 380( 0) :     1.460537 a.u.    39.743 eV
 381( 0) :     1.463498 a.u.    39.824 eV
 382( 0) :     1.464502 a.u.    39.851 eV
 383( 0) :     1.467737 a.u.    39.939 eV
 384( 0) :     1.471910 a.u.    40.053 eV
 385( 0) :     1.479204 a.u.    40.251 eV
 386( 0) :     1.480165 a.u.    40.277 eV
 387( 0) :     1.480916 a.u.    40.298 eV
 388( 0) :     1.482434 a.u.    40.339 eV
 389( 0) :     1.485122 a.u.    40.412 eV
 390( 0) :     1.486840 a.u.    40.459 eV
 391( 0) :     1.487033 a.u.    40.464 eV
 392( 0) :     1.490098 a.u.    40.548 eV
 393( 0) :     1.490479 a.u.    40.558 eV
 394( 0) :     1.491533 a.u.    40.587 eV
 395( 0) :     1.492654 a.u.    40.617 eV
 396( 0) :     1.493232 a.u.    40.633 eV
 397( 0) :     1.493842 a.u.    40.650 eV
 398( 0) :     1.499242 a.u.    40.796 eV
 399( 0) :     1.499989 a.u.    40.817 eV
 400( 0) :     1.501718 a.u.    40.864 eV
 401( 0) :     1.504749 a.u.    40.946 eV
 402( 0) :     1.505003 a.u.    40.953 eV
 403( 0) :     1.506063 a.u.    40.982 eV
 404( 0) :     1.507730 a.u.    41.027 eV
 405( 0) :     1.508183 a.u.    41.040 eV
 406( 0) :     1.509400 a.u.    41.073 eV
 407( 0) :     1.509739 a.u.    41.082 eV
 408( 0) :     1.511227 a.u.    41.123 eV
 409( 0) :     1.514214 a.u.    41.204 eV
 410( 0) :     1.514761 a.u.    41.219 eV
 411( 0) :     1.516012 a.u.    41.253 eV
 412( 0) :     1.517235 a.u.    41.286 eV
 413( 0) :     1.519912 a.u.    41.359 eV
 414( 0) :     1.521313 a.u.    41.397 eV
 415( 0) :     1.523494 a.u.    41.456 eV
 416( 0) :     1.525028 a.u.    41.498 eV
 417( 0) :     1.526081 a.u.    41.527 eV
 418( 0) :     1.526559 a.u.    41.540 eV
 419( 0) :     1.526944 a.u.    41.550 eV
 420( 0) :     1.532355 a.u.    41.698 eV
 421( 0) :     1.533151 a.u.    41.719 eV
 422( 0) :     1.534639 a.u.    41.760 eV
 423( 0) :     1.535443 a.u.    41.782 eV
 424( 0) :     1.537761 a.u.    41.845 eV
 425( 0) :     1.545920 a.u.    42.067 eV
 426( 0) :     1.546391 a.u.    42.079 eV
 427( 0) :     1.552468 a.u.    42.245 eV
 428( 0) :     1.553708 a.u.    42.279 eV
 429( 0) :     1.556458 a.u.    42.353 eV
 430( 0) :     1.556635 a.u.    42.358 eV
 431( 0) :     1.560360 a.u.    42.460 eV
 432( 0) :     1.562893 a.u.    42.528 eV
 433( 0) :     1.562985 a.u.    42.531 eV
 434( 0) :     1.565101 a.u.    42.589 eV
 435( 0) :     1.569050 a.u.    42.696 eV
 436( 0) :     1.569774 a.u.    42.716 eV
 437( 0) :     1.573536 a.u.    42.818 eV
 438( 0) :     1.574567 a.u.    42.846 eV
 439( 0) :     1.574776 a.u.    42.852 eV
 440( 0) :     1.575660 a.u.    42.876 eV
 441( 0) :     1.576382 a.u.    42.896 eV
 442( 0) :     1.576634 a.u.    42.902 eV
 443( 0) :     1.585076 a.u.    43.132 eV
 444( 0) :     1.585903 a.u.    43.155 eV
 445( 0) :     1.586084 a.u.    43.160 eV
 446( 0) :     1.587834 a.u.    43.207 eV
 447( 0) :     1.590642 a.u.    43.284 eV
 448( 0) :     1.591302 a.u.    43.302 eV
 449( 0) :     1.596623 a.u.    43.446 eV
 450( 0) :     1.597882 a.u.    43.481 eV
 451( 0) :     1.600110 a.u.    43.541 eV
 452( 0) :     1.602783 a.u.    43.614 eV
 453( 0) :     1.606369 a.u.    43.712 eV
 454( 0) :     1.609503 a.u.    43.797 eV
 455( 0) :     1.610104 a.u.    43.813 eV
 456( 0) :     1.616837 a.u.    43.996 eV
 457( 0) :     1.620551 a.u.    44.097 eV
 458( 0) :     1.629672 a.u.    44.346 eV
 459( 0) :     1.631143 a.u.    44.386 eV
 460( 0) :     1.634262 a.u.    44.471 eV
 461( 0) :     1.635552 a.u.    44.506 eV
 462( 0) :     1.639576 a.u.    44.615 eV
 463( 0) :     1.640784 a.u.    44.648 eV
 464( 0) :     1.641443 a.u.    44.666 eV
 465( 0) :     1.645066 a.u.    44.765 eV
 466( 0) :     1.653958 a.u.    45.006 eV
 467( 0) :     1.655487 a.u.    45.048 eV
 468( 0) :     1.658480 a.u.    45.130 eV
 469( 0) :     1.658863 a.u.    45.140 eV
 470( 0) :     1.680318 a.u.    45.724 eV
 471( 0) :     1.683317 a.u.    45.805 eV
 472( 0) :     1.700754 a.u.    46.280 eV
 473( 0) :     1.711221 a.u.    46.565 eV
 474( 0) :     1.714212 a.u.    46.646 eV
 475( 0) :     1.722783 a.u.    46.879 eV
 476( 0) :     1.732802 a.u.    47.152 eV
 477( 0) :     1.736245 a.u.    47.246 eV
 478( 0) :     1.740532 a.u.    47.362 eV
 479( 0) :     1.753280 a.u.    47.709 eV
 480( 0) :     1.754932 a.u.    47.754 eV
 481( 0) :     1.759981 a.u.    47.892 eV
 482( 0) :     1.764551 a.u.    48.016 eV
 483( 0) :     1.768435 a.u.    48.122 eV
 484( 0) :     1.770365 a.u.    48.174 eV
 485( 0) :     1.784566 a.u.    48.561 eV
 486( 0) :     1.798123 a.u.    48.929 eV
 487( 0) :     1.799496 a.u.    48.967 eV
 488( 0) :     1.800247 a.u.    48.987 eV
 489( 0) :     1.809089 a.u.    49.228 eV
 490( 0) :     1.810822 a.u.    49.275 eV
 491( 0) :     1.812764 a.u.    49.328 eV
 492( 0) :     1.816957 a.u.    49.442 eV
 493( 0) :     1.838918 a.u.    50.040 eV
 494( 0) :     1.849506 a.u.    50.328 eV
 495( 0) :     1.851765 a.u.    50.389 eV
 496( 0) :     1.865120 a.u.    50.752 eV
 497( 0) :     1.867600 a.u.    50.820 eV
 498( 0) :     1.891866 a.u.    51.480 eV
 499( 0) :     1.915440 a.u.    52.122 eV
 500( 0) :     1.954902 a.u.    53.196 eV
 501( 0) :     1.957019 a.u.    53.253 eV
 502( 0) :     1.974746 a.u.    53.736 eV
 503( 0) :     2.072198 a.u.    56.387 eV
 504( 0) :     2.112662 a.u.    57.488 eV
 505( 0) :     2.128574 a.u.    57.921 eV
 506( 0) :     2.267787 a.u.    61.710 eV
 507( 0) :     2.278128 a.u.    61.991 eV
 508( 0) :     2.291659 a.u.    62.359 eV
 509( 0) :     2.372114 a.u.    64.549 eV
 510( 0) :     2.389861 a.u.    65.031 eV
 511( 0) :     2.406478 a.u.    65.484 eV
 512( 0) :     2.413398 a.u.    65.672 eV
 513( 0) :     2.426044 a.u.    66.016 eV
 514( 0) :     2.446597 a.u.    66.575 eV
 515( 0) :     2.447995 a.u.    66.613 eV
 516( 0) :     2.483604 a.u.    67.582 eV
 517( 0) :     2.494851 a.u.    67.888 eV
 518( 0) :     2.520262 a.u.    68.580 eV
 519( 0) :     2.525996 a.u.    68.736 eV
 520( 0) :     2.538219 a.u.    69.068 eV
 521( 0) :     2.558662 a.u.    69.625 eV
 522( 0) :     3.390008 a.u.    92.247 eV
 523( 0) :     3.557846 a.u.    96.814 eV
 524( 0) :     3.604641 a.u.    98.087 eV
 525( 0) :     3.694826 a.u.   100.541 eV
 526( 0) :     3.723129 a.u.   101.311 eV
 527( 0) :     3.787546 a.u.   103.064 eV
 528( 0) :     3.877395 a.u.   105.509 eV
 529( 0) :     3.878569 a.u.   105.541 eV
 530( 0) :     3.886140 a.u.   105.747 eV
 531( 0) :     3.887768 a.u.   105.792 eV
 532( 0) :     3.888508 a.u.   105.812 eV
 533( 0) :     3.893022 a.u.   105.935 eV
 534( 0) :     3.897245 a.u.   106.049 eV
 535( 0) :    24.025353 a.u.   653.763 eV
 536( 0) :    24.074789 a.u.   655.108 eV
 537( 0) :    24.079762 a.u.   655.244 eV
 538( 0) :    24.229059 a.u.   659.306 eV
 539( 0) :    24.454386 a.u.   665.438 eV
 540( 0) :    24.590902 a.u.   669.152 eV
 541( 0) :    24.725716 a.u.   672.821 eV
 542( 0) :    24.953465 a.u.   679.018 eV
 543( 0) :    25.035544 a.u.   681.252 eV
 544( 0) :    25.136110 a.u.   683.988 eV
 545( 0) :    25.192776 a.u.   685.530 eV
 546( 0) :    25.357766 a.u.   690.020 eV
 547( 0) :    25.448956 a.u.   692.501 eV
 548( 0) :    25.562749 a.u.   695.598 eV
 549( 0) :    25.591551 a.u.   696.381 eV
 550( 0) :    25.795441 a.u.   701.930 eV
 551( 0) :    25.830493 a.u.   702.883 eV
 552( 0) :    25.887255 a.u.   704.428 eV
 553( 0) :    25.949003 a.u.   706.108 eV
 554( 0) :    26.015535 a.u.   707.919 eV
 555( 0) :    26.106534 a.u.   710.395 eV
 556( 0) :    26.150779 a.u.   711.599 eV
 557( 0) :    26.157970 a.u.   711.795 eV
 558( 0) :    26.211558 a.u.   713.253 eV
 559( 0) :    26.460999 a.u.   720.040 eV
 560( 0) :    26.494674 a.u.   720.957 eV
 561( 0) :    26.513177 a.u.   721.460 eV
 562( 0) :    26.840185 a.u.   730.359 eV
 563( 0) :    27.036738 a.u.   735.707 eV
 564( 0) :    27.066640 a.u.   736.521 eV
 565( 0) :    27.188479 a.u.   739.836 eV
 566( 0) :    27.274345 a.u.   742.173 eV
 567( 0) :    27.303711 a.u.   742.972 eV
 568( 0) :    27.316676 a.u.   743.325 eV
 569( 0) :    27.482096 a.u.   747.826 eV
 570( 0) :    27.591267 a.u.   750.797 eV
 571( 0) :    28.064771 a.u.   763.681 eV
 572( 0) :    28.244896 a.u.   768.583 eV
 573( 0) :    28.351478 a.u.   771.483 eV
 574( 0) :    28.452240 a.u.   774.225 eV
 575( 0) :    30.396708 a.u.   827.136 eV
 576( 0) :    30.946472 a.u.   842.096 eV
 577( 0) :    43.897713 a.u.  1194.517 eV
 578( 0) :    44.025769 a.u.  1198.002 eV
 579( 0) :    44.030905 a.u.  1198.142 eV
 580( 0) :    44.067494 a.u.  1199.137 eV
 581( 0) :    44.112487 a.u.  1200.362 eV
 582( 0) :    44.125246 a.u.  1200.709 eV
 583( 0) :    44.127371 a.u.  1200.767 eV
 584( 0) :    44.149142 a.u.  1201.359 eV
 585( 0) :    44.152689 a.u.  1201.456 eV
 586( 0) :    44.167298 a.u.  1201.853 eV
 587( 0) :    44.171913 a.u.  1201.979 eV
 588( 0) :    44.206490 a.u.  1202.920 eV
 589( 0) :    44.249150 a.u.  1204.081 eV
 590( 0) :    44.252121 a.u.  1204.161 eV
 591( 0) :   205.085842 a.u.  5580.669 eV
 592( 0) :   205.138833 a.u.  5582.111 eV
 593( 0) :   205.142051 a.u.  5582.199 eV
 594( 0) :   205.154264 a.u.  5582.531 eV
 595( 0) :   205.179889 a.u.  5583.229 eV
 596( 0) :   205.182369 a.u.  5583.296 eV
 597( 0) :   205.185498 a.u.  5583.381 eV
 598( 0) :   205.193457 a.u.  5583.598 eV
 599( 0) :   205.194748 a.u.  5583.633 eV
 600( 0) :   205.199294 a.u.  5583.757 eV
 601( 0) :   205.204858 a.u.  5583.908 eV
 602( 0) :   205.210197 a.u.  5584.053 eV
 603( 0) :   205.232142 a.u.  5584.650 eV
 604( 0) :   205.235306 a.u.  5584.737 eV
-------
TIMINGS
-------

Total SCF time: 0 days 0 hours 3 min 0 sec 

Total time                  ....     180.769 sec
Sum of individual times     ....     176.491 sec  ( 97.6%)

Fock matrix formation       ....     141.581 sec  ( 78.3%)
  Split-RI-J                ....      54.344 sec  ( 38.4% of F)
  XC integration            ....      86.264 sec  ( 60.9% of F)
    Basis function eval.    ....       5.187 sec  (  6.0% of XC)
    Density eval.           ....      23.964 sec  ( 27.8% of XC)
    XC-Functional eval.     ....       0.372 sec  (  0.4% of XC)
    XC-Potential eval.      ....      24.464 sec  ( 28.4% of XC)
Diagonalization             ....       7.907 sec  (  4.4%)
Density matrix formation    ....       1.146 sec  (  0.6%)
Population analysis         ....       9.434 sec  (  5.2%)
Initial guess               ....       2.268 sec  (  1.3%)
Orbital Transformation      ....       7.765 sec  (  4.3%)
Orbital Orthonormalization  ....       0.000 sec  (  0.0%)
DIIS solution               ....       3.284 sec  (  1.8%)
Grid generation             ....       3.080 sec  (  1.7%)

Maximum memory used throughout the entire SCF-calculation: 104.2 MB

-------------------------   --------------------
FINAL SINGLE POINT ENERGY     -3165.069244567651
-------------------------   --------------------


                            ***************************************
                            *     ORCA property calculations      *
                            ***************************************

                                    ---------------------
                                    Active property flags
                                    ---------------------
   (+) Dipole Moment


------------------------------------------------------------------------------
                       ORCA ELECTRIC PROPERTIES CALCULATION
------------------------------------------------------------------------------

Dipole Moment Calculation                       ... on
Quadrupole Moment Calculation                   ... off
Polarizability Calculation                      ... off
GBWName                                         ... pbeQRO.gbw
Electron density                                ... pbeQRO.scfp
The origin for moment calculation is the CENTER OF MASS  = (14.864727, 15.649418 13.414363)

-------------
DIPOLE MOMENT
-------------
                                X             Y             Z
Electronic contribution:      1.99842      15.99270      -1.40018
Nuclear contribution   :     -2.04465     -16.27437       1.42392
                        -----------------------------------------
Total Dipole Moment    :     -0.04623      -0.28167       0.02374
                        -----------------------------------------
Magnitude (a.u.)       :      0.28642
Magnitude (Debye)      :      0.72803



--------------------
Rotational spectrum 
--------------------
 
Rotational constants in cm-1:     0.001148     0.001112     0.000948 
Rotational constants in MHz :    34.412688    33.337662    28.418928 

 Dipole components along the rotational axes: 
x,y,z [a.u.] :    -0.285520     0.022693     0.000481 
x,y,z [Debye]:    -0.725735     0.057682     0.001223 

 

Timings for individual modules:

Sum of individual times         ...      205.877 sec (=   3.431 min)
GTO integral calculation        ...       24.780 sec (=   0.413 min)  12.0 %
SCF iterations                  ...      181.098 sec (=   3.018 min)  88.0 %
                             ****ORCA TERMINATED NORMALLY****
TOTAL RUN TIME: 0 days 0 hours 3 minutes 27 seconds 127 msec
