
                                 *****************
                                 * O   R   C   A *
                                 *****************

                                            #,                                       
                                            ###                                      
                                            ####                                     
                                            #####                                    
                                            ######                                   
                                           ########,                                 
                                     ,,################,,,,,                         
                               ,,#################################,,                 
                          ,,##########################################,,             
                       ,#########################################, ''#####,          
                    ,#############################################,,   '####,        
                  ,##################################################,,,,####,       
                ,###########''''           ''''###############################       
              ,#####''   ,,,,##########,,,,          '''####'''          '####       
            ,##' ,,,,###########################,,,                        '##       
           ' ,,###''''                  '''############,,,                           
         ,,##''                                '''############,,,,        ,,,,,,###''
      ,#''                                            '''#######################'''  
     '                                                          ''''####''''         
             ,#######,   #######,   ,#######,      ##                                
            ,#'     '#,  ##    ##  ,#'     '#,    #''#        ######   ,####,        
            ##       ##  ##   ,#'  ##            #'  '#       #        #'  '#        
            ##       ##  #######   ##           ,######,      #####,   #    #        
            '#,     ,#'  ##    ##  '#,     ,#' ,#      #,         ##   #,  ,#        
             '#######'   ##     ##  '#######'  #'      '#     #####' # '####'        



                  #######################################################
                  #                        -***-                        #
                  #          Department of theory and spectroscopy      #
                  #    Directorship and core code : Frank Neese         #
                  #        Max Planck Institute fuer Kohlenforschung    #
                  #                Kaiser Wilhelm Platz 1               #
                  #                 D-45470 Muelheim/Ruhr               #
                  #                      Germany                        #
                  #                                                     #
                  #                  All rights reserved                #
                  #                        -***-                        #
                  #######################################################


                         Program Version 5.0.3 -  RELEASE  -


 With contributions from (in alphabetic order):
   Daniel Aravena         : Magnetic Suceptibility
   Michael Atanasov       : Ab Initio Ligand Field Theory (pilot matlab implementation)
   Alexander A. Auer      : GIAO ZORA, VPT2 properties, NMR spectrum
   Ute Becker             : Parallelization
   Giovanni Bistoni       : ED, misc. LED, open-shell LED, HFLD
   Martin Brehm           : Molecular dynamics
   Dmytro Bykov           : SCF Hessian
   Vijay G. Chilkuri      : MRCI spin determinant printing, contributions to CSF-ICE
   Dipayan Datta          : RHF DLPNO-CCSD density
   Achintya Kumar Dutta   : EOM-CC, STEOM-CC
   Dmitry Ganyushin       : Spin-Orbit,Spin-Spin,Magnetic field MRCI
   Miquel Garcia          : C-PCM and meta-GGA Hessian, CC/C-PCM, Gaussian charge scheme
   Yang Guo               : DLPNO-NEVPT2, F12-NEVPT2, CIM, IAO-localization
   Andreas Hansen         : Spin unrestricted coupled pair/coupled cluster methods
   Benjamin Helmich-Paris : MC-RPA, TRAH-SCF, COSX integrals
   Lee Huntington         : MR-EOM, pCC
   Robert Izsak           : Overlap fitted RIJCOSX, COSX-SCS-MP3, EOM
   Marcus Kettner         : VPT2
   Christian Kollmar      : KDIIS, OOCD, Brueckner-CCSD(T), CCSD density, CASPT2, CASPT2-K
   Simone Kossmann        : Meta GGA functionals, TD-DFT gradient, OOMP2, MP2 Hessian
   Martin Krupicka        : Initial AUTO-CI
   Lucas Lang             : DCDCAS
   Marvin Lechner         : AUTO-CI (C++ implementation), FIC-MRCC
   Dagmar Lenk            : GEPOL surface, SMD
   Dimitrios Liakos       : Extrapolation schemes; Compound Job, initial MDCI parallelization
   Dimitrios Manganas     : Further ROCIS development; embedding schemes
   Dimitrios Pantazis     : SARC Basis sets
   Anastasios Papadopoulos: AUTO-CI, single reference methods and gradients
   Taras Petrenko         : DFT Hessian,TD-DFT gradient, ASA, ECA, R-Raman, ABS, FL, XAS/XES, NRVS
   Peter Pinski           : DLPNO-MP2, DLPNO-MP2 Gradient
   Christoph Reimann      : Effective Core Potentials
   Marius Retegan         : Local ZFS, SOC
   Christoph Riplinger    : Optimizer, TS searches, QM/MM, DLPNO-CCSD(T), (RO)-DLPNO pert. Triples
   Tobias Risthaus        : Range-separated hybrids, TD-DFT gradient, RPA, STAB
   Michael Roemelt        : Original ROCIS implementation
   Masaaki Saitow         : Open-shell DLPNO-CCSD energy and density
   Barbara Sandhoefer     : DKH picture change effects
   Avijit Sen             : IP-ROCIS
   Kantharuban Sivalingam : CASSCF convergence, NEVPT2, FIC-MRCI
   Bernardo de Souza      : ESD, SOC TD-DFT
   Georgi Stoychev        : AutoAux, RI-MP2 NMR, DLPNO-MP2 response
   Willem Van den Heuvel  : Paramagnetic NMR
   Boris Wezisla          : Elementary symmetry handling
   Frank Wennmohs         : Technical directorship


 We gratefully acknowledge several colleagues who have allowed us to
 interface, adapt or use parts of their codes:
   Stefan Grimme, W. Hujo, H. Kruse, P. Pracht,  : VdW corrections, initial TS optimization,
                  C. Bannwarth, S. Ehlert          DFT functionals, gCP, sTDA/sTD-DF
   Ed Valeev, F. Pavosevic, A. Kumar             : LibInt (2-el integral package), F12 methods
   Garnet Chan, S. Sharma, J. Yang, R. Olivares  : DMRG
   Ulf Ekstrom                                   : XCFun DFT Library
   Mihaly Kallay                                 : mrcc  (arbitrary order and MRCC methods)
   Jiri Pittner, Ondrej Demel                    : Mk-CCSD
   Frank Weinhold                                : gennbo (NPA and NBO analysis)
   Christopher J. Cramer and Donald G. Truhlar   : smd solvation model
   Lars Goerigk                                  : TD-DFT with DH, B97 family of functionals
   V. Asgeirsson, H. Jonsson                     : NEB implementation
   FAccTs GmbH                                   : IRC, NEB, NEB-TS, DLPNO-Multilevel, CI-OPT
                                                   MM, QMMM, 2- and 3-layer-ONIOM, Crystal-QMMM,
                                                   LR-CPCM, SF, NACMEs, symmetry and pop. for TD-DFT,
                                                   nearIR, NL-DFT gradient (VV10), updates on ESD,
                                                   ML-optimized integration grids
   S Lehtola, MJT Oliveira, MAL Marques          : LibXC Library
   Liviu Ungur et al                             : ANISO software


 Your calculation uses the libint2 library for the computation of 2-el integrals
 For citations please refer to: http://libint.valeyev.net

 Your ORCA version has been built with support for libXC version: 5.1.0
 For citations please refer to: https://tddft.org/programs/libxc/

 This ORCA versions uses:
   CBLAS   interface :  Fast vector & matrix operations
   LAPACKE interface :  Fast linear algebra routines
   SCALAPACK package :  Parallel linear algebra routines
   Shared memory     :  Shared parallel matrices
   BLAS/LAPACK       :  OpenBLAS 0.3.15  USE64BITINT DYNAMIC_ARCH NO_AFFINITY Sandybridge SINGLE_THREADED
        Core in use  :  Sandybridge
   Copyright (c) 2011-2014, The OpenBLAS Project




***************************************
The coordinates will be read from file: 6.xyz
***************************************


================================================================================

cite the ECPs for Au [Def2-ECP] as follows:
Ce-Yb(ecp-28): M. Dolg, H. Stoll, H.Preuss, J. Chem. Phys., 1989, 90, 1730-1734.
Y-Cd(ecp-28), Hf-Hg(ecp-46): D. Andrae,U. Haeussermann, M. Dolg, H. Stoll, H. Preuss, Theor. Chim. Acta, 1990, 77, 123-141.
In-Sb(ecp-28), Tl-Bi(ecp-46): B. Metz, H. Stoll, M. Dolg, J. Chem. Phys., 2000, 113, 2563-2569.
Te-Xe(ecp-28), Po-Rn(ecp-46): K. A. Peterson, D. Figgen, E. Goll, H. Stoll, M. Dolg, J. Chem. Phys., 2003, 119, 11113-11123.
Rb(ecp-28), Cs(ecp-46): T. Leininger, A. Nicklass, W. Kuechle, H. Stoll, M. Dolg, A. Bergner, Chem. Phys. Lett., 1996, 255, 274-280.
Sr(ecp-28), Ba(ecp-46): M. Kaupp, P. V. Schleyer, H. Stoll and H. Preuss, J. Chem. Phys., 1991, 94, 1360-1366.
La(ecp-46): M. Dolg, H. Stoll, A. Savin, H. Preuss, Theor. Chim. Acta, 1989, 75, 173-194.
Lu(ecp-28): X. Cao, M. Dolg, J. Chem. Phys., 2001, 115, 7348-7355.

ECP parameters for Au [Def2-ECP] have been obtained from:
TURBOMOLE (7.0.2)

----- Orbital basis set information -----
Your calculation utilizes the basis: def2-TZVP
   F. Weigend and R. Ahlrichs, Phys. Chem. Chem. Phys. 7, 3297 (2005).

----- AuxJ basis set information -----
Your calculation utilizes the auxiliary basis: def2/J
   F. Weigend, Phys. Chem. Chem. Phys. 8, 1057 (2006).

================================================================================
                                        WARNINGS
                       Please study these warnings very carefully!
================================================================================


WARNING: your system is open-shell and RHF/RKS was chosen
  ===> : WILL SWITCH to UHF/UKS


WARNING: Geometry Optimization
  ===> : Switching off AutoStart
         For restart on a previous wavefunction, please use MOREAD

INFO   : the flag for use of the SHARK integral package has been found!

================================================================================
                                       INPUT FILE
================================================================================
NAME = pbe.inp
|  1> %pal nprocs 1 end 
|  2> 
|  3> !PBE def2-TZVP OPT UNO
|  4> !SLOWCONV KDIIS 
|  5> 
|  6> %geom maxiter 300 end
|  7> 
|  8> *xyzfile 0 4 6.xyz                           ****END OF INPUT****
================================================================================

                       *****************************
                       * Geometry Optimization Run *
                       *****************************

Geometry optimization settings:
Update method            Update   .... BFGS
Choice of coordinates    CoordSys .... Z-matrix Internals
Initial Hessian          InHess   .... Almoef's Model

Convergence Tolerances:
Energy Change            TolE     ....  5.0000e-06 Eh
Max. Gradient            TolMAXG  ....  3.0000e-04 Eh/bohr
RMS Gradient             TolRMSG  ....  1.0000e-04 Eh/bohr
Max. Displacement        TolMAXD  ....  4.0000e-03 bohr
RMS Displacement         TolRMSD  ....  2.0000e-03 bohr
Strict Convergence                ....  False
------------------------------------------------------------------------------
                        ORCA OPTIMIZATION COORDINATE SETUP
------------------------------------------------------------------------------

The optimization will be done in new redundant internal coordinates
Making redundant internal coordinates   ...  (new redundants) done
Evaluating the initial hessian          ...  (Almloef) done
Evaluating the coordinates              ...  done
Calculating the B-matrix                .... done
Calculating the G-matrix                .... done
Diagonalizing the G-matrix              .... done
The first mode is                       ....  633
The number of degrees of freedom        ....   45

    -----------------------------------------------------------------
                    Redundant Internal Coordinates


    -----------------------------------------------------------------
         Definition                    Initial Value    Approx d2E/dq
    -----------------------------------------------------------------
      1. B(Au  1,Au  0)                  2.7895         0.007081   
      2. B(Au  2,Au  0)                  2.8380         0.005925   
      3. B(Au  2,Au  1)                  2.8044         0.006705   
      4. B(Au  3,Au  1)                  2.8173         0.006393   
      5. B(Au  4,Au  1)                  2.8959         0.004791   
      6. B(Au  4,Au  3)                  2.9174         0.004426   
      7. B(Au  5,Au  3)                  2.7686         0.007647   
      8. B(Au  5,Au  2)                  2.9496         0.003933   
      9. B(Au  5,Au  1)                  2.8190         0.006354   
     10. B(Au  6,Au  5)                  2.9772         0.003554   
     11. B(Au  6,Au  3)                  2.8095         0.006579   
     12. B(Au  7,Au  3)                  2.8163         0.006418   
     13. B(Au  7,Au  6)                  2.8298         0.006108   
     14. B(Au  9,Au  8)                  2.7703         0.007600   
     15. B(Au  9,Au  6)                  2.8090         0.006592   
     16. B(Au 10,Au  9)                  2.9057         0.004621   
     17. B(Au 10,Au  2)                  2.9561         0.003840   
     18. B(Au 10,Au  8)                  2.8292         0.006120   
     19. B(Au 12,Au  9)                  2.8537         0.005593   
     20. B(Au 13,Au  2)                  2.7962         0.006910   
     21. B(Au 13,Au  0)                  2.8355         0.005980   
     22. B(Au 13,Au 10)                  2.8080         0.006615   
     23. B(Au 13,Au 11)                  2.9402         0.004070   
     24. B(Au 13,Au  8)                  2.8246         0.006226   
     25. B(Au 14,Au  2)                  2.7839         0.007229   
     26. B(Au 14,Au  5)                  2.7931         0.006988   
     27. B(Au 14,Au 10)                  2.8476         0.005719   
     28. B(Au 15,Au 14)                  2.7879         0.007122   
     29. B(Au 15,Au  6)                  2.7760         0.007441   
     30. B(Au 15,Au  5)                  2.8679         0.005309   
     31. B(Au 15,Au 10)                  2.8652         0.005362   
     32. B(Au 15,Au  9)                  2.7620         0.007833   
     33. B(Mn 16,Au 12)                  2.4969         0.150816   
     34. B(Mn 16,Au  7)                  2.5007         0.148715   
     35. B(Mn 16,Au 11)                  2.4627         0.170984   
     36. B(Mn 16,Au  8)                  2.7861         0.052129   
     37. B(Mn 16,Au  4)                  2.5311         0.133019   
     38. B(Mn 16,Au  0)                  2.6749         0.078425   
     39. A(Au  1,Au  0,Au  2)           59.7719         0.137026   
     40. A(Au 13,Au  0,Mn 16)           89.0903         0.182018   
     41. A(Au  1,Au  0,Mn 16)           99.0704         0.185644   
     42. A(Au  1,Au  0,Au 13)          118.0451         0.137126   
     43. A(Au  2,Au  0,Au 13)           59.0554         0.135224   
     44. A(Au  2,Au  0,Mn 16)          106.4888         0.181825   
     45. A(Au  0,Au  1,Au  2)           60.9729         0.138388   
     46. A(Au  2,Au  1,Au  5)           63.2720         0.137193   
     47. A(Au  3,Au  1,Au  5)           58.8396         0.136677   
     48. A(Au  4,Au  1,Au  5)          107.9367         0.133663   
     49. A(Au  0,Au  1,Au  3)          107.1993         0.137859   
     50. A(Au  0,Au  1,Au  4)           58.8277         0.134771   
     51. A(Au  2,Au  1,Au  3)          112.8507         0.137259   
     52. A(Au  0,Au  1,Au  5)          106.7446         0.137792   
     53. A(Au  3,Au  1,Au  4)           61.3956         0.133724   
     54. A(Au  2,Au  1,Au  4)          111.8477         0.134209   
     55. A(Au  5,Au  2,Au 14)           58.2223         0.132977   
     56. A(Au  1,Au  2,Au 13)          118.8874         0.138116   
     57. A(Au  1,Au  2,Au  5)           58.6055         0.132234   
     58. A(Au  0,Au  2,Au  5)          102.0839         0.131041   
     59. A(Au  0,Au  2,Au 10)           99.9198         0.130815   
     60. A(Au  1,Au  2,Au 10)          125.0332         0.132000   
     61. A(Au  1,Au  2,Au 14)          114.1782         0.138621   
     62. A(Au  0,Au  2,Au 13)           60.4278         0.136762   
     63. A(Au  5,Au  2,Au 10)           81.5408         0.127110   
     64. A(Au  5,Au  2,Au 13)          128.8400         0.132530   
     65. A(Au 10,Au  2,Au 13)           58.3602         0.132295   
     66. A(Au  0,Au  2,Au 14)          151.4457         0.137252   
     67. A(Au 13,Au  2,Au 14)          113.4899         0.138961   
     68. A(Au 10,Au  2,Au 14)           59.3952         0.132740   
     69. A(Au  0,Au  2,Au  1)           59.2551         0.136437   
     70. A(Au  5,Au  3,Au  7)          110.6207         0.138760   
     71. A(Au  1,Au  3,Au  5)           60.6097         0.138717   
     72. A(Au  6,Au  3,Au  7)           60.3968         0.137095   
     73. A(Au  4,Au  3,Au  7)           58.7439         0.132968   
     74. A(Au  1,Au  3,Au  6)          113.6769         0.137053   
     75. A(Au  4,Au  3,Au  6)          109.2263         0.133216   
     76. A(Au  4,Au  3,Au  5)          108.7186         0.134747   
     77. A(Au  1,Au  3,Au  7)          109.1836         0.136784   
     78. A(Au  1,Au  3,Au  4)           60.6283         0.132929   
     79. A(Au  5,Au  3,Au  6)           64.5095         0.139041   
     80. A(Au  1,Au  4,Au  3)           57.9761         0.130153   
     81. A(Au  1,Au  4,Mn 16)           99.8066         0.188703   
     82. A(Au  3,Au  4,Mn 16)           95.6848         0.186932   
     83. A(Au  1,Au  5,Au 15)          143.0469         0.134713   
     84. A(Au  1,Au  5,Au 14)          113.4295         0.137647   
     85. A(Au  2,Au  5,Au 14)           57.9176         0.132640   
     86. A(Au  2,Au  5,Au  6)          116.4130         0.126448   
     87. A(Au  1,Au  5,Au  6)          108.6875         0.130744   
     88. A(Au  6,Au  5,Au 14)          114.0737         0.131652   
     89. A(Au  1,Au  5,Au  2)           58.1225         0.131712   
     90. A(Au  3,Au  5,Au 15)          115.0272         0.136669   
     91. A(Au  3,Au  5,Au 14)          163.0929         0.139728   
     92. A(Au  3,Au  5,Au  6)           58.4114         0.132530   
     93. A(Au  2,Au  5,Au  3)          109.9518         0.133539   
     94. A(Au  1,Au  5,Au  3)           60.5507         0.138649   
     95. A(Au 14,Au  5,Au 15)           58.9892         0.135707   
     96. A(Au  2,Au  5,Au 15)           95.8017         0.130009   
     97. A(Au  6,Au  5,Au 15)           56.6729         0.129080   
     98. A(Au  3,Au  6,Au  5)           57.0791         0.131074   
     99. A(Au  7,Au  6,Au 15)          139.0011         0.137903   
    100. A(Au  9,Au  6,Au 15)           59.2760         0.138756   
    101. A(Au  5,Au  6,Au  9)          100.4469         0.131093   
    102. A(Au  5,Au  6,Au  7)          104.4958         0.130372   
    103. A(Au  3,Au  6,Au 15)          116.6989         0.138733   
    104. A(Au  3,Au  6,Au  9)          130.8708         0.137389   
    105. A(Au  3,Au  6,Au  7)           59.9199         0.136559   
    106. A(Au  5,Au  6,Au 15)           59.6788         0.132262   
    107. A(Au  7,Au  6,Au  9)           91.1676         0.136581   
    108. A(Au  3,Au  7,Au  6)           59.6832         0.136293   
    109. A(Au  3,Au  7,Mn 16)           98.9678         0.198247   
    110. A(Au  6,Au  7,Mn 16)          100.8920         0.197030   
    111. A(Au 10,Au  8,Au 13)           59.5594         0.135991   
    112. A(Au  9,Au  8,Au 10)           62.5095         0.138161   
    113. A(Au 10,Au  8,Mn 16)          103.8447         0.174252   
    114. A(Au  9,Au  8,Au 13)          119.0542         0.138351   
    115. A(Au 13,Au  8,Mn 16)           87.1377         0.174581   
    116. A(Au  9,Au  8,Mn 16)           89.4435         0.178534   
    117. A(Au 10,Au  9,Au 15)           60.6704         0.135449   
    118. A(Au 10,Au  9,Au 12)          114.1239         0.132039   
    119. A(Au  8,Au  9,Au 10)           59.7388         0.135132   
    120. A(Au  6,Au  9,Au 15)           59.7679         0.139338   
    121. A(Au  6,Au  9,Au 12)           86.2357         0.135642   
    122. A(Au  6,Au  9,Au  8)          116.6655         0.138995   
    123. A(Au 12,Au  9,Au 15)          141.5014         0.137499   
    124. A(Au  8,Au  9,Au 15)          117.9440         0.140985   
    125. A(Au  8,Au  9,Au 12)           59.3502         0.137168   
    126. A(Au  6,Au  9,Au 10)          100.0203         0.133671   
    127. A(Au  2,Au 10,Au  9)          119.1908         0.128527   
    128. A(Au  8,Au 10,Au 14)          152.2107         0.135097   
    129. A(Au  2,Au 10,Au  8)          101.1459         0.131122   
    130. A(Au 13,Au 10,Au 14)          111.1866         0.135916   
    131. A(Au  8,Au 10,Au  9)           57.7517         0.132926   
    132. A(Au  8,Au 10,Au 15)          112.7156         0.134429   
    133. A(Au 14,Au 10,Au 15)           58.4188         0.133738   
    134. A(Au 13,Au 10,Au 15)          146.7984         0.135236   
    135. A(Au  9,Au 10,Au 15)           57.1848         0.131630   
    136. A(Au  2,Au 10,Au 15)           95.7168         0.129880   
    137. A(Au  9,Au 10,Au 14)          114.4246         0.132257   
    138. A(Au  2,Au 10,Au 14)           57.2910         0.130481   
    139. A(Au  9,Au 10,Au 13)          115.1083         0.133706   
    140. A(Au  8,Au 10,Au 13)           60.1382         0.136641   
    141. A(Au  2,Au 10,Au 13)           57.9696         0.131870   
    142. A(Au 13,Au 11,Mn 16)           90.9673         0.190712   
    143. A(Au  9,Au 12,Mn 16)           93.6544         0.195235   
    144. A(Au  8,Au 13,Au 10)           60.3024         0.136825   
    145. A(Au  2,Au 13,Au 10)           63.6702         0.137967   
    146. A(Au  0,Au 13,Au 10)          103.6505         0.136391   
    147. A(Au 10,Au 13,Au 11)          114.3361         0.132440   
    148. A(Au  8,Au 13,Au 11)           57.8891         0.131847   
    149. A(Au  2,Au 13,Au 11)          114.7915         0.132870   
    150. A(Au  0,Au 13,Au 11)           57.4065         0.131458   
    151. A(Au  2,Au 13,Au  8)          105.3433         0.137299   
    152. A(Au  0,Au 13,Au  8)           89.7414         0.135744   
    153. A(Au  0,Au 13,Au  2)           60.5168         0.136861   
    154. A(Au  2,Au 14,Au  5)           63.8601         0.139087   
    155. A(Au  5,Au 14,Au 15)           61.8436         0.138919   
    156. A(Au  5,Au 14,Au 10)           86.2614         0.136501   
    157. A(Au  2,Au 14,Au 10)           63.3138         0.136867   
    158. A(Au 10,Au 14,Au 15)           61.1055         0.136706   
    159. A(Au  2,Au 14,Au 15)          101.5681         0.139304   
    160. A(Au  5,Au 15,Au 14)           59.1672         0.135909   
    161. A(Au  5,Au 15,Au  6)           63.6483         0.136376   
    162. A(Au  6,Au 15,Au 14)          120.9916         0.139634   
    163. A(Au  5,Au 15,Au  9)          104.3731         0.136930   
    164. A(Au  9,Au 15,Au 14)          121.2674         0.140226   
    165. A(Au  6,Au 15,Au  9)           60.9561         0.140736   
    166. A(Au  5,Au 15,Au 10)           84.5495         0.132990   
    167. A(Au 10,Au 15,Au 14)           60.4756         0.136015   
    168. A(Au  6,Au 15,Au 10)          101.8178         0.136483   
    169. A(Au  9,Au 15,Au 10)           62.1448         0.137038   
    170. A(Au 11,Mn 16,Au 12)          107.7176         0.347378   
    171. A(Au  8,Mn 16,Au 12)           63.3569         0.286467   
    172. A(Au  0,Mn 16,Au 11)           65.2443         0.311832   
    173. A(Au  7,Mn 16,Au 12)           66.3603         0.339345   
    174. A(Au  4,Mn 16,Au 12)          133.4623         0.333105   
    175. A(Au  7,Mn 16,Au  8)          118.0210         0.285841   
    176. A(Au  4,Mn 16,Au  7)           67.9935         0.332331   
    177. A(Au  0,Mn 16,Au 12)          155.8747         0.305591   
    178. A(Au  8,Mn 16,Au 11)           63.9176         0.292156   
    179. A(Au  4,Mn 16,Au  8)          153.3443         0.280933   
    180. A(Au  7,Mn 16,Au 11)          168.9998         0.346559   
    181. A(Au  4,Mn 16,Au 11)          115.6185         0.340138   
    182. A(Au  0,Mn 16,Au  8)           93.9567         0.259300   
    183. A(Au  0,Mn 16,Au  7)          124.0311         0.304904   
    184. A(Au  0,Mn 16,Au  4)           64.8406         0.299522   
    185. D(Au  4,Au  1,Au  0,Au 13)   -136.3885         0.001502   
    186. D(Au  5,Au  1,Au  0,Au 13)    -35.2102         0.001502   
    187. D(Au  5,Au  1,Au  0,Au  2)    -45.2432         0.001502   
    188. D(Au  2,Au  1,Au  0,Mn 16)    103.8649         0.001502   
    189. D(Au  4,Au  1,Au  0,Au  2)   -146.4215         0.001502   
    190. D(Au  3,Au  1,Au  0,Au  2)   -107.0458         0.001502   
    191. D(Au  2,Au  1,Au  0,Au 13)     10.0330         0.001502   
    192. D(Au  3,Au  1,Au  0,Mn 16)     -3.1808         0.001502   
    193. D(Au  3,Au  1,Au  0,Au 13)    -97.0127         0.001502   
    194. D(Au  5,Au  1,Au  0,Mn 16)     58.6217         0.001502   
    195. D(Au  4,Au  1,Au  0,Mn 16)    -42.5566         0.001502   
    196. D(Au 10,Au  2,Au  1,Au  4)    -49.4301         0.001502   
    197. D(Au  5,Au  2,Au  1,Au  3)    -32.7671         0.001502   
    198. D(Au 14,Au  2,Au  1,Au  3)    -50.9146         0.001502   
    199. D(Au 14,Au  2,Au  0,Au  1)     84.4883         0.001501   
    200. D(Au 14,Au  2,Au  1,Au  5)    -18.1474         0.001502   
    201. D(Au  5,Au  2,Au  0,Au  1)     41.6522         0.001501   
    202. D(Au  5,Au  2,Au  1,Au  4)    -99.7642         0.001502   
    203. D(Au 14,Au  2,Au  0,Mn 16)     -6.5323         0.001501   
    204. D(Au 10,Au  2,Au  1,Au  3)     17.5670         0.001502   
    205. D(Au 14,Au  2,Au  1,Au  4)   -117.9116         0.001502   
    206. D(Au  0,Au  2,Au  1,Au  3)     97.6503         0.001502   
    207. D(Au  0,Au  2,Au  1,Au  4)     30.6532         0.001502   
    208. D(Au 13,Au  2,Au  0,Mn 16)     78.6518         0.001501   
    209. D(Au 13,Au  2,Au  0,Au  1)    169.6724         0.001501   
    210. D(Au 10,Au  2,Au  1,Au  5)     50.3341         0.001502   
    211. D(Au 10,Au  2,Au  0,Au 13)    -44.6400         0.001501   
    212. D(Au 13,Au  2,Au  1,Au  3)     87.3923         0.001502   
    213. D(Au 13,Au  2,Au  1,Au  4)     20.3952         0.001502   
    214. D(Au  1,Au  2,Au  0,Mn 16)    -91.0206         0.001501   
    215. D(Au 13,Au  2,Au  1,Au  5)    120.1594         0.001502   
    216. D(Au 10,Au  2,Au  1,Au  0)    -80.0833         0.001502   
    217. D(Au  0,Au  2,Au  1,Au  5)    130.4174         0.001502   
    218. D(Au  5,Au  2,Au  0,Au 13)   -128.0202         0.001501   
    219. D(Au 10,Au  2,Au  0,Mn 16)     34.0119         0.001501   
    220. D(Au 13,Au  2,Au  1,Au  0)    -10.2580         0.001502   
    221. D(Au 14,Au  2,Au  1,Au  0)   -148.5649         0.001502   
    222. D(Au 10,Au  2,Au  0,Au  1)    125.0324         0.001501   
    223. D(Au  5,Au  2,Au  1,Au  0)   -130.4174         0.001502   
    224. D(Au 14,Au  2,Au  0,Au 13)    -85.1841         0.001501   
    225. D(Au  5,Au  2,Au  0,Mn 16)    -49.3683         0.001501   
    226. D(Au  1,Au  2,Au  0,Au 13)   -169.6724         0.001501   
    227. D(Au  5,Au  3,Au  1,Au  2)     34.3953         0.001502   
    228. D(Au  7,Au  3,Au  1,Au  4)     34.2876         0.001502   
    229. D(Au  7,Au  3,Au  1,Au  0)     -3.9020         0.001502   
    230. D(Au  6,Au  3,Au  1,Au  0)     61.3549         0.001502   
    231. D(Au  6,Au  3,Au  1,Au  2)     -3.7629         0.001502   
    232. D(Au  4,Au  3,Au  1,Au  5)   -137.7027         0.001502   
    233. D(Au  6,Au  3,Au  1,Au  5)    -38.1581         0.001502   
    234. D(Au  6,Au  3,Au  1,Au  4)     99.5446         0.001502   
    235. D(Au  4,Au  3,Au  1,Au  2)   -103.3074         0.001502   
    236. D(Au  4,Au  3,Au  1,Au  0)    -38.1897         0.001502   
    237. D(Au  7,Au  3,Au  1,Au  5)   -103.4151         0.001502   
    238. D(Au  5,Au  3,Au  1,Au  4)    137.7027         0.001502   
    239. D(Au  7,Au  3,Au  1,Au  2)    -69.0198         0.001502   
    240. D(Au  5,Au  3,Au  1,Au  0)     99.5130         0.001502   
    241. D(Au  3,Au  4,Au  1,Au  0)    136.3472         0.001501   
    242. D(Mn 16,Au  4,Au  1,Au  3)    -90.5994         0.001501   
    243. D(Mn 16,Au  4,Au  1,Au  5)    -53.3488         0.001501   
    244. D(Au  3,Au  4,Au  1,Au  5)     37.2505         0.001501   
    245. D(Au  3,Au  4,Au  1,Au  2)    104.9459         0.001501   
    246. D(Mn 16,Au  4,Au  1,Au  2)     14.3466         0.001501   
    247. D(Mn 16,Au  4,Au  1,Au  0)     45.7479         0.001501   
    248. D(Au  1,Au  4,Au  3,Au  6)   -106.9627         0.001501   
    249. D(Au  1,Au  4,Au  3,Au  7)   -141.5081         0.001501   
    250. D(Au  1,Au  4,Au  3,Au  5)    -38.2512         0.001501   
    251. D(Mn 16,Au  4,Au  3,Au  6)     -8.9366         0.001501   
    252. D(Mn 16,Au  4,Au  3,Au  5)     59.7749         0.001501   
    253. D(Mn 16,Au  4,Au  3,Au  7)    -43.4820         0.001501   
    254. D(Mn 16,Au  4,Au  3,Au  1)     98.0261         0.001501   
    255. D(Au 14,Au  5,Au  3,Au  6)     67.8847         0.001502   
    256. D(Au 14,Au  5,Au  3,Au  1)    -73.2974         0.001502   
    257. D(Au  1,Au  5,Au  3,Au  6)    141.1821         0.001502   
    258. D(Au  6,Au  5,Au  3,Au  4)   -102.9226         0.001502   
    259. D(Au  6,Au  5,Au  3,Au  1)   -141.1821         0.001502   
    260. D(Au  2,Au  5,Au  3,Au  4)      6.4876         0.001502   
    261. D(Au  1,Au  5,Au  3,Au  4)     38.2595         0.001502   
    262. D(Au  2,Au  5,Au  3,Au  7)     69.2396         0.001502   
    263. D(Au  6,Au  5,Au  3,Au  7)    -40.1705         0.001502   
    264. D(Au  3,Au  5,Au  2,Au 14)   -166.8471         0.001501   
    265. D(Au  1,Au  5,Au  2,Au 13)   -103.6046         0.001501   
    266. D(Au  6,Au  5,Au  2,Au  0)     54.4512         0.001501   
    267. D(Au 15,Au  5,Au  2,Au 10)     11.5582         0.001501   
    268. D(Au 15,Au  5,Au  2,Au 13)     48.3671         0.001501   
    269. D(Au  2,Au  5,Au  3,Au  6)    109.4102         0.001502   
    270. D(Au  6,Au  5,Au  2,Au  1)     96.4538         0.001501   
    271. D(Au 14,Au  5,Au  2,Au 10)     59.1132         0.001501   
    272. D(Au  6,Au  5,Au  2,Au 10)    -43.9597         0.001501   
    273. D(Au  1,Au  5,Au  3,Au  7)    101.0116         0.001502   
    274. D(Au  6,Au  5,Au  2,Au 13)     -7.1509         0.001501   
    275. D(Au 15,Au  5,Au  3,Au  1)   -138.5204         0.001502   
    276. D(Au 14,Au  5,Au  3,Au  7)     27.7142         0.001502   
    277. D(Au 15,Au  5,Au  2,Au 14)    -47.5549         0.001501   
    278. D(Au 15,Au  5,Au  3,Au  4)   -100.2609         0.001502   
    279. D(Au  3,Au  5,Au  2,Au 10)   -107.7339         0.001501   
    280. D(Au 14,Au  5,Au  2,Au 13)     95.9220         0.001501   
    281. D(Au 15,Au  5,Au  2,Au  0)    109.9691         0.001501   
    282. D(Au  1,Au  5,Au  2,Au 14)    160.4734         0.001501   
    283. D(Au 14,Au  5,Au  2,Au  1)   -160.4734         0.001501   
    284. D(Au 15,Au  5,Au  1,Au  0)     -7.0050         0.001502   
    285. D(Au  1,Au  5,Au  2,Au  0)    -42.0025         0.001501   
    286. D(Au 15,Au  5,Au  2,Au  1)    151.9717         0.001501   
    287. D(Au 14,Au  5,Au  2,Au  0)    157.5241         0.001501   
    288. D(Au  6,Au  5,Au  2,Au 14)   -103.0729         0.001501   
    289. D(Au  1,Au  5,Au  2,Au 10)   -140.4135         0.001501   
    290. D(Au  3,Au  5,Au  2,Au  0)     -9.3230         0.001501   
    291. D(Au  3,Au  5,Au  1,Au  4)    -38.3908         0.001502   
    292. D(Au  3,Au  5,Au  2,Au  1)     32.6795         0.001501   
    293. D(Au  3,Au  5,Au  1,Au  0)   -100.3073         0.001502   
    294. D(Au  2,Au  5,Au  3,Au  1)    -31.7719         0.001502   
    295. D(Au 15,Au  5,Au  1,Au  3)     93.3022         0.001502   
    296. D(Au 14,Au  5,Au  3,Au  4)    -35.0379         0.001502   
    297. D(Au 15,Au  5,Au  1,Au  4)     54.9115         0.001502   
    298. D(Au 14,Au  5,Au  1,Au  3)    162.3272         0.001502   
    299. D(Au  3,Au  5,Au  2,Au 13)    -70.9251         0.001501   
    300. D(Au  3,Au  5,Au  1,Au  2)   -144.3494         0.001502   
    301. D(Au 14,Au  5,Au  1,Au  2)     17.9778         0.001502   
    302. D(Au  6,Au  5,Au  1,Au  4)     -4.0797         0.001502   
    303. D(Au  6,Au  5,Au  1,Au  0)    -65.9962         0.001502   
    304. D(Au  2,Au  5,Au  1,Au  4)    105.9586         0.001502   
    305. D(Au  2,Au  5,Au  1,Au  0)     44.0421         0.001502   
    306. D(Au  6,Au  5,Au  1,Au  2)   -110.0383         0.001502   
    307. D(Au  2,Au  5,Au  1,Au  3)    144.3494         0.001502   
    308. D(Au  6,Au  5,Au  1,Au  3)     34.3111         0.001502   
    309. D(Au 15,Au  5,Au  1,Au  2)    -51.0471         0.001502   
    310. D(Au 14,Au  5,Au  1,Au  0)     62.0199         0.001502   
    311. D(Au 15,Au  5,Au  3,Au  7)    -37.5088         0.001502   
    312. D(Au 15,Au  5,Au  3,Au  6)      2.6617         0.001502   
    313. D(Au 14,Au  5,Au  1,Au  4)    123.9364         0.001502   
    314. D(Au  3,Au  6,Au  5,Au 15)   -177.1134         0.001501   
    315. D(Au  3,Au  6,Au  5,Au 14)   -162.8370         0.001501   
    316. D(Au  9,Au  6,Au  3,Au  4)     28.0756         0.001502   
    317. D(Au 15,Au  6,Au  5,Au 14)     14.2764         0.001501   
    318. D(Au 15,Au  6,Au  3,Au  5)     -2.7891         0.001502   
    319. D(Au  9,Au  6,Au  5,Au 15)    -44.7915         0.001501   
    320. D(Au  9,Au  6,Au  5,Au 14)    -30.5151         0.001501   
    321. D(Au  7,Au  6,Au  5,Au  3)     38.3613         0.001501   
    322. D(Au  5,Au  6,Au  3,Au  4)    102.1373         0.001502   
    323. D(Au  7,Au  6,Au  5,Au  2)    -59.7934         0.001501   
    324. D(Au  7,Au  6,Au  5,Au  1)      3.1753         0.001501   
    325. D(Au  5,Au  6,Au  3,Au  7)    136.0225         0.001502   
    326. D(Au  9,Au  6,Au  5,Au  1)     97.1360         0.001501   
    327. D(Au  7,Au  6,Au  5,Au 15)   -138.7521         0.001501   
    328. D(Au  5,Au  6,Au  3,Au  1)     36.6103         0.001502   
    329. D(Au 15,Au  6,Au  3,Au  7)    133.2335         0.001502   
    330. D(Au  9,Au  6,Au  5,Au  2)     34.1672         0.001501   
    331. D(Au  9,Au  6,Au  5,Au  3)    132.3219         0.001501   
    332. D(Au 15,Au  6,Au  3,Au  4)     99.3483         0.001502   
    333. D(Au 15,Au  6,Au  5,Au  1)    141.9274         0.001501   
    334. D(Au 15,Au  6,Au  3,Au  1)     33.8213         0.001502   
    335. D(Au 15,Au  6,Au  5,Au  2)     78.9587         0.001501   
    336. D(Au  9,Au  6,Au  3,Au  7)     61.9608         0.001502   
    337. D(Au  7,Au  6,Au  5,Au 14)   -124.4757         0.001501   
    338. D(Au  3,Au  6,Au  5,Au  1)    -35.1859         0.001501   
    339. D(Au  3,Au  6,Au  5,Au  2)    -98.1547         0.001501   
    340. D(Au 15,Au  6,Au  5,Au  3)    177.1134         0.001501   
    341. D(Au  9,Au  6,Au  3,Au  5)    -74.0617         0.001502   
    342. D(Au  9,Au  6,Au  3,Au  1)    -37.4514         0.001502   
    343. D(Au  7,Au  6,Au  3,Au  5)   -136.0225         0.001502   
    344. D(Au  7,Au  6,Au  3,Au  4)    -33.8852         0.001502   
    345. D(Au  7,Au  6,Au  3,Au  1)    -99.4122         0.001502   
    346. D(Mn 16,Au  7,Au  3,Au  6)    -97.4306         0.001501   
    347. D(Mn 16,Au  7,Au  6,Au  9)    -44.0279         0.001501   
    348. D(Mn 16,Au  7,Au  6,Au  3)     94.0924         0.001501   
    349. D(Mn 16,Au  7,Au  6,Au  5)     57.0763         0.001501   
    350. D(Mn 16,Au  7,Au  6,Au 15)     -3.0950         0.001501   
    351. D(Au  3,Au  7,Au  6,Au 15)    -97.1874         0.001501   
    352. D(Au  6,Au  7,Au  3,Au  5)     42.0430         0.001501   
    353. D(Au  3,Au  7,Au  6,Au  9)   -138.1203         0.001501   
    354. D(Au  6,Au  7,Au  3,Au  4)    141.9887         0.001501   
    355. D(Au  6,Au  7,Au  3,Au  1)    106.9390         0.001501   
    356. D(Au  3,Au  7,Au  6,Au  5)    -37.0161         0.001501   
    357. D(Mn 16,Au  7,Au  3,Au  5)    -55.3876         0.001501   
    358. D(Mn 16,Au  7,Au  3,Au  4)     44.5582         0.001501   
    359. D(Mn 16,Au  7,Au  3,Au  1)      9.5084         0.001501   
    360. D(Au 10,Au  9,Au  6,Au  7)    102.7414         0.001502   
    361. D(Au 10,Au  9,Au  8,Mn 16)   -105.9511         0.001502   
    362. D(Au  6,Au  9,Au  8,Au 13)     66.5894         0.001502   
    363. D(Au 15,Au  9,Au  8,Au 10)     17.9270         0.001502   
    364. D(Au 10,Au  9,Au  8,Au 13)    -19.5357         0.001502   
    365. D(Au 15,Au  9,Au  8,Au 13)     -1.6087         0.001502   
    366. D(Au 15,Au  9,Au  8,Mn 16)    -88.0241         0.001502   
    367. D(Au 12,Au  9,Au  8,Au 10)    153.6065         0.001502   
    368. D(Au 12,Au  9,Au  8,Au 13)    134.0708         0.001502   
    369. D(Au 12,Au  9,Au  8,Mn 16)     47.6554         0.001502   
    370. D(Au 10,Au  9,Au  6,Au  3)     52.9305         0.001502   
    371. D(Au 10,Au  9,Au  6,Au  5)     -2.2302         0.001502   
    372. D(Au 10,Au  9,Au  6,Au 15)    -47.2583         0.001502   
    373. D(Au 15,Au  9,Au  6,Au  3)    100.1889         0.001502   
    374. D(Au 15,Au  9,Au  6,Au  5)     45.0282         0.001502   
    375. D(Au 15,Au  9,Au  6,Au  7)    149.9997         0.001502   
    376. D(Au 12,Au  9,Au  6,Au  3)    -60.9176         0.001502   
    377. D(Au 12,Au  9,Au  6,Au  5)   -116.0783         0.001502   
    378. D(Au 12,Au  9,Au  6,Au 15)   -161.1065         0.001502   
    379. D(Au 12,Au  9,Au  6,Au  7)    -11.1068         0.001502   
    380. D(Au  6,Au  9,Au  8,Mn 16)    -19.8260         0.001502   
    381. D(Au  6,Au  9,Au  8,Au 10)     86.1251         0.001502   
    382. D(Au  8,Au  9,Au  6,Au  7)     41.6832         0.001502   
    383. D(Au  8,Au  9,Au  6,Au 15)   -108.3165         0.001502   
    384. D(Au  8,Au  9,Au  6,Au  3)     -8.1277         0.001502   
    385. D(Au  8,Au  9,Au  6,Au  5)    -63.2884         0.001502   
    386. D(Au 15,Au 10,Au  9,Au 12)    137.0531         0.001501   
    387. D(Au 15,Au 10,Au  9,Au  8)    161.8264         0.001501   
    388. D(Au 14,Au 10,Au  9,Au  6)     34.4563         0.001501   
    389. D(Au 14,Au 10,Au  9,Au 12)    124.8045         0.001501   
    390. D(Au 14,Au 10,Au  9,Au  8)    149.5778         0.001501   
    391. D(Au 13,Au 10,Au  9,Au  6)    -96.1730         0.001501   
    392. D(Au 13,Au 10,Au  9,Au 15)   -142.8779         0.001501   
    393. D(Au  8,Au 10,Au  9,Au  6)   -115.1215         0.001501   
    394. D(Au 15,Au 10,Au  2,Au  1)    -53.1971         0.001501   
    395. D(Au  2,Au 10,Au  9,Au  6)    -30.3228         0.001501   
    396. D(Au  2,Au 10,Au  9,Au 15)    -77.0277         0.001501   
    397. D(Au  2,Au 10,Au  8,Au 13)     42.5705         0.001501   
    398. D(Au 15,Au 10,Au  8,Au  9)    -16.5091         0.001501   
    399. D(Au 13,Au 10,Au  8,Au  9)   -160.1809         0.001501   
    400. D(Au 14,Au 10,Au  8,Mn 16)      0.5201         0.001501   
    401. D(Au 15,Au 10,Au  8,Au 13)    143.6718         0.001501   
    402. D(Au 15,Au 10,Au  8,Mn 16)     65.4709         0.001501   
    403. D(Au  9,Au 10,Au  8,Mn 16)     81.9800         0.001501   
    404. D(Au 14,Au 10,Au  8,Au  9)    -81.4599         0.001501   
    405. D(Au  2,Au 10,Au  9,Au 12)     60.0254         0.001501   
    406. D(Au  2,Au 10,Au  8,Au  9)   -117.6104         0.001501   
    407. D(Au  2,Au 10,Au  8,Mn 16)    -35.6304         0.001501   
    408. D(Au 15,Au 10,Au  2,Au 13)   -158.3273         0.001501   
    409. D(Au  2,Au 10,Au  9,Au  8)     84.7987         0.001501   
    410. D(Au 15,Au 10,Au  2,Au  5)    -11.5676         0.001501   
    411. D(Au 13,Au 10,Au  9,Au  8)     18.9485         0.001501   
    412. D(Au  9,Au 10,Au  8,Au 13)    160.1809         0.001501   
    413. D(Au 13,Au 10,Au  8,Mn 16)    -78.2010         0.001501   
    414. D(Au 14,Au 10,Au  8,Au 13)     78.7211         0.001501   
    415. D(Au  8,Au 10,Au  9,Au 15)   -161.8264         0.001501   
    416. D(Au 15,Au 10,Au  2,Au 14)     46.3853         0.001501   
    417. D(Au 15,Au 10,Au  2,Au  0)   -112.4532         0.001501   
    418. D(Au 13,Au 10,Au  9,Au 12)     -5.8248         0.001501   
    419. D(Au 14,Au 10,Au  2,Au 13)    155.2874         0.001501   
    420. D(Au 14,Au 10,Au  2,Au  5)    -57.9529         0.001501   
    421. D(Au  8,Au 10,Au  9,Au 12)    -24.7733         0.001501   
    422. D(Au 14,Au 10,Au  2,Au  0)   -158.8385         0.001501   
    423. D(Au 13,Au 10,Au  2,Au  0)     45.8741         0.001501   
    424. D(Au  9,Au 10,Au  2,Au  1)      2.1960         0.001501   
    425. D(Au  9,Au 10,Au  2,Au 14)    101.7784         0.001501   
    426. D(Au  8,Au 10,Au  2,Au  1)     61.3393         0.001501   
    427. D(Au  8,Au 10,Au  2,Au 14)    160.9218         0.001501   
    428. D(Au  8,Au 10,Au  2,Au  0)      2.0833         0.001501   
    429. D(Au  9,Au 10,Au  2,Au  0)    -57.0601         0.001501   
    430. D(Au  9,Au 10,Au  2,Au  5)     43.8255         0.001501   
    431. D(Au 13,Au 10,Au  2,Au 14)   -155.2874         0.001501   
    432. D(Au 13,Au 10,Au  2,Au  1)    105.1302         0.001501   
    433. D(Au 13,Au 10,Au  2,Au  5)    146.7597         0.001501   
    434. D(Au 14,Au 10,Au  9,Au 15)    -12.2486         0.001501   
    435. D(Au  9,Au 10,Au  2,Au 13)   -102.9342         0.001501   
    436. D(Au  8,Au 10,Au  2,Au 13)    -43.7909         0.001501   
    437. D(Au 14,Au 10,Au  2,Au  1)    -99.5824         0.001501   
    438. D(Au 15,Au 10,Au  9,Au  6)     46.7049         0.001501   
    439. D(Au  8,Au 10,Au  2,Au  5)    102.9689         0.001501   
    440. D(Mn 16,Au 12,Au  9,Au 10)    -30.8464         0.001501   
    441. D(Mn 16,Au 12,Au  9,Au  6)     68.4531         0.001501   
    442. D(Mn 16,Au 12,Au  9,Au 15)     41.7459         0.001501   
    443. D(Mn 16,Au 12,Au  9,Au  8)    -55.7254         0.001501   
    444. D(Au 10,Au 13,Au 11,Mn 16)     35.9414         0.001501   
    445. D(Au  8,Au 13,Au 11,Mn 16)     58.1562         0.001501   
    446. D(Au  0,Au 13,Au 11,Mn 16)    -55.1048         0.001501   
    447. D(Au 11,Au 13,Au 10,Au 15)    -64.6881         0.001502   
    448. D(Au 11,Au 13,Au 10,Au 14)   -129.0024         0.001502   
    449. D(Au 11,Au 13,Au 10,Au  8)     21.6333         0.001502   
    450. D(Au 11,Au 13,Au 10,Au  2)   -106.8376         0.001502   
    451. D(Au  8,Au 13,Au 10,Au 15)    -86.3214         0.001502   
    452. D(Au  8,Au 13,Au 10,Au  9)    -18.4619         0.001502   
    453. D(Au  8,Au 13,Au 10,Au  2)   -128.4708         0.001502   
    454. D(Au  2,Au 13,Au 10,Au 15)     42.1494         0.001502   
    455. D(Au  2,Au 13,Au 10,Au 14)    -22.1649         0.001502   
    456. D(Au  2,Au 13,Au 10,Au  9)    110.0090         0.001502   
    457. D(Au  2,Au 13,Au 10,Au  8)    128.4708         0.001502   
    458. D(Au  0,Au 13,Au 10,Au 15)     -4.5925         0.001502   
    459. D(Au  0,Au 13,Au 10,Au  9)     63.2671         0.001502   
    460. D(Au  0,Au 13,Au 10,Au  8)     81.7289         0.001502   
    461. D(Au  0,Au 13,Au 10,Au  2)    -46.7419         0.001502   
    462. D(Au 10,Au 13,Au  8,Mn 16)    107.8953         0.001501   
    463. D(Au 11,Au 13,Au  8,Au 10)   -156.6359         0.001501   
    464. D(Au 11,Au 13,Au  8,Au  9)   -136.5112         0.001501   
    465. D(Au  2,Au 13,Au  8,Au 10)    -46.6885         0.001501   
    466. D(Au  2,Au 13,Au  8,Au  9)    -26.5638         0.001501   
    467. D(Au  2,Au 13,Au  8,Mn 16)     61.2068         0.001501   
    468. D(Au  0,Au 13,Au  8,Au 10)   -105.9179         0.001501   
    469. D(Au  0,Au 13,Au  8,Au  9)    -85.7932         0.001501   
    470. D(Au  0,Au 13,Au  8,Mn 16)      1.9774         0.001501   
    471. D(Au 10,Au 13,Au  2,Au  5)    -44.1145         0.001502   
    472. D(Au 10,Au 13,Au  2,Au  1)   -115.4760         0.001502   
    473. D(Au 10,Au 13,Au  2,Au 14)     23.1004         0.001502   
    474. D(Au 10,Au 13,Au  2,Au  0)   -125.6114         0.001502   
    475. D(Au 11,Au 13,Au  2,Au 10)    106.1342         0.001502   
    476. D(Au 11,Au 13,Au  2,Au  5)     62.0197         0.001502   
    477. D(Au 11,Au 13,Au  2,Au  1)     -9.3418         0.001502   
    478. D(Au 11,Au 13,Au  8,Mn 16)    -48.7405         0.001501   
    479. D(Au 11,Au 13,Au  2,Au 14)    129.2346         0.001502   
    480. D(Au 11,Au 13,Au  2,Au  0)    -19.4772         0.001502   
    481. D(Au  8,Au 13,Au  2,Au 10)     44.8477         0.001502   
    482. D(Au 10,Au 13,Au  8,Au  9)     20.1247         0.001501   
    483. D(Au  8,Au 13,Au  2,Au  5)      0.7333         0.001502   
    484. D(Au  8,Au 13,Au  2,Au  1)    -70.6283         0.001502   
    485. D(Au  8,Au 13,Au  2,Au 14)     67.9481         0.001502   
    486. D(Au  0,Au 13,Au 10,Au 14)    -68.9068         0.001502   
    487. D(Au  8,Au 13,Au  2,Au  0)    -80.7637         0.001502   
    488. D(Au  0,Au 13,Au  2,Au 10)    125.6114         0.001502   
    489. D(Au  0,Au 13,Au  2,Au  5)     81.4970         0.001502   
    490. D(Au  0,Au 13,Au  2,Au  1)     10.1355         0.001502   
    491. D(Au  0,Au 13,Au  2,Au 14)    148.7118         0.001502   
    492. D(Au 10,Au 13,Au  0,Au  1)     38.4667         0.001501   
    493. D(Au 10,Au 13,Au  0,Au  2)     48.5750         0.001501   
    494. D(Au  8,Au 13,Au 10,Au 14)   -150.6357         0.001502   
    495. D(Au 10,Au 13,Au  0,Mn 16)    -61.3319         0.001501   
    496. D(Au 11,Au 13,Au  0,Au  1)    148.8355         0.001501   
    497. D(Au 11,Au 13,Au  0,Au  2)    158.9437         0.001501   
    498. D(Au 11,Au 13,Au 10,Au  9)      3.1714         0.001502   
    499. D(Au 11,Au 13,Au  0,Mn 16)     49.0368         0.001501   
    500. D(Au  8,Au 13,Au  0,Au  1)     97.7413         0.001501   
    501. D(Au  8,Au 13,Au  0,Au  2)    107.8496         0.001501   
    502. D(Au  2,Au 13,Au 11,Mn 16)    -34.9531         0.001501   
    503. D(Au  8,Au 13,Au  0,Mn 16)     -2.0573         0.001501   
    504. D(Au  2,Au 13,Au  0,Au  1)    -10.1082         0.001501   
    505. D(Au  2,Au 13,Au  0,Mn 16)   -109.9069         0.001501   
    506. D(Au  5,Au 14,Au 10,Au 15)    -59.7308         0.001501   
    507. D(Au  5,Au 14,Au 10,Au  9)    -47.6497         0.001501   
    508. D(Au  5,Au 14,Au 10,Au  8)     19.0685         0.001501   
    509. D(Au  5,Au 14,Au 10,Au  2)     62.5293         0.001501   
    510. D(Au  2,Au 14,Au 10,Au 15)   -122.2602         0.001501   
    511. D(Au  2,Au 14,Au 10,Au 13)     22.3409         0.001501   
    512. D(Au  2,Au 14,Au 10,Au  9)   -110.1791         0.001501   
    513. D(Au  2,Au 14,Au 10,Au  8)    -43.4608         0.001501   
    514. D(Au 15,Au 14,Au 10,Au  9)     12.0811         0.001501   
    515. D(Au 15,Au 14,Au 10,Au  8)     78.7993         0.001501   
    516. D(Au 15,Au 14,Au 10,Au  2)    122.2602         0.001501   
    517. D(Au 10,Au 14,Au  5,Au 15)     59.0528         0.001502   
    518. D(Au 10,Au 14,Au  5,Au  6)     45.1422         0.001502   
    519. D(Au 10,Au 14,Au  5,Au  2)    -62.0131         0.001502   
    520. D(Au 10,Au 14,Au  5,Au  1)    -80.0325         0.001502   
    521. D(Au  2,Au 14,Au  5,Au  3)     47.3479         0.001502   
    522. D(Au  2,Au 14,Au  5,Au 15)    121.0659         0.001502   
    523. D(Au  2,Au 14,Au  5,Au  6)    107.1553         0.001502   
    524. D(Au  2,Au 14,Au  5,Au  1)    -18.0194         0.001502   
    525. D(Au 15,Au 14,Au  5,Au  3)    -73.7179         0.001502   
    526. D(Au 15,Au 14,Au  5,Au  6)    -13.9105         0.001502   
    527. D(Au 15,Au 14,Au  5,Au  2)   -121.0659         0.001502   
    528. D(Au 15,Au 14,Au  5,Au  1)   -139.0853         0.001502   
    529. D(Au 10,Au 14,Au  2,Au 13)    -22.8356         0.001502   
    530. D(Au 10,Au 14,Au  5,Au  3)    -14.6652         0.001502   
    531. D(Au 10,Au 14,Au  2,Au  5)     99.5196         0.001502   
    532. D(Au 10,Au 14,Au  2,Au  1)    117.7444         0.001502   
    533. D(Au 10,Au 14,Au  2,Au  0)     48.0688         0.001502   
    534. D(Au 15,Au 14,Au 10,Au 13)    144.6010         0.001501   
    535. D(Au  5,Au 14,Au  2,Au 10)    -99.5196         0.001502   
    536. D(Au  5,Au 14,Au  2,Au 13)   -122.3551         0.001502   
    537. D(Au  5,Au 14,Au  2,Au  1)     18.2249         0.001502   
    538. D(Au  5,Au 14,Au  2,Au  0)    -51.4507         0.001502   
    539. D(Au 15,Au 14,Au  2,Au 10)    -49.0876         0.001502   
    540. D(Au 15,Au 14,Au  2,Au 13)    -71.9232         0.001502   
    541. D(Au 15,Au 14,Au  2,Au  5)     50.4319         0.001502   
    542. D(Au  5,Au 14,Au 10,Au 13)     84.8702         0.001501   
    543. D(Au 15,Au 14,Au  2,Au  1)     68.6568         0.001502   
    544. D(Au 15,Au 14,Au  2,Au  0)     -1.0188         0.001502   
    545. D(Au 10,Au 15,Au 14,Au  5)    102.1760         0.001502   
    546. D(Au 10,Au 15,Au 14,Au  2)     50.4637         0.001502   
    547. D(Au  5,Au 15,Au 14,Au 10)   -102.1760         0.001502   
    548. D(Au  6,Au 15,Au 14,Au 10)    -86.2378         0.001502   
    549. D(Au  6,Au 15,Au 14,Au  5)     15.9382         0.001502   
    550. D(Au  6,Au 15,Au 14,Au  2)    -35.7740         0.001502   
    551. D(Au  9,Au 15,Au 14,Au  5)     88.6114         0.001502   
    552. D(Au  9,Au 15,Au 14,Au  2)     36.8991         0.001502   
    553. D(Au  5,Au 15,Au 10,Au 14)     57.4756         0.001501   
    554. D(Au  5,Au 15,Au 10,Au  9)   -109.4187         0.001501   
    555. D(Au  5,Au 15,Au 10,Au  8)    -92.8020         0.001501   
    556. D(Au  5,Au 15,Au 10,Au  2)     11.8247         0.001501   
    557. D(Au 14,Au 15,Au 10,Au 13)    -80.5234         0.001501   
    558. D(Au 14,Au 15,Au 10,Au  9)   -166.8943         0.001501   
    559. D(Au 14,Au 15,Au 10,Au  8)   -150.2776         0.001501   
    560. D(Au 14,Au 15,Au 10,Au  2)    -45.6509         0.001501   
    561. D(Au  6,Au 15,Au 10,Au 13)     38.5593         0.001501   
    562. D(Au  6,Au 15,Au 10,Au  9)    -47.8116         0.001501   
    563. D(Au  6,Au 15,Au 10,Au  8)    -31.1950         0.001501   
    564. D(Au  9,Au 15,Au 10,Au 14)    166.8943         0.001501   
    565. D(Au  9,Au 15,Au 10,Au 13)     86.3709         0.001501   
    566. D(Au  9,Au 15,Au 10,Au  8)     16.6167         0.001501   
    567. D(Au 10,Au 15,Au  9,Au  6)   -123.9470         0.001502   
    568. D(Au 10,Au 15,Au  9,Au 12)    -92.6780         0.001502   
    569. D(Au 10,Au 15,Au  9,Au  8)    -17.7554         0.001502   
    570. D(Au  5,Au 15,Au  9,Au 10)     75.7396         0.001502   
    571. D(Au  5,Au 15,Au  9,Au  6)    -48.2074         0.001502   
    572. D(Au  5,Au 15,Au  9,Au 12)    -16.9384         0.001502   
    573. D(Au  5,Au 15,Au  9,Au  8)     57.9842         0.001502   
    574. D(Au 14,Au 15,Au  9,Au  6)   -110.6010         0.001502   
    575. D(Au 14,Au 15,Au  9,Au 12)    -79.3319         0.001502   
    576. D(Au 14,Au 15,Au  9,Au  8)     -4.4093         0.001502   
    577. D(Au  6,Au 15,Au  9,Au 10)    123.9470         0.001502   
    578. D(Au  6,Au 15,Au  9,Au 12)     31.2690         0.001502   
    579. D(Au  6,Au 15,Au  9,Au  8)    106.1917         0.001502   
    580. D(Au 10,Au 15,Au  6,Au  3)    -75.0517         0.001502   
    581. D(Au 10,Au 15,Au  6,Au  5)    -77.7639         0.001502   
    582. D(Au 14,Au 15,Au  9,Au 10)     13.3461         0.001502   
    583. D(Au 10,Au 15,Au  6,Au  9)     48.5313         0.001502   
    584. D(Au 10,Au 15,Au  6,Au  7)     -1.1089         0.001502   
    585. D(Au  5,Au 15,Au  6,Au  3)      2.7121         0.001502   
    586. D(Au  5,Au 15,Au  6,Au  9)    126.2952         0.001502   
    587. D(Au  5,Au 15,Au  6,Au  7)     76.6550         0.001502   
    588. D(Au 14,Au 15,Au  6,Au  3)    -12.5439         0.001502   
    589. D(Au 14,Au 15,Au  6,Au  5)    -15.2561         0.001502   
    590. D(Au  9,Au 15,Au 10,Au  2)    121.2433         0.001501   
    591. D(Au 14,Au 15,Au  6,Au  9)    111.0391         0.001502   
    592. D(Au 14,Au 15,Au  6,Au  7)     61.3989         0.001502   
    593. D(Au  9,Au 15,Au  6,Au  3)   -123.5830         0.001502   
    594. D(Au  6,Au 15,Au 10,Au  2)     73.4317         0.001501   
    595. D(Au  9,Au 15,Au  6,Au  5)   -126.2952         0.001502   
    596. D(Au  9,Au 15,Au  6,Au  7)    -49.6401         0.001502   
    597. D(Au 10,Au 15,Au  5,Au  3)    103.3589         0.001501   
    598. D(Au  6,Au 15,Au 10,Au 14)    119.0826         0.001501   
    599. D(Au 10,Au 15,Au  5,Au 14)    -58.6974         0.001501   
    600. D(Au 10,Au 15,Au  5,Au  6)    106.0724         0.001501   
    601. D(Au 10,Au 15,Au  5,Au  2)    -11.8529         0.001501   
    602. D(Au 10,Au 15,Au  5,Au  1)     29.7356         0.001501   
    603. D(Au 14,Au 15,Au  5,Au  3)    162.0562         0.001501   
    604. D(Au 14,Au 15,Au  5,Au  6)    164.7698         0.001501   
    605. D(Au 14,Au 15,Au  5,Au  2)     46.8445         0.001501   
    606. D(Au  5,Au 15,Au 10,Au 13)    -23.0478         0.001501   
    607. D(Au 14,Au 15,Au  5,Au  1)     88.4329         0.001501   
    608. D(Au  6,Au 15,Au  5,Au  3)     -2.7136         0.001501   
    609. D(Au  6,Au 15,Au  5,Au 14)   -164.7698         0.001501   
    610. D(Au  9,Au 15,Au 14,Au 10)    -13.5646         0.001502   
    611. D(Au  6,Au 15,Au  5,Au  2)   -117.9254         0.001501   
    612. D(Au  6,Au 15,Au  5,Au  1)    -76.3369         0.001501   
    613. D(Au  9,Au 15,Au  5,Au  3)     43.9546         0.001501   
    614. D(Au  5,Au 15,Au 14,Au  2)    -51.7123         0.001502   
    615. D(Au  9,Au 15,Au  5,Au 14)   -118.1016         0.001501   
    616. D(Au  9,Au 15,Au  5,Au  6)     46.6682         0.001501   
    617. D(Au  9,Au 15,Au  5,Au  2)    -71.2571         0.001501   
    618. D(Au  9,Au 15,Au  5,Au  1)    -29.6687         0.001501   
    619. D(Au 11,Mn 16,Au 12,Au  9)     99.6799         0.001578   
    620. D(Au  8,Mn 16,Au 12,Au  9)     52.2639         0.001578   
    621. D(Au  7,Mn 16,Au 12,Au  9)    -90.2363         0.001578   
    622. D(Au  0,Mn 16,Au 12,Au  9)     30.9129         0.001578   
    623. D(Au 12,Mn 16,Au 11,Au 13)   -101.4245         0.001598   
    624. D(Au  8,Mn 16,Au 11,Au 13)    -54.3093         0.001598   
    625. D(Au  4,Mn 16,Au 11,Au 13)     96.0110         0.001598   
    626. D(Au  0,Mn 16,Au 11,Au 13)     53.7698         0.001598   
    627. D(Au 12,Mn 16,Au  8,Au 10)   -115.8513         0.001512   
    628. D(Au 12,Mn 16,Au  8,Au 13)   -173.5224         0.001512   
    629. D(Au 12,Mn 16,Au  8,Au  9)    -54.3951         0.001512   
    630. D(Au 11,Mn 16,Au  8,Au 10)    115.4904         0.001512   
    631. D(Au 11,Mn 16,Au  8,Au 13)     57.8193         0.001512   
    632. D(Au  7,Mn 16,Au  8,Au 10)    -76.6736         0.001512   
    633. D(Au  7,Mn 16,Au  8,Au 13)   -134.3447         0.001512   
    634. D(Au  7,Mn 16,Au  8,Au  9)    -15.2174         0.001512   
    635. D(Au  4,Mn 16,Au  8,Au 13)    -37.7981         0.001512   
    636. D(Au  4,Mn 16,Au  8,Au  9)     81.3292         0.001512   
    637. D(Au  0,Mn 16,Au  8,Au 10)     55.5700         0.001512   
    638. D(Au  0,Mn 16,Au  8,Au  9)    117.0262         0.001512   
    639. D(Au 12,Mn 16,Au  7,Au  3)    141.1016         0.001581   
    640. D(Au 12,Mn 16,Au  7,Au  6)     80.4445         0.001581   
    641. D(Au 11,Mn 16,Au  7,Au  3)   -159.6166         0.001581   
    642. D(Au 11,Mn 16,Au  7,Au  6)    139.7263         0.001581   
    643. D(Au  8,Mn 16,Au  7,Au  3)    103.0499         0.001581   
    644. D(Au  8,Mn 16,Au  7,Au  6)     42.3928         0.001581   
    645. D(Au  4,Mn 16,Au  7,Au  3)    -48.2171         0.001581   
    646. D(Au  4,Mn 16,Au  7,Au  6)   -108.8742         0.001581   
    647. D(Au  0,Mn 16,Au  7,Au  3)    -13.9315         0.001581   
    648. D(Au  0,Mn 16,Au  7,Au  6)    -74.5886         0.001581   
    649. D(Au 12,Mn 16,Au  4,Au  3)     57.3980         0.001565   
    650. D(Au 12,Mn 16,Au  4,Au  1)    115.8247         0.001565   
    651. D(Au 11,Mn 16,Au  4,Au  3)   -145.7578         0.001565   
    652. D(Au 11,Mn 16,Au  4,Au  1)    -87.3312         0.001565   
    653. D(Au  8,Mn 16,Au  4,Au  3)    -63.3205         0.001565   
    654. D(Au  0,Mn 16,Au  8,Au 13)     -2.1012         0.001512   
    655. D(Au  8,Mn 16,Au  4,Au  1)     -4.8939         0.001565   
    656. D(Au  7,Mn 16,Au  4,Au  3)     45.6054         0.001565   
    657. D(Au  7,Mn 16,Au  4,Au  1)    104.0320         0.001565   
    658. D(Au  4,Mn 16,Au  8,Au 10)     19.8730         0.001512   
    659. D(Au  0,Mn 16,Au  4,Au  3)   -103.3455         0.001565   
    660. D(Au  0,Mn 16,Au  4,Au  1)    -44.9188         0.001565   
    661. D(Au 12,Mn 16,Au  0,Au 13)     21.1289         0.001526   
    662. D(Au 11,Mn 16,Au  8,Au  9)    176.9466         0.001512   
    663. D(Au 12,Mn 16,Au  0,Au  1)    -97.1422         0.001526   
    664. D(Au 12,Mn 16,Au  0,Au  2)    -36.1173         0.001526   
    665. D(Au 11,Mn 16,Au  0,Au 13)    -56.7642         0.001526   
    666. D(Au 11,Mn 16,Au  0,Au  1)   -175.0353         0.001526   
    667. D(Au 11,Mn 16,Au  0,Au  2)   -114.0104         0.001526   
    668. D(Au  8,Mn 16,Au  0,Au 13)      2.0907         0.001526   
    669. D(Au  8,Mn 16,Au  0,Au  1)   -116.1805         0.001526   
    670. D(Au  7,Mn 16,Au 11,Au 13)   -157.1922         0.001598   
    671. D(Au  8,Mn 16,Au  0,Au  2)    -55.1555         0.001526   
    672. D(Au  7,Mn 16,Au  0,Au 13)    130.0388         0.001526   
    673. D(Au  7,Mn 16,Au  0,Au  1)     11.7676         0.001526   
    674. D(Au  4,Mn 16,Au 12,Au  9)   -102.1734         0.001578   
    675. D(Au  7,Mn 16,Au  0,Au  2)     72.7925         0.001526   
    676. D(Au  4,Mn 16,Au  0,Au 13)    165.2799         0.001526   
    677. D(Au  4,Mn 16,Au  0,Au  1)     47.0087         0.001526   
    678. D(Au  4,Mn 16,Au  0,Au  2)    108.0337         0.001526   
    -----------------------------------------------------------------

Number of atoms                         .... 17
Number of degrees of freedom            .... 678

         *************************************************************
         *                GEOMETRY OPTIMIZATION CYCLE   1            *
         *************************************************************
---------------------------------
CARTESIAN COORDINATES (ANGSTROEM)
---------------------------------
  Au     4.397595    6.506807    6.874331
  Au     6.150258    6.464390    4.704580
  Au     6.831038    5.054925    7.031483
  Au     7.367123    9.001651    4.566885
  Au     4.548091    8.804115    5.291753
  Au     8.735594    6.900327    5.740262
  Au     8.865670    9.659665    6.850474
  Au     6.243357   10.674923    6.533802
  Au     5.931344    8.053911   10.220979
  Au     8.396646    9.137020    9.570245
  Au     7.987712    6.262035    9.469414
  Au     3.370503    7.652879    9.184035
  Au     6.007665   10.666554    9.258690
  Au     5.304544    5.443916    9.341688
  Au     9.568089    4.915544    7.520456
  Au    10.161698    7.568854    8.136981
  Mn     4.919771    8.965190    7.790219

----------------------------
CARTESIAN COORDINATES (A.U.)
----------------------------
  NO LB      ZA    FRAG     MASS         X           Y           Z
   0 Au   19.0000*   0   196.966    8.310251   12.296083   12.990603
   1 Au   19.0000*   0   196.966   11.622304   12.215926    8.890367
   2 Au   19.0000*   0   196.966   12.908791    9.552424   13.287578
   3 Au   19.0000*   0   196.966   13.921844   17.010655    8.630162
   4 Au   19.0000*   0   196.966    8.594647   16.637366    9.999964
   5 Au   19.0000*   0   196.966   16.507880   13.039728   10.847523
   6 Au   19.0000*   0   196.966   16.753688   18.254122   12.945520
   7 Au   19.0000*   0   196.966   11.798235   20.172681   12.347097
   8 Au   19.0000*   0   196.966   11.208616   15.219686   19.314851
   9 Au   19.0000*   0   196.966   15.867361   17.266466   18.085143
  10 Au   19.0000*   0   196.966   15.094588   11.833531   17.894599
  11 Au   19.0000*   0   196.966    6.369327   14.461846   17.355311
  12 Au   19.0000*   0   196.966   11.352841   20.156866   17.496389
  13 Au   19.0000*   0   196.966   10.024136   10.287509   17.653232
  14 Au   19.0000*   0   196.966   18.081068    9.289032   14.211602
  15 Au   19.0000*   0   196.966   19.202826   14.303061   15.376666
  16 Mn   25.0000    0    54.940    9.297021   16.941754   14.721380
* core charge reduced due to ECP

--------------------------------
INTERNAL COORDINATES (ANGSTROEM)
--------------------------------
 Au     0   0   0     0.000000000000     0.00000000     0.00000000
 Au     1   0   0     2.789524946309     0.00000000     0.00000000
 Au     2   1   0     2.804377199922    60.97292471     0.00000000
 Au     2   1   3     2.817341489066   107.19930454   252.95423939
 Au     1   2   3     2.793712214548    62.48625298   146.42149689
 Au     4   2   1     2.768589539342    60.60967872    99.51304391
 Au     4   2   1     2.809520526701   113.67689448    61.35489413
 Au     5   1   2     2.813633694948   109.21746569   261.28010252
 Au     1   2   3     3.993240368346   114.61029789    60.46857555
 Au     9   1   2     2.770251364172   107.24259561     8.23668175
 Au     9   1   2     2.829190496187    79.11466841   311.73166375
 Au     1   2   3     2.775451868674   152.38540232    95.21228597
 Au     8   5   1     2.735075206331   112.69587502   323.30611044
 Au     3   2   1     2.796165738873   118.88739920   349.74198766
 Au     3   2   1     2.783876797325   114.17818551   211.43513729
 Au    10   9   1     2.762028164141   117.94400508   310.53353004
 Mn    12   1   2     2.462745943864    61.06940473    10.62437492

---------------------------
INTERNAL COORDINATES (A.U.)
---------------------------
 Au     0   0   0     0.000000000000     0.00000000     0.00000000
 Au     1   0   0     5.271438192265     0.00000000     0.00000000
 Au     2   1   0     5.299504884065    60.97292471     0.00000000
 Au     2   1   3     5.324003840069   107.19930454   252.95423939
 Au     1   2   3     5.279350982486    62.48625298   146.42149689
 Au     4   2   1     5.231876006595    60.60967872    99.51304391
 Au     4   2   1     5.309224363095   113.67689448    61.35489413
 Au     5   1   2     5.316997124625   109.21746569   261.28010252
 Au     1   2   3     7.546130683093   114.61029789    60.46857555
 Au     9   1   2     5.235016400406   107.24259561     8.23668175
 Au     9   1   2     5.346395218486    79.11466841   311.73166375
 Au     1   2   3     5.244843929675   152.38540232    95.21228597
 Au     8   5   1     5.168543095643   112.69587502   323.30611044
 Au     3   2   1     5.283987471524   118.88739920   349.74198766
 Au     3   2   1     5.260764737521   114.17818551   211.43513729
 Au    10   9   1     5.219476804403   117.94400508   310.53353004
 Mn    12   1   2     4.653915371328    61.06940473    10.62437492

---------------------
BASIS SET INFORMATION
---------------------
There are 2 groups of distinct atoms

 Group   1 Type Au  : 8s7p6d1f contracted to 6s4p3d1f pattern {311111/4111/411/1}
 Group   2 Type Mn  : 17s11p7d1f contracted to 6s4p4d1f pattern {842111/6311/4111/1}

Atom   0Au   basis set group =>   1
Atom   1Au   basis set group =>   1
Atom   2Au   basis set group =>   1
Atom   3Au   basis set group =>   1
Atom   4Au   basis set group =>   1
Atom   5Au   basis set group =>   1
Atom   6Au   basis set group =>   1
Atom   7Au   basis set group =>   1
Atom   8Au   basis set group =>   1
Atom   9Au   basis set group =>   1
Atom  10Au   basis set group =>   1
Atom  11Au   basis set group =>   1
Atom  12Au   basis set group =>   1
Atom  13Au   basis set group =>   1
Atom  14Au   basis set group =>   1
Atom  15Au   basis set group =>   1
Atom  16Mn   basis set group =>   2
---------------------------------
AUXILIARY/J BASIS SET INFORMATION
---------------------------------
There are 2 groups of distinct atoms

 Group   1 Type Au  : 11s5p5d3f3g contracted to 8s5p5d2f3g pattern {41111111/11111/11111/21/111}
 Group   2 Type Mn  : 19s5p5d3f3g contracted to 8s5p5d2f3g pattern {121111111/11111/11111/21/111}

Atom   0Au   basis set group =>   1
Atom   1Au   basis set group =>   1
Atom   2Au   basis set group =>   1
Atom   3Au   basis set group =>   1
Atom   4Au   basis set group =>   1
Atom   5Au   basis set group =>   1
Atom   6Au   basis set group =>   1
Atom   7Au   basis set group =>   1
Atom   8Au   basis set group =>   1
Atom   9Au   basis set group =>   1
Atom  10Au   basis set group =>   1
Atom  11Au   basis set group =>   1
Atom  12Au   basis set group =>   1
Atom  13Au   basis set group =>   1
Atom  14Au   basis set group =>   1
Atom  15Au   basis set group =>   1
Atom  16Mn   basis set group =>   2
-------------------------
ECP PARAMETER INFORMATION
-------------------------

 Group 1, Type Au ECP Def2-ECP (replacing 60 core electrons, lmax=3)

Atom   0Au   ECP group =>   1
Atom   1Au   ECP group =>   1
Atom   2Au   ECP group =>   1
Atom   3Au   ECP group =>   1
Atom   4Au   ECP group =>   1
Atom   5Au   ECP group =>   1
Atom   6Au   ECP group =>   1
Atom   7Au   ECP group =>   1
Atom   8Au   ECP group =>   1
Atom   9Au   ECP group =>   1
Atom  10Au   ECP group =>   1
Atom  11Au   ECP group =>   1
Atom  12Au   ECP group =>   1
Atom  13Au   ECP group =>   1
Atom  14Au   ECP group =>   1
Atom  15Au   ECP group =>   1

------------------------------------------------------------------------------
                           ORCA GTO INTEGRAL CALCULATION
                           -- RI-GTO INTEGRALS CHOSEN --
------------------------------------------------------------------------------
------------------------------------------------------------------------------
                   ___                                                        
                  /   \      - P O W E R E D   B Y -                         
                 /     \                                                     
                 |  |  |   _    _      __       _____    __    __             
                 |  |  |  | |  | |    /  \     |  _  \  |  |  /  |          
                  \  \/   | |  | |   /    \    | | | |  |  | /  /          
                 / \  \   | |__| |  /  /\  \   | |_| |  |  |/  /          
                |  |  |   |  __  | /  /__\  \  |    /   |      \           
                |  |  |   | |  | | |   __   |  |    \   |  |\   \          
                \     /   | |  | | |  |  |  |  | |\  \  |  | \   \       
                 \___/    |_|  |_| |__|  |__|  |_| \__\ |__|  \__/        
                                                                              
                      - O R C A' S   B I G   F R I E N D -                    
                                      &                                       
                       - I N T E G R A L  F E E D E R -                       
                                                                              
 v1 FN, 2020, v2 2021                                                         
------------------------------------------------------------------------------


Reading SHARK input file pbe.SHARKINP.tmp ... ok
----------------------
SHARK INTEGRAL PACKAGE
----------------------

Number of atoms                             ...     17
Number of basis functions                   ...    685
Number of shells                            ...    239
Maximum angular momentum                    ...      3
Integral batch strategy                     ... SHARK/LIBINT Hybrid
RI-J (if used) integral strategy            ... SPLIT-RIJ (Revised 2003 algorithm where possible)
Printlevel                                  ...      1
Contraction scheme used                     ... SEGMENTED contraction
Coulomb Range Separation                    ... NOT USED
Exchange Range Separation                   ... NOT USED
Finite Nucleus Model                        ... NOT USED
Auxiliary Coulomb fitting basis             ... AVAILABLE
   # of basis functions in Aux-J            ...   1513
   # of shells in Aux-J                     ...    391
   Maximum angular momentum in Aux-J        ...      4
Auxiliary J/K fitting basis                 ... NOT available
Auxiliary Correlation fitting basis         ... NOT available
Auxiliary 'external' fitting basis          ... NOT available
Integral threshold                          ...     2.500000e-11
Primitive cut-off                           ...     2.500000e-12
Primitive pair pre-selection threshold      ...     2.500000e-12

Calculating pre-screening integrals         ... done (  0.8 sec) Dimension = 239
Organizing shell pair data                  ... done (  2.1 sec)
Shell pair information
Total number of shell pairs                 ...     28680
Shell pairs after pre-screening             ...     22033
Total number of primitive shell pairs       ...     75765
Primitive shell pairs kept                  ...     41235
          la=0 lb=0:   3493 shell pairs
          la=1 lb=0:   5037 shell pairs
          la=1 lb=1:   1890 shell pairs
          la=2 lb=0:   4363 shell pairs
          la=2 lb=1:   3114 shell pairs
          la=2 lb=2:   1292 shell pairs
          la=3 lb=0:   1105 shell pairs
          la=3 lb=1:    856 shell pairs
          la=3 lb=2:    769 shell pairs
          la=3 lb=3:    114 shell pairs

Calculating one electron integrals          ... done (  0.2 sec)
Calculating ECP integrals                   ... done ( 17.7 sec)
Calculating RI/J V-Matrix + Cholesky decomp.... done (  0.2 sec)
Calculating Nuclear repulsion               ... done (  0.0 sec) ENN=   6777.574276827730 Eh

SHARK setup successfully completed in  22.2 seconds

Maximum memory used throughout the entire GTOINT-calculation: 602.7 MB
-------------------------------------------------------------------------------
                                 ORCA SCF
-------------------------------------------------------------------------------

------------
SCF SETTINGS
------------
Hamiltonian:
 Density Functional     Method          .... DFT(GTOs)
 Exchange Functional    Exchange        .... PBE
   PBE kappa parameter   XKappa         ....  0.804000
   PBE mue parameter    XMuePBE         ....  0.219520
 Correlation Functional Correlation     .... PBE
   PBE beta parameter  CBetaPBE         ....  0.066725
 LDA part of GGA corr.  LDAOpt          .... PW91-LDA
 Gradients option       PostSCFGGA      .... off
   Density functional embedding theory  .... OFF
   NL short-range parameter             ....  6.400000
 RI-approximation to the Coulomb term is turned on
   Number of AuxJ basis functions       .... 1513


General Settings:
 Integral files         IntName         .... pbe
 Hartree-Fock type      HFTyp           .... UHF
 Total Charge           Charge          ....    0
 Multiplicity           Mult            ....    4
 Number of Electrons    NEL             ....  329
 Basis Dimension        Dim             ....  685
 Nuclear Repulsion      ENuc            ....   6777.5742768277 Eh

Convergence Acceleration:
 DIIS                   CNVDIIS         .... off
 Trust-Rad. Augm. Hess. CNVTRAH         .... auto
   Auto Start mean grad. ratio tolernc. ....  1.125000
   Auto Start start iteration           ....    20
   Auto Start num. interpolation iter.  ....    10
   Max. Number of Micro iterations      ....    16
   Max. Number of Macro iterations      .... Maxiter - #DIIS iter
   Number of Davidson start vectors     ....     2
   Converg. threshold I  (grad. norm)   ....   1.000e-05
   Converg. threshold II (energy diff.) ....   1.000e-08
   Grad. Scal. Fac. for Micro threshold ....   0.100
   Minimum threshold for Micro iter.    ....   0.010
   NR start threshold (gradient norm)   ....   0.001
   Initial trust radius                 ....   0.400
   Minimum AH scaling param. (alpha)    ....   1.000
   Maximum AH scaling param. (alpha)    .... 1000.000
   Orbital update algorithm             .... Taylor
   White noise on init. David. guess    .... on
   Maximum white noise                  ....   0.010
   Quad. conv. algorithm                .... NR
 SOSCF                  CNVSOSCF        .... off
 Level Shifting         CNVShift        .... off
 Zerner damping         CNVZerner       .... off
 Static damping         CNVDamp         .... off
 Fernandez-Rico         CNVRico         .... off

SCF Procedure:
 Maximum # iterations   MaxIter         ....   125
 SCF integral mode      SCFMode         .... Direct
   Integral package                     .... SHARK and LIBINT hybrid scheme
 Reset frequency        DirectResetFreq ....    20
 Integral Threshold     Thresh          ....  2.500e-11 Eh
 Primitive CutOff       TCut            ....  2.500e-12 Eh

Convergence Tolerance:
 Convergence Check Mode ConvCheckMode   .... Total+1el-Energy
 Convergence forced     ConvForced      .... 0
 Energy Change          TolE            ....  1.000e-08 Eh
 1-El. energy change                    ....  1.000e-05 Eh


Diagonalization of the overlap matrix:
Smallest eigenvalue                        ... 4.625e-04
Time for diagonalization                   ...    0.154 sec
Threshold for overlap eigenvalues          ... 1.000e-08
Number of eigenvalues below threshold      ... 0
Time for construction of square roots      ...    0.076 sec
Total time needed                          ...    0.231 sec

Time for model grid setup =    2.741 sec

------------------------------
INITIAL GUESS: MODEL POTENTIAL
------------------------------
Loading Hartree-Fock densities                     ... done
  calling /home/ehlert/src/miniconda3/envs/orca500/Programs/ORCA501/orca pbe_atom79.inp > pbe_atom79.out in order to generate an atomic fitting density for atom 0 (Au with ECP) on-the-fly... 
    atom 0 (Au), assumed electronic state with S=2: 1s2 2s2 2p6 3s2 3p6 4s2 3d10 4p6 5s2 4d10 5p6 6s1 4f14 5d10           ... done
Calculating cut-offs                               ... done
Initializing the effective Hamiltonian             ... done
Setting up the integral package (SHARK)            ... done
Starting the Coulomb interaction                   ... done (   4.6 sec)
Reading the grid                                   ... done
Mapping shells                                     ... done
Starting the XC term evaluation                    ... done (   5.1 sec)
  promolecular density results
     # of electrons  =   1289.015775105
     EX              =  -5903.693010502
     EC              =    -78.579080117
     EX+EC           =  -5982.272090619
Transforming the Hamiltonian                       ... done (   0.1 sec)
Diagonalizing the Hamiltonian                      ... done (   0.2 sec)
Back transforming the eigenvectors                 ... done (   0.0 sec)
Now organizing SCF variables                       ... done
                      ------------------
                      INITIAL GUESS DONE (  14.2 sec)
                      ------------------
-------------------
DFT GRID GENERATION
-------------------

General Integration Accuracy     IntAcc      ... 4.388
Radial Grid Type                 RadialGrid  ... OptM3 with GC (2021)
Angular Grid (max. ang.)         AngularGrid ... 4 (Lebedev-302)
Angular grid pruning method      GridPruning ... 4 (adaptive)
Weight generation scheme         WeightScheme... Becke
Basis function cutoff            BFCut       ... 1.0000e-11
Integration weight cutoff        WCut        ... 1.0000e-14
Angular grids for H and He will be reduced by one unit
Partially contracted basis set               ... off
Rotationally invariant grid construction     ... off

Total number of grid points                  ...   187436
Total number of batches                      ...     2936
Average number of points per batch           ...       63
Average number of grid points per atom       ...    11026
Time for grid setup =    6.140 sec

--------------
SCF ITERATIONS
--------------
ITER       Energy         Delta-E        Max-DP      RMS-DP      [F,P]   Gradient Norm
               ***  Starting incremental Fock matrix formation  ***
                             ****Resetting KDIIS****
                             ****Turning on KDIIS(Cayley)****
  0  -3321.2752694464   0.000000000000 0.31612845  0.00136272  0.3875179   0.224265520
  1  -3322.8616734034  -1.586403956988 0.26445821  0.00111866  0.3153195   0.165681871
  2  -3323.4321931373  -0.570519733871 0.13037951  0.00099130  0.2489586   0.125172753
  3  -3323.7132171398  -0.281024002548 0.15473019  0.00130345  0.1455400   0.073988353
  4  -3323.8259461930  -0.112729053211 0.11779477  0.00042893  0.0285194   0.018265823
  5  -3323.8598706009  -0.033924407880 0.23553560  0.00071950  0.0279573   0.010944794
  6  -3323.8880724016  -0.028201800690 0.04091018  0.00030095  0.0537351   0.014005502
  7  -3323.9118154887  -0.023743087060 0.02241720  0.00024461  0.0255517   0.004803850
  8  -3323.9190592456  -0.007243756947 0.02846519  0.00021031  0.0241181   0.007404476
  9  -3323.9354454844  -0.016386238794 0.02537672  0.00024171  0.0222928   0.002825310
 10  -3323.9477864630  -0.012340978545 0.04173347  0.00036949  0.0165109   0.004232200
 11  -3323.9637064063  -0.015919943376 0.01742988  0.00012790  0.0083962   0.002578558
 12  -3323.9589900199   0.004716386426 0.03062506  0.00026548  0.0155589   0.007981130
 13  -3323.9694150423  -0.010425022371 0.00732361  0.00006829  0.0077473   0.002834949
 14  -3323.9702308219  -0.000815779672 0.00926472  0.00007111  0.0037451   0.002280938
 15  -3323.9714041147  -0.001173292716 0.00565560  0.00006515  0.0036596   0.001389801
 16  -3323.9722245936  -0.000820478936 0.01007812  0.00004557  0.0033603   0.001201646
 17  -3323.9722276252  -0.000003031616 0.00580344  0.00005711  0.0033478   0.001368959
 18  -3323.9730902252  -0.000862600027 0.00931008  0.00005281  0.0031375   0.000771269
 19  -3323.9734522093  -0.000361984012 0.00440060  0.00002638  0.0036067   0.001809565
               *** Restarting incremental Fock matrix formation ***
                             ****Resetting KDIIS****
 20  -3323.9737701953  -0.000317986041 0.00080599  0.00000644  0.0029540   0.000872276
 21  -3323.9738618385  -0.000091643249 0.00102972  0.00000908  0.0029860   0.000659293

 WARNING: the maximum gradient error descreased on average only by a factor   1.1
          during the last 20 iterations

                      *** Initiating the TRAH-SCF procedure ***

                    *** KDIIS BlockDiag ( 0.350 sec) ***

TRAH GRID
---------

General Integration Accuracy     IntAcc      ... 3.467
Radial Grid Type                 RadialGrid  ... OptM3 with GC (2021)
Angular Grid (max. ang.)         AngularGrid ... 1 (Lebedev-50)
Angular grid pruning method      GridPruning ... 4 (adaptive)
Weight generation scheme         WeightScheme... Becke
Basis function cutoff            BFCut       ... 1.0000e-11
Integration weight cutoff        WCut        ... 1.0000e-14
Angular grids for H and He will be reduced by one unit
Partially contracted basis set               ... off
Rotationally invariant grid construction     ... off

Total number of grid points                  ...    80712
[...]
 300( 0) :     0.470946 a.u.    12.815 eV
 301( 0) :     0.472634 a.u.    12.861 eV
 302( 0) :     0.474537 a.u.    12.913 eV
 303( 0) :     0.478057 a.u.    13.009 eV
 304( 0) :     0.483064 a.u.    13.145 eV
 305( 0) :     0.486896 a.u.    13.249 eV
 306( 0) :     0.487965 a.u.    13.278 eV
 307( 0) :     0.490969 a.u.    13.360 eV
 308( 0) :     0.494333 a.u.    13.451 eV
 309( 0) :     0.499268 a.u.    13.586 eV
 310( 0) :     0.505591 a.u.    13.758 eV
 311( 0) :     0.508516 a.u.    13.837 eV
 312( 0) :     0.509349 a.u.    13.860 eV
 313( 0) :     0.514507 a.u.    14.000 eV
 314( 0) :     0.519929 a.u.    14.148 eV
 315( 0) :     0.522703 a.u.    14.223 eV
 316( 0) :     0.525169 a.u.    14.291 eV
 317( 0) :     0.528529 a.u.    14.382 eV
 318( 0) :     0.537814 a.u.    14.635 eV
 319( 0) :     0.548824 a.u.    14.934 eV
 320( 0) :     0.550939 a.u.    14.992 eV
 321( 0) :     0.553892 a.u.    15.072 eV
 322( 0) :     0.562165 a.u.    15.297 eV
 323( 0) :     0.564920 a.u.    15.372 eV
 324( 0) :     0.574899 a.u.    15.644 eV
 325( 0) :     0.587178 a.u.    15.978 eV
 326( 0) :     0.593780 a.u.    16.158 eV
 327( 0) :     0.604199 a.u.    16.441 eV
 328( 0) :     0.643821 a.u.    17.519 eV
 329( 0) :     0.658021 a.u.    17.906 eV
 330( 0) :     0.672886 a.u.    18.310 eV
 331( 0) :     0.676076 a.u.    18.397 eV
 332( 0) :     0.688344 a.u.    18.731 eV
 333( 0) :     0.690285 a.u.    18.784 eV
 334( 0) :     0.697191 a.u.    18.972 eV
 335( 0) :     0.702912 a.u.    19.127 eV
 336( 0) :     0.707213 a.u.    19.244 eV
 337( 0) :     0.712336 a.u.    19.384 eV
 338( 0) :     0.723381 a.u.    19.684 eV
 339( 0) :     0.733988 a.u.    19.973 eV
 340( 0) :     0.743573 a.u.    20.234 eV
 341( 0) :     0.749043 a.u.    20.382 eV
 342( 0) :     0.749752 a.u.    20.402 eV
 343( 0) :     0.759981 a.u.    20.680 eV
 344( 0) :     0.766270 a.u.    20.851 eV
 345( 0) :     0.774932 a.u.    21.087 eV
 346( 0) :     0.781942 a.u.    21.278 eV
 347( 0) :     0.788140 a.u.    21.446 eV
 348( 0) :     0.793256 a.u.    21.586 eV
 349( 0) :     0.799287 a.u.    21.750 eV
 350( 0) :     0.807866 a.u.    21.983 eV
 351( 0) :     0.812968 a.u.    22.122 eV
 352( 0) :     0.819005 a.u.    22.286 eV
 353( 0) :     0.824119 a.u.    22.425 eV
 354( 0) :     0.828348 a.u.    22.540 eV
 355( 0) :     0.845782 a.u.    23.015 eV
 356( 0) :     0.851162 a.u.    23.161 eV
 357( 0) :     0.862875 a.u.    23.480 eV
 358( 0) :     0.869763 a.u.    23.667 eV
 359( 0) :     0.876716 a.u.    23.857 eV
 360( 0) :     0.885090 a.u.    24.085 eV
 361( 0) :     0.892426 a.u.    24.284 eV
 362( 0) :     0.903683 a.u.    24.590 eV
 363( 0) :     0.908606 a.u.    24.724 eV
 364( 0) :     0.914622 a.u.    24.888 eV
 365( 0) :     0.917391 a.u.    24.963 eV
 366( 0) :     0.923291 a.u.    25.124 eV
 367( 0) :     0.931217 a.u.    25.340 eV
 368( 0) :     0.940743 a.u.    25.599 eV
 369( 0) :     0.941570 a.u.    25.621 eV
 370( 0) :     0.946721 a.u.    25.762 eV
 371( 0) :     0.958886 a.u.    26.093 eV
 372( 0) :     0.965542 a.u.    26.274 eV
 373( 0) :     0.971960 a.u.    26.448 eV
 374( 0) :     0.988844 a.u.    26.908 eV
 375( 0) :     1.001396 a.u.    27.249 eV
 376( 0) :     1.012570 a.u.    27.553 eV
 377( 0) :     1.020842 a.u.    27.779 eV
 378( 0) :     1.047384 a.u.    28.501 eV
 379( 0) :     1.061490 a.u.    28.885 eV
 380( 0) :     1.077867 a.u.    29.330 eV
 381( 0) :     1.189527 a.u.    32.369 eV
 382( 0) :     1.200142 a.u.    32.658 eV
 383( 0) :     1.217669 a.u.    33.134 eV
 384( 0) :     1.228269 a.u.    33.423 eV
 385( 0) :     1.230031 a.u.    33.471 eV
 386( 0) :     1.238729 a.u.    33.708 eV
 387( 0) :     1.241250 a.u.    33.776 eV
 388( 0) :     1.249140 a.u.    33.991 eV
 389( 0) :     1.262459 a.u.    34.353 eV
 390( 0) :     1.275748 a.u.    34.715 eV
 391( 0) :     1.282264 a.u.    34.892 eV
 392( 0) :     1.286918 a.u.    35.019 eV
 393( 0) :     1.295419 a.u.    35.250 eV
 394( 0) :     1.304433 a.u.    35.495 eV
 395( 0) :     1.319264 a.u.    35.899 eV
 396( 0) :     1.320170 a.u.    35.924 eV
 397( 0) :     1.325944 a.u.    36.081 eV
 398( 0) :     1.330449 a.u.    36.203 eV
 399( 0) :     1.337921 a.u.    36.407 eV
 400( 0) :     1.345945 a.u.    36.625 eV
 401( 0) :     1.350979 a.u.    36.762 eV
 402( 0) :     1.360633 a.u.    37.025 eV
 403( 0) :     1.361822 a.u.    37.057 eV
 404( 0) :     1.365008 a.u.    37.144 eV
 405( 0) :     1.371361 a.u.    37.317 eV
 406( 0) :     1.377049 a.u.    37.471 eV
 407( 0) :     1.381208 a.u.    37.585 eV
 408( 0) :     1.386099 a.u.    37.718 eV
 409( 0) :     1.395795 a.u.    37.982 eV
 410( 0) :     1.398585 a.u.    38.057 eV
 411( 0) :     1.405543 a.u.    38.247 eV
 412( 0) :     1.411400 a.u.    38.406 eV
 413( 0) :     1.412904 a.u.    38.447 eV
 414( 0) :     1.414737 a.u.    38.497 eV
 415( 0) :     1.420230 a.u.    38.646 eV
 416( 0) :     1.421432 a.u.    38.679 eV
 417( 0) :     1.422366 a.u.    38.705 eV
 418( 0) :     1.428805 a.u.    38.880 eV
 419( 0) :     1.429690 a.u.    38.904 eV
 420( 0) :     1.434281 a.u.    39.029 eV
 421( 0) :     1.435869 a.u.    39.072 eV
 422( 0) :     1.436237 a.u.    39.082 eV
 423( 0) :     1.440843 a.u.    39.207 eV
 424( 0) :     1.444178 a.u.    39.298 eV
 425( 0) :     1.448103 a.u.    39.405 eV
 426( 0) :     1.450686 a.u.    39.475 eV
 427( 0) :     1.454487 a.u.    39.579 eV
 428( 0) :     1.456659 a.u.    39.638 eV
 429( 0) :     1.458000 a.u.    39.674 eV
 430( 0) :     1.460687 a.u.    39.747 eV
 431( 0) :     1.462094 a.u.    39.786 eV
 432( 0) :     1.463082 a.u.    39.812 eV
 433( 0) :     1.467860 a.u.    39.942 eV
 434( 0) :     1.468679 a.u.    39.965 eV
 435( 0) :     1.471785 a.u.    40.049 eV
 436( 0) :     1.473346 a.u.    40.092 eV
 437( 0) :     1.474587 a.u.    40.126 eV
 438( 0) :     1.476782 a.u.    40.185 eV
 439( 0) :     1.478335 a.u.    40.228 eV
 440( 0) :     1.479109 a.u.    40.249 eV
 441( 0) :     1.480389 a.u.    40.283 eV
 442( 0) :     1.482069 a.u.    40.329 eV
 443( 0) :     1.485364 a.u.    40.419 eV
 444( 0) :     1.486785 a.u.    40.457 eV
 445( 0) :     1.488984 a.u.    40.517 eV
 446( 0) :     1.489701 a.u.    40.537 eV
 447( 0) :     1.492170 a.u.    40.604 eV
 448( 0) :     1.493018 a.u.    40.627 eV
 449( 0) :     1.494392 a.u.    40.664 eV
 450( 0) :     1.496209 a.u.    40.714 eV
 451( 0) :     1.497288 a.u.    40.743 eV
 452( 0) :     1.497954 a.u.    40.761 eV
 453( 0) :     1.498134 a.u.    40.766 eV
 454( 0) :     1.499546 a.u.    40.805 eV
 455( 0) :     1.500661 a.u.    40.835 eV
 456( 0) :     1.503377 a.u.    40.909 eV
 457( 0) :     1.503504 a.u.    40.912 eV
 458( 0) :     1.504128 a.u.    40.929 eV
 459( 0) :     1.505977 a.u.    40.980 eV
 460( 0) :     1.506780 a.u.    41.002 eV
 461( 0) :     1.507059 a.u.    41.009 eV
 462( 0) :     1.508328 a.u.    41.044 eV
 463( 0) :     1.510393 a.u.    41.100 eV
 464( 0) :     1.512276 a.u.    41.151 eV
 465( 0) :     1.514189 a.u.    41.203 eV
 466( 0) :     1.515547 a.u.    41.240 eV
 467( 0) :     1.516199 a.u.    41.258 eV
 468( 0) :     1.516546 a.u.    41.267 eV
 469( 0) :     1.517982 a.u.    41.306 eV
 470( 0) :     1.519466 a.u.    41.347 eV
 471( 0) :     1.521348 a.u.    41.398 eV
 472( 0) :     1.522098 a.u.    41.418 eV
 473( 0) :     1.522987 a.u.    41.443 eV
 474( 0) :     1.525873 a.u.    41.521 eV
 475( 0) :     1.527138 a.u.    41.556 eV
 476( 0) :     1.529295 a.u.    41.614 eV
 477( 0) :     1.531093 a.u.    41.663 eV
 478( 0) :     1.532013 a.u.    41.688 eV
 479( 0) :     1.533006 a.u.    41.715 eV
 480( 0) :     1.534325 a.u.    41.751 eV
 481( 0) :     1.535824 a.u.    41.792 eV
 482( 0) :     1.537247 a.u.    41.831 eV
 483( 0) :     1.538626 a.u.    41.868 eV
 484( 0) :     1.539653 a.u.    41.896 eV
 485( 0) :     1.543147 a.u.    41.991 eV
 486( 0) :     1.546124 a.u.    42.072 eV
 487( 0) :     1.547164 a.u.    42.100 eV
 488( 0) :     1.550445 a.u.    42.190 eV
 489( 0) :     1.552959 a.u.    42.258 eV
 490( 0) :     1.555628 a.u.    42.331 eV
 491( 0) :     1.559717 a.u.    42.442 eV
 492( 0) :     1.564843 a.u.    42.582 eV
 493( 0) :     1.565565 a.u.    42.601 eV
 494( 0) :     1.566147 a.u.    42.617 eV
 495( 0) :     1.570469 a.u.    42.735 eV
 496( 0) :     1.571704 a.u.    42.768 eV
 497( 0) :     1.573389 a.u.    42.814 eV
 498( 0) :     1.576575 a.u.    42.901 eV
 499( 0) :     1.578233 a.u.    42.946 eV
 500( 0) :     1.580051 a.u.    42.995 eV
 501( 0) :     1.582562 a.u.    43.064 eV
 502( 0) :     1.584440 a.u.    43.115 eV
 503( 0) :     1.585592 a.u.    43.146 eV
 504( 0) :     1.587659 a.u.    43.202 eV
 505( 0) :     1.588987 a.u.    43.239 eV
 506( 0) :     1.593363 a.u.    43.358 eV
 507( 0) :     1.594596 a.u.    43.391 eV
 508( 0) :     1.595879 a.u.    43.426 eV
 509( 0) :     1.598453 a.u.    43.496 eV
 510( 0) :     1.600468 a.u.    43.551 eV
 511( 0) :     1.601222 a.u.    43.571 eV
 512( 0) :     1.608218 a.u.    43.762 eV
 513( 0) :     1.609558 a.u.    43.798 eV
 514( 0) :     1.613591 a.u.    43.908 eV
 515( 0) :     1.615773 a.u.    43.967 eV
 516( 0) :     1.618340 a.u.    44.037 eV
 517( 0) :     1.620300 a.u.    44.091 eV
 518( 0) :     1.622666 a.u.    44.155 eV
 519( 0) :     1.625024 a.u.    44.219 eV
 520( 0) :     1.628702 a.u.    44.319 eV
 521( 0) :     1.630097 a.u.    44.357 eV
 522( 0) :     1.633992 a.u.    44.463 eV
 523( 0) :     1.641550 a.u.    44.669 eV
 524( 0) :     1.645264 a.u.    44.770 eV
 525( 0) :     1.645678 a.u.    44.781 eV
 526( 0) :     1.650919 a.u.    44.924 eV
 527( 0) :     1.653793 a.u.    45.002 eV
 528( 0) :     1.663910 a.u.    45.277 eV
 529( 0) :     1.666873 a.u.    45.358 eV
 530( 0) :     1.667905 a.u.    45.386 eV
 531( 0) :     1.675938 a.u.    45.605 eV
 532( 0) :     1.679264 a.u.    45.695 eV
 533( 0) :     1.683913 a.u.    45.822 eV
 534( 0) :     1.691682 a.u.    46.033 eV
 535( 0) :     1.694475 a.u.    46.109 eV
 536( 0) :     1.697016 a.u.    46.178 eV
 537( 0) :     1.699480 a.u.    46.245 eV
 538( 0) :     1.710176 a.u.    46.536 eV
 539( 0) :     1.719341 a.u.    46.786 eV
 540( 0) :     1.723002 a.u.    46.885 eV
 541( 0) :     1.732876 a.u.    47.154 eV
 542( 0) :     1.737327 a.u.    47.275 eV
 543( 0) :     1.739805 a.u.    47.343 eV
 544( 0) :     1.746164 a.u.    47.516 eV
 545( 0) :     1.751294 a.u.    47.655 eV
 546( 0) :     1.756759 a.u.    47.804 eV
 547( 0) :     1.762319 a.u.    47.955 eV
 548( 0) :     1.763534 a.u.    47.988 eV
 549( 0) :     1.772395 a.u.    48.229 eV
 550( 0) :     1.777364 a.u.    48.365 eV
 551( 0) :     1.781554 a.u.    48.479 eV
 552( 0) :     1.788729 a.u.    48.674 eV
 553( 0) :     1.793815 a.u.    48.812 eV
 554( 0) :     1.797416 a.u.    48.910 eV
 555( 0) :     1.805110 a.u.    49.120 eV
 556( 0) :     1.805672 a.u.    49.135 eV
 557( 0) :     1.807248 a.u.    49.178 eV
 558( 0) :     1.812654 a.u.    49.325 eV
 559( 0) :     1.818662 a.u.    49.488 eV
 560( 0) :     1.832486 a.u.    49.864 eV
 561( 0) :     1.844831 a.u.    50.200 eV
 562( 0) :     1.846181 a.u.    50.237 eV
 563( 0) :     1.850657 a.u.    50.359 eV
 564( 0) :     1.853668 a.u.    50.441 eV
 565( 0) :     1.870838 a.u.    50.908 eV
 566( 0) :     1.874421 a.u.    51.006 eV
 567( 0) :     1.882086 a.u.    51.214 eV
 568( 0) :     1.891432 a.u.    51.468 eV
 569( 0) :     1.905786 a.u.    51.859 eV
 570( 0) :     1.919460 a.u.    52.231 eV
 571( 0) :     1.921364 a.u.    52.283 eV
 572( 0) :     1.929026 a.u.    52.491 eV
 573( 0) :     1.937020 a.u.    52.709 eV
 574( 0) :     2.041132 a.u.    55.542 eV
 575( 0) :     2.099261 a.u.    57.124 eV
 576( 0) :     2.123193 a.u.    57.775 eV
 577( 0) :     2.252723 a.u.    61.300 eV
 578( 0) :     2.268752 a.u.    61.736 eV
 579( 0) :     2.288387 a.u.    62.270 eV
 580( 0) :     2.380383 a.u.    64.774 eV
 581( 0) :     2.391027 a.u.    65.063 eV
 582( 0) :     2.422630 a.u.    65.923 eV
 583( 0) :     2.422782 a.u.    65.927 eV
 584( 0) :     2.478297 a.u.    67.438 eV
 585( 0) :     2.480865 a.u.    67.508 eV
 586( 0) :     2.508460 a.u.    68.259 eV
 587( 0) :     2.517294 a.u.    68.499 eV
 588( 0) :     2.549174 a.u.    69.367 eV
 589( 0) :     2.557209 a.u.    69.585 eV
 590( 0) :     2.579450 a.u.    70.190 eV
 591( 0) :     2.594976 a.u.    70.613 eV
 592( 0) :     2.758339 a.u.    75.058 eV
 593( 0) :     3.194121 a.u.    86.916 eV
 594( 0) :     3.200602 a.u.    87.093 eV
 595( 0) :     3.210843 a.u.    87.371 eV
 596( 0) :     3.216368 a.u.    87.522 eV
 597( 0) :     3.231329 a.u.    87.929 eV
 598( 0) :     3.237330 a.u.    88.092 eV
 599( 0) :     3.247042 a.u.    88.356 eV
 600( 0) :     3.250898 a.u.    88.461 eV
 601( 0) :     3.267456 a.u.    88.912 eV
 602( 0) :     3.296842 a.u.    89.712 eV
 603( 0) :     3.345535 a.u.    91.037 eV
 604( 0) :     3.438182 a.u.    93.558 eV
 605( 0) :    23.857309 a.u.   649.190 eV
 606( 0) :    24.012899 a.u.   653.424 eV
 607( 0) :    24.135875 a.u.   656.771 eV
 608( 0) :    24.306008 a.u.   661.400 eV
 609( 0) :    24.355170 a.u.   662.738 eV
 610( 0) :    24.434194 a.u.   664.888 eV
 611( 0) :    24.542713 a.u.   667.841 eV
 612( 0) :    24.644272 a.u.   670.605 eV
 613( 0) :    24.724415 a.u.   672.786 eV
 614( 0) :    24.756407 a.u.   673.656 eV
 615( 0) :    25.020862 a.u.   680.852 eV
 616( 0) :    25.161141 a.u.   684.669 eV
 617( 0) :    25.246032 a.u.   686.979 eV
 618( 0) :    25.301947 a.u.   688.501 eV
 619( 0) :    25.425027 a.u.   691.850 eV
 620( 0) :    25.450362 a.u.   692.540 eV
 621( 0) :    25.479563 a.u.   693.334 eV
 622( 0) :    25.623919 a.u.   697.262 eV
 623( 0) :    25.641095 a.u.   697.730 eV
 624( 0) :    25.722603 a.u.   699.948 eV
 625( 0) :    25.763583 a.u.   701.063 eV
 626( 0) :    25.825852 a.u.   702.757 eV
 627( 0) :    25.938605 a.u.   705.825 eV
 628( 0) :    26.063527 a.u.   709.225 eV
 629( 0) :    26.102034 a.u.   710.272 eV
 630( 0) :    26.120566 a.u.   710.777 eV
 631( 0) :    26.224675 a.u.   713.610 eV
 632( 0) :    26.374935 a.u.   717.698 eV
 633( 0) :    26.428955 a.u.   719.168 eV
 634( 0) :    26.443837 a.u.   719.573 eV
 635( 0) :    26.554442 a.u.   722.583 eV
 636( 0) :    26.589401 a.u.   723.534 eV
 637( 0) :    26.647761 a.u.   725.122 eV
 638( 0) :    26.688967 a.u.   726.244 eV
 639( 0) :    26.787350 a.u.   728.921 eV
 640( 0) :    26.907290 a.u.   732.185 eV
 641( 0) :    26.912213 a.u.   732.319 eV
 642( 0) :    27.016533 a.u.   735.157 eV
 643( 0) :    27.197304 a.u.   740.076 eV
 644( 0) :    27.378781 a.u.   745.015 eV
 645( 0) :    27.398029 a.u.   745.538 eV
 646( 0) :    27.499051 a.u.   748.287 eV
 647( 0) :    27.556405 a.u.   749.848 eV
 648( 0) :    27.700658 a.u.   753.773 eV
 649( 0) :    27.831510 a.u.   757.334 eV
 650( 0) :    27.832892 a.u.   757.371 eV
 651( 0) :    28.043834 a.u.   763.112 eV
 652( 0) :    28.109246 a.u.   764.891 eV
 653( 0) :    43.848108 a.u.  1193.168 eV
 654( 0) :    43.985210 a.u.  1196.898 eV
 655( 0) :    44.005780 a.u.  1197.458 eV
 656( 0) :    44.030838 a.u.  1198.140 eV
 657( 0) :    44.096652 a.u.  1199.931 eV
 658( 0) :    44.106649 a.u.  1200.203 eV
 659( 0) :    44.139961 a.u.  1201.109 eV
 660( 0) :    44.145103 a.u.  1201.249 eV
 661( 0) :    44.153980 a.u.  1201.491 eV
 662( 0) :    44.169331 a.u.  1201.909 eV
 663( 0) :    44.182753 a.u.  1202.274 eV
 664( 0) :    44.200503 a.u.  1202.757 eV
 665( 0) :    44.222864 a.u.  1203.365 eV
 666( 0) :    44.245540 a.u.  1203.982 eV
 667( 0) :    44.264494 a.u.  1204.498 eV
 668( 0) :    44.275427 a.u.  1204.796 eV
 669( 0) :   205.066061 a.u.  5580.131 eV
 670( 0) :   205.122121 a.u.  5581.657 eV
 671( 0) :   205.130187 a.u.  5581.876 eV
 672( 0) :   205.141231 a.u.  5582.177 eV
 673( 0) :   205.169394 a.u.  5582.943 eV
 674( 0) :   205.174030 a.u.  5583.069 eV
 675( 0) :   205.185839 a.u.  5583.391 eV
 676( 0) :   205.190322 a.u.  5583.513 eV
 677( 0) :   205.195650 a.u.  5583.657 eV
 678( 0) :   205.204595 a.u.  5583.901 eV
 679( 0) :   205.206866 a.u.  5583.963 eV
 680( 0) :   205.215577 a.u.  5584.200 eV
 681( 0) :   205.221419 a.u.  5584.359 eV
 682( 0) :   205.229917 a.u.  5584.590 eV
 683( 0) :   205.241294 a.u.  5584.900 eV
 684( 0) :   205.246889 a.u.  5585.052 eV
-------
TIMINGS
-------

Total SCF time: 0 days 0 hours 14 min 46 sec 

Total time                  ....     886.868 sec
Sum of individual times     ....     877.732 sec  ( 99.0%)

Fock matrix formation       ....     852.420 sec  ( 96.1%)
  Split-RI-J                ....     323.291 sec  ( 37.9% of F)
  XC integration            ....     527.566 sec  ( 61.9% of F)
    Basis function eval.    ....      70.704 sec  ( 13.4% of XC)
    Density eval.           ....     250.972 sec  ( 47.6% of XC)
    XC-Functional eval.     ....       8.385 sec  (  1.6% of XC)
    XC-Potential eval.      ....     173.445 sec  ( 32.9% of XC)
Diagonalization             ....       8.159 sec  (  0.9%)
Density matrix formation    ....       1.391 sec  (  0.2%)
Population analysis         ....       5.912 sec  (  0.7%)
Initial guess               ....       0.582 sec  (  0.1%)
Orbital Transformation      ....       3.181 sec  (  0.4%)
Orbital Orthonormalization  ....       0.508 sec  (  0.1%)
DIIS solution               ....       0.000 sec  (  0.0%)
Grid generation             ....       6.082 sec  (  0.7%)

Maximum memory used throughout the entire SCF-calculation: 731.7 MB

-------------------------   --------------------
FINAL SINGLE POINT ENERGY     -3324.015582063740
-------------------------   --------------------

                                *** OPTIMIZATION RUN DONE ***

                            ***************************************
                            *     ORCA property calculations      *
                            ***************************************

                                    ---------------------
                                    Active property flags
                                    ---------------------
   (+) Dipole Moment


------------------------------------------------------------------------------
                       ORCA ELECTRIC PROPERTIES CALCULATION
------------------------------------------------------------------------------

Dipole Moment Calculation                       ... on
Quadrupole Moment Calculation                   ... off
Polarizability Calculation                      ... off
GBWName                                         ... pbe.gbw
Electron density                                ... pbe.scfp
The origin for moment calculation is the CENTER OF MASS  = (12.936458, 14.527895 14.215283)

-------------
DIPOLE MOMENT
-------------
                                X             Y             Z
Electronic contribution:     81.81412     -53.50314     -10.36436
Nuclear contribution   :    -82.08234      53.67245      10.60558
                        -----------------------------------------
Total Dipole Moment    :     -0.26822       0.16931       0.24122
                        -----------------------------------------
Magnitude (a.u.)       :      0.39849
Magnitude (Debye)      :      1.01289



--------------------
Rotational spectrum 
--------------------
 
Rotational constants in cm-1:     0.000860     0.000779     0.000758 
Rotational constants in MHz :    25.779943    23.363435    22.710583 

 Dipole components along the rotational axes: 
x,y,z [a.u.] :     0.269661    -0.256332    -0.142739 
x,y,z [Debye]:     0.685423    -0.651544    -0.362814 

 

Timings for individual modules:

Sum of individual times         ...    49248.405 sec (= 820.807 min)
GTO integral calculation        ...      714.603 sec (=  11.910 min)   1.5 %
SCF iterations                  ...    40160.148 sec (= 669.336 min)  81.5 %
SCF Gradient evaluation         ...     8344.426 sec (= 139.074 min)  16.9 %
Geometry relaxation             ...       29.229 sec (=   0.487 min)   0.1 %
                             ****ORCA TERMINATED NORMALLY****
TOTAL RUN TIME: 0 days 13 hours 40 minutes 55 seconds 163 msec
