
                                 *****************
                                 * O   R   C   A *
                                 *****************

                                            #,                                       
                                            ###                                      
                                            ####                                     
                                            #####                                    
                                            ######                                   
                                           ########,                                 
                                     ,,################,,,,,                         
                               ,,#################################,,                 
                          ,,##########################################,,             
                       ,#########################################, ''#####,          
                    ,#############################################,,   '####,        
                  ,##################################################,,,,####,       
                ,###########''''           ''''###############################       
              ,#####''   ,,,,##########,,,,          '''####'''          '####       
            ,##' ,,,,###########################,,,                        '##       
           ' ,,###''''                  '''############,,,                           
         ,,##''                                '''############,,,,        ,,,,,,###''
      ,#''                                            '''#######################'''  
     '                                                          ''''####''''         
             ,#######,   #######,   ,#######,      ##                                
            ,#'     '#,  ##    ##  ,#'     '#,    #''#        ######   ,####,        
            ##       ##  ##   ,#'  ##            #'  '#       #        #'  '#        
            ##       ##  #######   ##           ,######,      #####,   #    #        
            '#,     ,#'  ##    ##  '#,     ,#' ,#      #,         ##   #,  ,#        
             '#######'   ##     ##  '#######'  #'      '#     #####' # '####'        



                  #######################################################
                  #                        -***-                        #
                  #          Department of theory and spectroscopy      #
                  #    Directorship and core code : Frank Neese         #
                  #        Max Planck Institute fuer Kohlenforschung    #
                  #                Kaiser Wilhelm Platz 1               #
                  #                 D-45470 Muelheim/Ruhr               #
                  #                      Germany                        #
                  #                                                     #
                  #                  All rights reserved                #
                  #                        -***-                        #
                  #######################################################


                         Program Version 5.0.3 -  RELEASE  -


 With contributions from (in alphabetic order):
   Daniel Aravena         : Magnetic Suceptibility
   Michael Atanasov       : Ab Initio Ligand Field Theory (pilot matlab implementation)
   Alexander A. Auer      : GIAO ZORA, VPT2 properties, NMR spectrum
   Ute Becker             : Parallelization
   Giovanni Bistoni       : ED, misc. LED, open-shell LED, HFLD
   Martin Brehm           : Molecular dynamics
   Dmytro Bykov           : SCF Hessian
   Vijay G. Chilkuri      : MRCI spin determinant printing, contributions to CSF-ICE
   Dipayan Datta          : RHF DLPNO-CCSD density
   Achintya Kumar Dutta   : EOM-CC, STEOM-CC
   Dmitry Ganyushin       : Spin-Orbit,Spin-Spin,Magnetic field MRCI
   Miquel Garcia          : C-PCM and meta-GGA Hessian, CC/C-PCM, Gaussian charge scheme
   Yang Guo               : DLPNO-NEVPT2, F12-NEVPT2, CIM, IAO-localization
   Andreas Hansen         : Spin unrestricted coupled pair/coupled cluster methods
   Benjamin Helmich-Paris : MC-RPA, TRAH-SCF, COSX integrals
   Lee Huntington         : MR-EOM, pCC
   Robert Izsak           : Overlap fitted RIJCOSX, COSX-SCS-MP3, EOM
   Marcus Kettner         : VPT2
   Christian Kollmar      : KDIIS, OOCD, Brueckner-CCSD(T), CCSD density, CASPT2, CASPT2-K
   Simone Kossmann        : Meta GGA functionals, TD-DFT gradient, OOMP2, MP2 Hessian
   Martin Krupicka        : Initial AUTO-CI
   Lucas Lang             : DCDCAS
   Marvin Lechner         : AUTO-CI (C++ implementation), FIC-MRCC
   Dagmar Lenk            : GEPOL surface, SMD
   Dimitrios Liakos       : Extrapolation schemes; Compound Job, initial MDCI parallelization
   Dimitrios Manganas     : Further ROCIS development; embedding schemes
   Dimitrios Pantazis     : SARC Basis sets
   Anastasios Papadopoulos: AUTO-CI, single reference methods and gradients
   Taras Petrenko         : DFT Hessian,TD-DFT gradient, ASA, ECA, R-Raman, ABS, FL, XAS/XES, NRVS
   Peter Pinski           : DLPNO-MP2, DLPNO-MP2 Gradient
   Christoph Reimann      : Effective Core Potentials
   Marius Retegan         : Local ZFS, SOC
   Christoph Riplinger    : Optimizer, TS searches, QM/MM, DLPNO-CCSD(T), (RO)-DLPNO pert. Triples
   Tobias Risthaus        : Range-separated hybrids, TD-DFT gradient, RPA, STAB
   Michael Roemelt        : Original ROCIS implementation
   Masaaki Saitow         : Open-shell DLPNO-CCSD energy and density
   Barbara Sandhoefer     : DKH picture change effects
   Avijit Sen             : IP-ROCIS
   Kantharuban Sivalingam : CASSCF convergence, NEVPT2, FIC-MRCI
   Bernardo de Souza      : ESD, SOC TD-DFT
   Georgi Stoychev        : AutoAux, RI-MP2 NMR, DLPNO-MP2 response
   Willem Van den Heuvel  : Paramagnetic NMR
   Boris Wezisla          : Elementary symmetry handling
   Frank Wennmohs         : Technical directorship


 We gratefully acknowledge several colleagues who have allowed us to
 interface, adapt or use parts of their codes:
   Stefan Grimme, W. Hujo, H. Kruse, P. Pracht,  : VdW corrections, initial TS optimization,
                  C. Bannwarth, S. Ehlert          DFT functionals, gCP, sTDA/sTD-DF
   Ed Valeev, F. Pavosevic, A. Kumar             : LibInt (2-el integral package), F12 methods
   Garnet Chan, S. Sharma, J. Yang, R. Olivares  : DMRG
   Ulf Ekstrom                                   : XCFun DFT Library
   Mihaly Kallay                                 : mrcc  (arbitrary order and MRCC methods)
   Jiri Pittner, Ondrej Demel                    : Mk-CCSD
   Frank Weinhold                                : gennbo (NPA and NBO analysis)
   Christopher J. Cramer and Donald G. Truhlar   : smd solvation model
   Lars Goerigk                                  : TD-DFT with DH, B97 family of functionals
   V. Asgeirsson, H. Jonsson                     : NEB implementation
   FAccTs GmbH                                   : IRC, NEB, NEB-TS, DLPNO-Multilevel, CI-OPT
                                                   MM, QMMM, 2- and 3-layer-ONIOM, Crystal-QMMM,
                                                   LR-CPCM, SF, NACMEs, symmetry and pop. for TD-DFT,
                                                   nearIR, NL-DFT gradient (VV10), updates on ESD,
                                                   ML-optimized integration grids
   S Lehtola, MJT Oliveira, MAL Marques          : LibXC Library
   Liviu Ungur et al                             : ANISO software


 Your calculation uses the libint2 library for the computation of 2-el integrals
 For citations please refer to: http://libint.valeyev.net

 Your ORCA version has been built with support for libXC version: 5.1.0
 For citations please refer to: https://tddft.org/programs/libxc/

 This ORCA versions uses:
   CBLAS   interface :  Fast vector & matrix operations
   LAPACKE interface :  Fast linear algebra routines
   SCALAPACK package :  Parallel linear algebra routines
   Shared memory     :  Shared parallel matrices
   BLAS/LAPACK       :  OpenBLAS 0.3.15  USE64BITINT DYNAMIC_ARCH NO_AFFINITY Sandybridge SINGLE_THREADED
        Core in use  :  Sandybridge
   Copyright (c) 2011-2014, The OpenBLAS Project




***************************************
The coordinates will be read from file: 8.xyz
***************************************


================================================================================

cite the ECPs for Au [Def2-ECP] as follows:
Ce-Yb(ecp-28): M. Dolg, H. Stoll, H.Preuss, J. Chem. Phys., 1989, 90, 1730-1734.
Y-Cd(ecp-28), Hf-Hg(ecp-46): D. Andrae,U. Haeussermann, M. Dolg, H. Stoll, H. Preuss, Theor. Chim. Acta, 1990, 77, 123-141.
In-Sb(ecp-28), Tl-Bi(ecp-46): B. Metz, H. Stoll, M. Dolg, J. Chem. Phys., 2000, 113, 2563-2569.
Te-Xe(ecp-28), Po-Rn(ecp-46): K. A. Peterson, D. Figgen, E. Goll, H. Stoll, M. Dolg, J. Chem. Phys., 2003, 119, 11113-11123.
Rb(ecp-28), Cs(ecp-46): T. Leininger, A. Nicklass, W. Kuechle, H. Stoll, M. Dolg, A. Bergner, Chem. Phys. Lett., 1996, 255, 274-280.
Sr(ecp-28), Ba(ecp-46): M. Kaupp, P. V. Schleyer, H. Stoll and H. Preuss, J. Chem. Phys., 1991, 94, 1360-1366.
La(ecp-46): M. Dolg, H. Stoll, A. Savin, H. Preuss, Theor. Chim. Acta, 1989, 75, 173-194.
Lu(ecp-28): X. Cao, M. Dolg, J. Chem. Phys., 2001, 115, 7348-7355.

ECP parameters for Au [Def2-ECP] have been obtained from:
TURBOMOLE (7.0.2)

----- Orbital basis set information -----
Your calculation utilizes the basis: def2-TZVP
   F. Weigend and R. Ahlrichs, Phys. Chem. Chem. Phys. 7, 3297 (2005).

----- AuxJ basis set information -----
Your calculation utilizes the auxiliary basis: def2/J
   F. Weigend, Phys. Chem. Chem. Phys. 8, 1057 (2006).

================================================================================
                                        WARNINGS
                       Please study these warnings very carefully!
================================================================================


WARNING: your system is open-shell and RHF/RKS was chosen
  ===> : WILL SWITCH to UHF/UKS


WARNING: Geometry Optimization
  ===> : Switching off AutoStart
         For restart on a previous wavefunction, please use MOREAD

INFO   : the flag for use of the SHARK integral package has been found!

================================================================================
                                       INPUT FILE
================================================================================
NAME = pbe.inp
|  1> %pal nprocs 1 end 
|  2> 
|  3> !PBE def2-TZVP OPT UNO
|  4> !SLOWCONV KDIIS 
|  5> 
|  6> %geom maxiter 300 end
|  7> 
|  8> *xyzfile 0 4 8.xyz                           ****END OF INPUT****
================================================================================

                       *****************************
                       * Geometry Optimization Run *
                       *****************************

Geometry optimization settings:
Update method            Update   .... BFGS
Choice of coordinates    CoordSys .... Z-matrix Internals
Initial Hessian          InHess   .... Almoef's Model

Convergence Tolerances:
Energy Change            TolE     ....  5.0000e-06 Eh
Max. Gradient            TolMAXG  ....  3.0000e-04 Eh/bohr
RMS Gradient             TolRMSG  ....  1.0000e-04 Eh/bohr
Max. Displacement        TolMAXD  ....  4.0000e-03 bohr
RMS Displacement         TolRMSD  ....  2.0000e-03 bohr
Strict Convergence                ....  False
------------------------------------------------------------------------------
                        ORCA OPTIMIZATION COORDINATE SETUP
------------------------------------------------------------------------------

The optimization will be done in new redundant internal coordinates
Making redundant internal coordinates   ...  (new redundants) done
Evaluating the initial hessian          ...  (Almloef) done
Evaluating the coordinates              ...  done
Calculating the B-matrix                .... done
Calculating the G-matrix                .... done
Diagonalizing the G-matrix              .... done
The first mode is                       ....  261
The number of degrees of freedom        ....   33

    -----------------------------------------------------------------
                    Redundant Internal Coordinates


    -----------------------------------------------------------------
         Definition                    Initial Value    Approx d2E/dq
    -----------------------------------------------------------------
      1. B(Au  1,Au  0)                  2.8410         0.005861   
      2. B(Au  2,Au  0)                  2.8413         0.005854   
      3. B(Au  3,Au  0)                  2.8412         0.005856   
      4. B(Au  6,Au  0)                  2.8410         0.005861   
      5. B(Au  8,Au  7)                  2.8357         0.005976   
      6. B(Au  8,Au  4)                  2.8357         0.005976   
      7. B(Au  9,Au  8)                  2.6182         0.013285   
      8. B(Au  9,Au  7)                  2.9640         0.003730   
      9. B(Au  9,Au  4)                  2.9640         0.003730   
     10. B(Au  9,Au  5)                  2.9639         0.003731   
     11. B(Au 10,Au  5)                  2.8352         0.005988   
     12. B(Au 10,Au  9)                  2.6185         0.013270   
     13. B(Au 11,Au 10)                  2.8352         0.005986   
     14. B(Au 11,Au  9)                  2.9640         0.003730   
     15. B(Mn 12,Au  7)                  2.6120         0.098807   
     16. B(Mn 12,Au  0)                  3.1124         0.015722   
     17. B(Mn 12,Au  6)                  2.5421         0.127768   
     18. B(Mn 12,Au  3)                  2.5421         0.127749   
     19. B(Mn 12,Au  5)                  2.6122         0.098732   
     20. B(Mn 12,Au 11)                  2.6122         0.098742   
     21. B(Mn 12,Au  4)                  2.6120         0.098820   
     22. B(Mn 12,Au  2)                  2.5421         0.127753   
     23. B(Mn 12,Au  1)                  2.5420         0.127782   
     24. A(Au  2,Au  0,Au  3)           63.9554         0.134881   
     25. A(Au  2,Au  0,Au  6)          100.6004         0.134890   
     26. A(Au  1,Au  0,Au  3)          100.6005         0.134893   
     27. A(Au  3,Au  0,Au  6)           67.8547         0.134893   
     28. A(Au  2,Au  0,Mn 12)           50.2994         0.153345   
     29. A(Au  1,Au  0,Mn 12)           50.3004         0.153362   
     30. A(Au  3,Au  0,Mn 12)           50.3001         0.153349   
     31. A(Au  6,Au  0,Mn 12)           50.3010         0.153362   
     32. A(Au  1,Au  0,Au  6)           63.9553         0.134903   
     33. A(Au  1,Au  0,Au  2)           67.8532         0.134890   
     34. A(Au  0,Au  1,Mn 12)           70.3961         0.192416   
     35. A(Au  0,Au  2,Mn 12)           70.3898         0.192383   
     36. A(Au  0,Au  3,Mn 12)           70.3910         0.192389   
     37. A(Au  9,Au  4,Mn 12)           75.2455         0.177082   
     38. A(Au  8,Au  4,Mn 12)          107.7984         0.186999   
     39. A(Au  8,Au  4,Au  9)           53.6170         0.130620   
     40. A(Au  9,Au  5,Au 10)           53.6296         0.130642   
     41. A(Au  9,Au  5,Mn 12)           75.2436         0.177071   
     42. A(Au 10,Au  5,Mn 12)          107.7980         0.187024   
     43. A(Au  0,Au  6,Mn 12)           70.3956         0.192413   
     44. A(Au  9,Au  7,Mn 12)           75.2453         0.177081   
     45. A(Au  8,Au  7,Au  9)           53.6173         0.130621   
     46. A(Au  8,Au  7,Mn 12)          107.7981         0.186998   
     47. A(Au  4,Au  8,Au  7)           66.2552         0.135307   
     48. A(Au  4,Au  8,Au  9)           65.6984         0.144484   
     49. A(Au  7,Au  8,Au  9)           65.6984         0.144485   
     50. A(Au  5,Au  9,Au 10)           60.6698         0.138861   
     51. A(Au  4,Au  9,Au  7)           63.0468         0.126409   
     52. A(Au  4,Au  9,Au  5)           63.0818         0.126411   
     53. A(Au  5,Au  9,Au  7)           95.3952         0.126412   
     54. A(Au  7,Au  9,Au 10)          123.7176         0.138857   
     55. A(Au  4,Au  9,Au 10)          123.7205         0.138857   
     56. A(Au 10,Au  9,Au 11)           60.6709         0.138858   
     57. A(Au  5,Au  9,Au  8)          123.7349         0.138873   
     58. A(Au  7,Au  9,Au  8)           60.6843         0.138870   
     59. A(Au  4,Au  9,Au  8)           60.6847         0.138869   
     60. A(Au  8,Au  9,Au 11)          123.7306         0.138870   
     61. A(Au  7,Au  9,Au 11)           63.0779         0.126410   
     62. A(Au  5,Au  9,Au 11)           63.0496         0.126412   
     63. A(Au  4,Au  9,Au 11)           95.3936         0.126409   
     64. A(Au  8,Au  9,Au 10)          174.4223         0.155464   
     65. A(Au  9,Au 10,Au 11)           65.7009         0.144491   
     66. A(Au  5,Au 10,Au  9)           65.7006         0.144495   
     67. A(Au  5,Au 10,Au 11)           66.2700         0.135345   
     68. A(Au  9,Au 11,Mn 12)           75.2429         0.177068   
     69. A(Au 10,Au 11,Mn 12)          107.7963         0.187019   
     70. A(Au  9,Au 11,Au 10)           53.6282         0.130637   
     71. A(Au  2,Mn 12,Au  7)          107.2330         0.308804   
     72. A(Au  1,Mn 12,Au  7)           63.6471         0.308816   
     73. A(Au  2,Mn 12,Au  5)          105.0019         0.308766   
     74. A(Au  5,Mn 12,Au  6)          107.2428         0.308773   
     75. A(Au  7,Mn 12,Au 11)           72.8175         0.296356   
     76. A(Au  3,Mn 12,Au  6)           77.1872         0.321970   
     77. A(Au  3,Mn 12,Au  4)          104.9996         0.308809   
     78. A(Au  2,Mn 12,Au  3)           72.5856         0.321964   
     79. A(Au  6,Mn 12,Au 11)           63.6569         0.308778   
     80. A(Au  5,Mn 12,Au 11)           72.7790         0.296320   
     81. A(Au  2,Mn 12,Au  6)          118.6141         0.321972   
     82. A(Au  0,Mn 12,Au 11)          122.9442         0.225784   
     83. A(Au  4,Mn 12,Au 11)          114.1180         0.296362   
     84. A(Au  0,Mn 12,Au  7)          122.9344         0.225805   
     85. A(Au  0,Mn 12,Au  6)           59.3034         0.234000   
     86. A(Au  3,Mn 12,Au 11)          107.2416         0.308770   
     87. A(Au  1,Mn 12,Au  6)           72.5787         0.321984   
     88. A(Au  2,Mn 12,Au  4)           63.6434         0.308810   
     89. A(Au  0,Mn 12,Au  5)          122.9497         0.225781   
     90. A(Au  0,Mn 12,Au  4)          122.9379         0.225808   
     91. A(Au  1,Mn 12,Au 11)          104.9980         0.308783   
     92. A(Au  0,Mn 12,Au  3)           59.3089         0.233995   
     93. A(Au  0,Mn 12,Au  2)           59.3107         0.233996   
     94. A(Au  6,Mn 12,Au  7)          104.9961         0.308810   
     95. A(Au  4,Mn 12,Au  5)           72.8215         0.296357   
     96. A(Au  0,Mn 12,Au  1)           59.3035         0.234003   
     97. A(Au  5,Mn 12,Au  7)          114.1159         0.296351   
     98. A(Au  4,Mn 12,Au  7)           72.7839         0.296393   
     99. A(Au  3,Mn 12,Au  5)           63.6570         0.308765   
    100. A(Au  1,Mn 12,Au  4)          107.2345         0.308822   
    101. A(Au  1,Mn 12,Au  3)          118.6124         0.321976   
    102. A(Au  1,Mn 12,Au  2)           77.1872         0.321977   
    103. D(Mn 12,Au  1,Au  0,Au  6)     58.7812         0.001501   
    104. D(Mn 12,Au  1,Au  0,Au  3)      0.0002         0.001501   
    105. D(Mn 12,Au  1,Au  0,Au  2)    -56.0512         0.001501   
    106. D(Mn 12,Au  2,Au  0,Au  6)      0.0011         0.001501   
    107. D(Mn 12,Au  2,Au  0,Au  1)     56.0524         0.001501   
    108. D(Mn 12,Au  2,Au  0,Au  3)    -58.7801         0.001501   
    109. D(Mn 12,Au  3,Au  0,Au  1)     -0.0002         0.001501   
    110. D(Mn 12,Au  3,Au  0,Au  6)    -56.0521         0.001501   
    111. D(Mn 12,Au  3,Au  0,Au  2)     58.7791         0.001501   
    112. D(Au  9,Au  5,Au  1,Au  0)    178.7984         0.001500   
    113. D(Au 10,Au  5,Au  1,Au  0)   -137.8839         0.001500   
    114. D(Au  0,Au  6,Au  4,Au  9)   -178.8054         0.001500   
    115. D(Mn 12,Au  6,Au  0,Au  3)     56.0511         0.001501   
    116. D(Mn 12,Au  6,Au  0,Au  2)     -0.0011         0.001501   
    117. D(Mn 12,Au  6,Au  0,Au  1)    -58.7804         0.001501   
    118. D(Au  0,Au  6,Au  4,Au  8)    137.8900         0.001500   
    119. D(Au  8,Au  7,Au  3,Au  0)   -137.8908         0.001500   
    120. D(Au  9,Au  7,Au  3,Au  0)    178.8056         0.001500   
    121. D(Au  4,Au  8,Au  7,Mn 12)     17.5274         0.001501   
    122. D(Au  4,Au  8,Au  7,Au  9)     72.8621         0.001501   
    123. D(Au  9,Au  8,Au  4,Mn 12)     55.3345         0.001501   
    124. D(Au  7,Au  8,Au  4,Au  9)    -72.8621         0.001501   
    125. D(Au  7,Au  8,Au  4,Mn 12)    -17.5276         0.001501   
    126. D(Au  9,Au  8,Au  7,Mn 12)    -55.3347         0.001501   
    127. D(Au 10,Au  9,Au  8,Au  4)    143.1821         0.001506   
    128. D(Au 10,Au  9,Au  4,Au  8)   -175.9844         0.001501   
    129. D(Au  8,Au  9,Au  7,Mn 12)    125.9208         0.001501   
    130. D(Au 11,Au  9,Au  8,Au  7)     -2.1124         0.001506   
    131. D(Au  5,Au  9,Au  4,Au  8)   -178.0310         0.001501   
    132. D(Au  5,Au  9,Au  4,Mn 12)     56.0477         0.001501   
    133. D(Au  7,Au  9,Au  4,Mn 12)    -56.0680         0.001501   
    134. D(Au 10,Au  9,Au  7,Au  8)    175.9796         0.001501   
    135. D(Au 10,Au  9,Au  8,Au  7)   -143.1299         0.001506   
    136. D(Au  5,Au  9,Au  8,Au  7)     75.7993         0.001506   
    137. D(Au 11,Au  9,Au  7,Au  8)    178.0297         0.001501   
    138. D(Au 11,Au  9,Au  4,Mn 12)     -0.0010         0.001501   
    139. D(Au 10,Au  9,Au  7,Mn 12)    -58.0995         0.001501   
    140. D(Au  4,Au  9,Au  7,Au  8)    -69.8538         0.001501   
    141. D(Au  5,Au  9,Au  7,Mn 12)     -0.0036         0.001501   
    142. D(Au  4,Au  9,Au  5,Au 10)    178.0475         0.001501   
    143. D(Au  8,Au  9,Au  5,Au 10)    175.9829         0.001501   
    144. D(Au 10,Au  9,Au  4,Mn 12)     58.0943         0.001501   
    145. D(Au  7,Au  9,Au  5,Au 10)   -125.9083         0.001501   
    146. D(Au 10,Au  9,Au  5,Mn 12)    125.9119         0.001501   
    147. D(Au 11,Au  9,Au  5,Mn 12)     56.0708         0.001501   
    148. D(Au 11,Au  9,Au  5,Au 10)    -69.8410         0.001501   
    149. D(Au  7,Au  9,Au  5,Mn 12)      0.0036         0.001501   
    150. D(Au 11,Au  9,Au  7,Mn 12)    -56.0495         0.001501   
    151. D(Au  7,Au  9,Au  4,Au  8)     69.8533         0.001501   
    152. D(Au  7,Au  9,Au  8,Au  4)    -73.6880         0.001506   
    153. D(Au  4,Au  9,Au  8,Au  7)     73.6880         0.001506   
    154. D(Au  5,Au  9,Au  8,Au  4)      2.1113         0.001506   
    155. D(Au 11,Au  9,Au  8,Au  4)    -75.8004         0.001506   
    156. D(Au  4,Au  9,Au  7,Mn 12)     56.0671         0.001501   
    157. D(Au  4,Au  9,Au  5,Mn 12)    -56.0406         0.001501   
    158. D(Au  8,Au  9,Au  4,Mn 12)   -125.9213         0.001501   
    159. D(Au  5,Au  9,Au  7,Au  8)   -125.9244         0.001501   
    160. D(Au 11,Au  9,Au  4,Au  8)    125.9203         0.001501   
    161. D(Au  8,Au  9,Au  5,Mn 12)    -58.1052         0.001501   
    162. D(Au 11,Au 10,Au  5,Mn 12)     17.5159         0.001501   
    163. D(Au 11,Au 10,Au  5,Au  9)     72.8593         0.001501   
    164. D(Au  9,Au 10,Au  5,Mn 12)    -55.3435         0.001501   
    165. D(Au  5,Au 10,Au  9,Au  4)     -2.0932         0.001506   
    166. D(Au 11,Au 10,Au  9,Au  8)    143.1227         0.001506   
    167. D(Au 11,Au 10,Au  9,Au  7)      2.0967         0.001506   
    168. D(Au 11,Au 10,Au  9,Au  5)    -73.7034         0.001506   
    169. D(Au 11,Au 10,Au  9,Au  4)    -75.7965         0.001506   
    170. D(Au  5,Au 10,Au  9,Au  8)   -143.1739         0.001506   
    171. D(Au  5,Au 10,Au  9,Au 11)     73.7034         0.001506   
    172. D(Au  5,Au 10,Au  9,Au  7)     75.8000         0.001506   
    173. D(Au  9,Au 11,Au 10,Au  5)    -72.8588         0.001501   
    174. D(Au 10,Au 11,Au  9,Au  8)   -175.9783         0.001501   
    175. D(Au 10,Au 11,Au  9,Au  7)   -178.0441         0.001501   
    176. D(Mn 12,Au 11,Au  9,Au  7)     56.0445         0.001501   
    177. D(Mn 12,Au 11,Au  9,Au  8)     58.1103         0.001501   
    178. D(Mn 12,Au 11,Au  9,Au 10)   -125.9114         0.001501   
    179. D(Au 10,Au 11,Au  9,Au  5)     69.8393         0.001501   
    180. D(Mn 12,Au 11,Au  9,Au  5)    -56.0720         0.001501   
    181. D(Mn 12,Au 11,Au  9,Au  4)      0.0010         0.001501   
    182. D(Au  9,Au 11,Au  2,Au  0)   -178.7991         0.001500   
    183. D(Au 10,Au 11,Au  9,Au  4)    125.9124         0.001501   
    184. D(Au 10,Au 11,Au  2,Au  0)    137.8859         0.001500   
    185. D(Mn 12,Au 11,Au 10,Au  9)     55.3429         0.001501   
    186. D(Mn 12,Au 11,Au 10,Au  5)    -17.5159         0.001501   
    187. D(Au  2,Mn 12,Au  3,Au  0)    -64.1603         0.001568   
    188. D(Au  1,Mn 12,Au  3,Au  0)      0.0002         0.001568   
    189. D(Au  7,Mn 12,Au  2,Au  0)   -118.5447         0.001568   
    190. D(Au  5,Mn 12,Au  2,Au  0)    119.7192         0.001568   
    191. D(Au  4,Mn 12,Au  2,Au  0)   -178.5763         0.001568   
    192. D(Au  3,Mn 12,Au  2,Au  0)     64.1581         0.001568   
    193. D(Au 11,Mn 12,Au  1,Au  0)   -119.7151         0.001568   
    194. D(Au  7,Mn 12,Au  1,Au  0)    178.5806         0.001568   
    195. D(Au  6,Mn 12,Au  1,Au  0)    -64.1555         0.001568   
    196. D(Au  4,Mn 12,Au  1,Au  0)    118.5477         0.001568   
    197. D(Au  3,Mn 12,Au  1,Au  0)     -0.0002         0.001568   
    198. D(Au  2,Mn 12,Au  1,Au  0)     61.7262         0.001568   
    199. D(Au 11,Mn 12,Au  0,Au  6)      1.5122         0.001502   
    200. D(Au 11,Mn 12,Au  0,Au  2)   -178.4893         0.001502   
    201. D(Au 11,Mn 12,Au  0,Au  1)     88.5047         0.001502   
    202. D(Au  7,Mn 12,Au  0,Au  6)    -88.5080         0.001502   
    203. D(Au  7,Mn 12,Au  0,Au  2)     91.4906         0.001502   
    204. D(Au  7,Mn 12,Au  0,Au  1)     -1.5155         0.001502   
    205. D(Au  6,Mn 12,Au  0,Au  3)    -93.0073         0.001502   
    206. D(Au  6,Mn 12,Au  0,Au  2)    179.9986         0.001502   
    207. D(Au  6,Mn 12,Au  0,Au  1)     86.9925         0.001502   
    208. D(Au  7,Mn 12,Au  0,Au  3)    178.4847         0.001502   
    209. D(Au  5,Mn 12,Au  0,Au  6)     91.4901         0.001502   
    210. D(Au  5,Mn 12,Au  0,Au  3)     -1.5172         0.001502   
    211. D(Au  5,Mn 12,Au  0,Au  2)    -88.5114         0.001502   
    212. D(Au 11,Mn 12,Au  0,Au  3)    -91.4951         0.001502   
    213. D(Au  5,Mn 12,Au  0,Au  1)    178.4826         0.001502   
    214. D(Au  4,Mn 12,Au  0,Au  6)   -178.4785         0.001502   
    215. D(Au  0,Mn 12,Au 11,Au  9)   -179.9927         0.001544   
    216. D(Au  4,Mn 12,Au  0,Au  3)     88.5142         0.001502   
    217. D(Au  4,Mn 12,Au  0,Au  2)      1.5201         0.001502   
    218. D(Au  6,Mn 12,Au 11,Au  9)   -178.5417         0.001544   
    219. D(Au  4,Mn 12,Au  0,Au  1)    -91.4860         0.001502   
    220. D(Au  1,Mn 12,Au  2,Au  0)    -61.7182         0.001568   
    221. D(Au  3,Mn 12,Au  0,Au  6)     93.0073         0.001502   
    222. D(Au  5,Mn 12,Au 11,Au 10)     18.2444         0.001544   
    223. D(Au  4,Mn 12,Au 11,Au  9)     -0.0012         0.001544   
    224. D(Au  6,Mn 12,Au  2,Au  0)     -0.0014         0.001568   
    225. D(Au  3,Mn 12,Au  0,Au  2)    -86.9941         0.001502   
    226. D(Au  3,Mn 12,Au  0,Au  1)    179.9998         0.001502   
    227. D(Au  1,Mn 12,Au 11,Au  9)   -117.1313         0.001544   
    228. D(Au  4,Mn 12,Au  3,Au  0)   -119.7068         0.001568   
    229. D(Au  2,Mn 12,Au  0,Au  6)   -179.9986         0.001502   
    230. D(Au  2,Mn 12,Au  0,Au  3)     86.9941         0.001502   
    231. D(Au  0,Mn 12,Au  7,Au  9)   -179.9973         0.001544   
    232. D(Au 11,Mn 12,Au  7,Au  8)    104.6687         0.001544   
    233. D(Au  2,Mn 12,Au  0,Au  1)    -93.0061         0.001502   
    234. D(Au  1,Mn 12,Au  0,Au  6)    -86.9925         0.001502   
    235. D(Au  5,Mn 12,Au  7,Au  8)     43.2198         0.001544   
    236. D(Au  1,Mn 12,Au  0,Au  3)   -179.9998         0.001502   
    237. D(Au  1,Mn 12,Au  0,Au  2)     93.0061         0.001502   
    238. D(Au  4,Mn 12,Au  7,Au  9)    -61.4745         0.001544   
    239. D(Au  2,Mn 12,Au  7,Au  8)    -72.6156         0.001544   
    240. D(Au  1,Mn 12,Au  7,Au  8)   -138.2362         0.001544   
    241. D(Au  1,Mn 12,Au  7,Au  9)    178.5484         0.001544   
    242. D(Au 11,Mn 12,Au  6,Au  0)   -178.5839         0.001568   
    243. D(Au  7,Mn 12,Au  6,Au  0)    119.7048         0.001568   
    244. D(Au  5,Mn 12,Au  6,Au  0)   -118.5573         0.001568   
    245. D(Au  3,Mn 12,Au  6,Au  0)    -61.7240         0.001568   
    246. D(Au  2,Mn 12,Au  6,Au  0)      0.0014         0.001568   
    247. D(Au  0,Mn 12,Au  5,Au  9)    179.9973         0.001544   
    248. D(Au  0,Mn 12,Au  5,Au 10)   -136.7727         0.001544   
    249. D(Au 11,Mn 12,Au  5,Au  9)    -61.4752         0.001544   
    250. D(Au  7,Mn 12,Au  5,Au  9)     -0.0045         0.001544   
    251. D(Au  7,Mn 12,Au  5,Au 10)     43.2256         0.001544   
    252. D(Au  6,Mn 12,Au  5,Au  9)   -115.8391         0.001544   
    253. D(Au  6,Mn 12,Au  5,Au 10)    -72.6091         0.001544   
    254. D(Au  4,Mn 12,Au  5,Au  9)     61.4531         0.001544   
    255. D(Au  4,Mn 12,Au  5,Au 10)    104.6831         0.001544   
    256. D(Au 11,Mn 12,Au  5,Au 10)    -18.2452         0.001544   
    257. D(Au  3,Mn 12,Au  5,Au  9)    178.5414         0.001544   
    258. D(Au  3,Mn 12,Au  5,Au 10)   -138.2285         0.001544   
    259. D(Au  2,Mn 12,Au  5,Au  9)    117.1252         0.001544   
    260. D(Au  1,Mn 12,Au  6,Au  0)     64.1557         0.001568   
    261. D(Au  2,Mn 12,Au  5,Au 10)    160.3552         0.001544   
    262. D(Au  0,Mn 12,Au  4,Au  8)    136.7777         0.001544   
    263. D(Au  0,Mn 12,Au  4,Au  9)    179.9927         0.001544   
    264. D(Au 11,Mn 12,Au  4,Au  8)    -43.2137         0.001544   
    265. D(Au 11,Mn 12,Au  4,Au  9)      0.0012         0.001544   
    266. D(Au  7,Mn 12,Au  4,Au  8)     18.2590         0.001544   
    267. D(Au  7,Mn 12,Au  4,Au  9)     61.4740         0.001544   
    268. D(Au  2,Mn 12,Au  7,Au  9)   -115.8310         0.001544   
    269. D(Au  5,Mn 12,Au  4,Au  8)   -104.6640         0.001544   
    270. D(Au  5,Mn 12,Au  4,Au  9)    -61.4491         0.001544   
    271. D(Au  4,Mn 12,Au  7,Au  8)    -18.2591         0.001544   
    272. D(Au  5,Mn 12,Au  7,Au  9)      0.0044         0.001544   
    273. D(Au  3,Mn 12,Au  4,Au  8)   -160.3534         0.001544   
    274. D(Au  6,Mn 12,Au  7,Au  9)    117.1423         0.001544   
    275. D(Au  6,Mn 12,Au  7,Au  8)    160.3577         0.001544   
    276. D(Au 11,Mn 12,Au  7,Au  9)     61.4533         0.001544   
    277. D(Au  3,Mn 12,Au  4,Au  9)   -117.1384         0.001544   
    278. D(Au  2,Mn 12,Au  4,Au  8)    138.2365         0.001544   
    279. D(Au  0,Mn 12,Au  7,Au  8)   -136.7819         0.001544   
    280. D(Au  1,Mn 12,Au 11,Au 10)   -160.3602         0.001544   
    281. D(Au  2,Mn 12,Au  4,Au  9)   -178.5485         0.001544   
    282. D(Au  3,Mn 12,Au 11,Au 10)     72.6092         0.001544   
    283. D(Au  3,Mn 12,Au 11,Au  9)    115.8381         0.001544   
    284. D(Au  4,Mn 12,Au 11,Au 10)    -43.2301         0.001544   
    285. D(Au  1,Mn 12,Au  4,Au  8)     72.6191         0.001544   
    286. D(Au  1,Mn 12,Au  4,Au  9)    115.8340         0.001544   
    287. D(Au  5,Mn 12,Au 11,Au  9)     61.4732         0.001544   
    288. D(Au  6,Mn 12,Au 11,Au 10)    138.2295         0.001544   
    289. D(Au 11,Mn 12,Au  3,Au  0)    118.5516         0.001568   
    290. D(Au  7,Mn 12,Au 11,Au 10)   -104.6837         0.001544   
    291. D(Au  7,Mn 12,Au 11,Au  9)    -61.4548         0.001544   
    292. D(Au  0,Mn 12,Au 11,Au 10)    136.7785         0.001544   
    293. D(Au  6,Mn 12,Au  3,Au  0)     61.7180         0.001568   
    294. D(Au  5,Mn 12,Au  3,Au  0)    178.5793         0.001568   
    -----------------------------------------------------------------

Number of atoms                         .... 13
Number of degrees of freedom            .... 294

         *************************************************************
         *                GEOMETRY OPTIMIZATION CYCLE   1            *
         *************************************************************
---------------------------------
CARTESIAN COORDINATES (ANGSTROEM)
---------------------------------
  Au    11.073920   11.725802    8.052747
  Au     9.380494   10.454906    9.946996
  Au    11.700875    8.973099    8.372813
  Au    10.645717   10.076308    5.779363
  Au    10.101862    6.786551    8.146525
  Au     9.014246    7.922774    5.474086
  Au     8.325394   11.557968    7.353814
  Au     7.834117    8.234581    9.685048
  Au     8.100552    5.412392    9.612005
  Au     7.258130    6.473504    7.371583
  Au     6.266566    7.329777    5.104357
  Au     6.746563    9.370876    7.012781
  Mn     9.254568    9.221556    7.727787

----------------------------
CARTESIAN COORDINATES (A.U.)
----------------------------
  NO LB      ZA    FRAG     MASS         X           Y           Z
   0 Au   19.0000*   0   196.966   20.926677   22.158554   15.217486
   1 Au   19.0000*   0   196.966   17.726564   19.756908   18.797098
   2 Au   19.0000*   0   196.966   22.111450   16.956700   15.822323
   3 Au   19.0000*   0   196.966   20.117489   19.041462   10.921413
   4 Au   19.0000*   0   196.966   19.089753   12.824722   15.394700
   5 Au   19.0000*   0   196.966   17.034456   14.971873   10.344523
   6 Au   19.0000*   0   196.966   15.732714   21.841394   13.896695
   7 Au   19.0000*   0   196.966   14.804335   15.561102   18.302089
   8 Au   19.0000*   0   196.966   15.307825   10.227938   18.164058
   9 Au   19.0000*   0   196.966   13.715878   12.233149   13.930274
  10 Au   19.0000*   0   196.966   11.842094   13.851270    9.645837
  11 Au   19.0000*   0   196.966   12.749157   17.708389   13.252235
  12 Mn   25.0000    0    54.940   17.488598   17.426215   14.603400
* core charge reduced due to ECP

--------------------------------
INTERNAL COORDINATES (ANGSTROEM)
--------------------------------
 Au     0   0   0     0.000000000000     0.00000000     0.00000000
 Au     1   0   0     2.840959645184     0.00000000     0.00000000
 Au     1   2   0     2.841282816677    67.85316216     0.00000000
 Au     1   2   3     2.841207900082   100.60054973    56.05137274
 Au     3   1   2     2.718279634968   129.80152912    54.45683305
 Au     4   1   2     2.718933812570   129.79973927     1.59198331
 Au     1   2   3     2.840963497626    63.95531869   114.83240629
 Au     2   1   3     2.718407759818   129.80763999   305.53978035
 Au     8   2   1     2.835678493969   139.63395059    76.54671195
 Au     9   8   2     2.618229232485    65.69837923   245.15373516
 Au    10   9   8     2.618533191468   174.42232673   216.87013281
 Au     7   1   2     2.718893236317   129.80484489   299.63250204
 Mn     2   1   3     2.542026350582    70.39607414   303.94879513

---------------------------
INTERNAL COORDINATES (A.U.)
---------------------------
 Au     0   0   0     0.000000000000     0.00000000     0.00000000
 Au     1   0   0     5.368635686920     0.00000000     0.00000000
 Au     1   2   0     5.369246392536    67.85316216     0.00000000
 Au     1   2   3     5.369104820689   100.60054973    56.05137274
 Au     3   1   2     5.136804065504   129.80152912    54.45683305
 Au     4   1   2     5.138040282016   129.79973927     1.59198331
 Au     1   2   3     5.368642966981    63.95531869   114.83240629
 Au     2   1   3     5.137046186383   129.80763999   305.53978035
 Au     8   2   1     5.358655757451   139.63395059    76.54671195
 Au     9   8   2     4.947736205224    65.69837923   245.15373516
 Au    10   9   8     4.948310604457   174.42232673   216.87013281
 Au     7   1   2     5.137963604011   129.80484489   299.63250204
 Mn     2   1   3     4.803733627811    70.39607414   303.94879513

---------------------
BASIS SET INFORMATION
---------------------
There are 2 groups of distinct atoms

 Group   1 Type Au  : 8s7p6d1f contracted to 6s4p3d1f pattern {311111/4111/411/1}
 Group   2 Type Mn  : 17s11p7d1f contracted to 6s4p4d1f pattern {842111/6311/4111/1}

Atom   0Au   basis set group =>   1
Atom   1Au   basis set group =>   1
Atom   2Au   basis set group =>   1
Atom   3Au   basis set group =>   1
Atom   4Au   basis set group =>   1
Atom   5Au   basis set group =>   1
Atom   6Au   basis set group =>   1
Atom   7Au   basis set group =>   1
Atom   8Au   basis set group =>   1
Atom   9Au   basis set group =>   1
Atom  10Au   basis set group =>   1
Atom  11Au   basis set group =>   1
Atom  12Mn   basis set group =>   2
---------------------------------
AUXILIARY/J BASIS SET INFORMATION
---------------------------------
There are 2 groups of distinct atoms

 Group   1 Type Au  : 11s5p5d3f3g contracted to 8s5p5d2f3g pattern {41111111/11111/11111/21/111}
 Group   2 Type Mn  : 19s5p5d3f3g contracted to 8s5p5d2f3g pattern {121111111/11111/11111/21/111}

Atom   0Au   basis set group =>   1
Atom   1Au   basis set group =>   1
Atom   2Au   basis set group =>   1
Atom   3Au   basis set group =>   1
Atom   4Au   basis set group =>   1
Atom   5Au   basis set group =>   1
Atom   6Au   basis set group =>   1
Atom   7Au   basis set group =>   1
Atom   8Au   basis set group =>   1
Atom   9Au   basis set group =>   1
Atom  10Au   basis set group =>   1
Atom  11Au   basis set group =>   1
Atom  12Mn   basis set group =>   2
-------------------------
ECP PARAMETER INFORMATION
-------------------------

 Group 1, Type Au ECP Def2-ECP (replacing 60 core electrons, lmax=3)

Atom   0Au   ECP group =>   1
Atom   1Au   ECP group =>   1
Atom   2Au   ECP group =>   1
Atom   3Au   ECP group =>   1
Atom   4Au   ECP group =>   1
Atom   5Au   ECP group =>   1
Atom   6Au   ECP group =>   1
Atom   7Au   ECP group =>   1
Atom   8Au   ECP group =>   1
Atom   9Au   ECP group =>   1
Atom  10Au   ECP group =>   1
Atom  11Au   ECP group =>   1

------------------------------------------------------------------------------
                           ORCA GTO INTEGRAL CALCULATION
                           -- RI-GTO INTEGRALS CHOSEN --
------------------------------------------------------------------------------
------------------------------------------------------------------------------
                   ___                                                        
                  /   \      - P O W E R E D   B Y -                         
                 /     \                                                     
                 |  |  |   _    _      __       _____    __    __             
                 |  |  |  | |  | |    /  \     |  _  \  |  |  /  |          
                  \  \/   | |  | |   /    \    | | | |  |  | /  /          
                 / \  \   | |__| |  /  /\  \   | |_| |  |  |/  /          
                |  |  |   |  __  | /  /__\  \  |    /   |      \           
                |  |  |   | |  | | |   __   |  |    \   |  |\   \          
                \     /   | |  | | |  |  |  |  | |\  \  |  | \   \       
                 \___/    |_|  |_| |__|  |__|  |_| \__\ |__|  \__/        
                                                                              
                      - O R C A' S   B I G   F R I E N D -                    
                                      &                                       
                       - I N T E G R A L  F E E D E R -                       
                                                                              
 v1 FN, 2020, v2 2021                                                         
------------------------------------------------------------------------------


Reading SHARK input file pbe.SHARKINP.tmp ... ok
----------------------
SHARK INTEGRAL PACKAGE
----------------------

Number of atoms                             ...     13
Number of basis functions                   ...    525
Number of shells                            ...    183
Maximum angular momentum                    ...      3
Integral batch strategy                     ... SHARK/LIBINT Hybrid
RI-J (if used) integral strategy            ... SPLIT-RIJ (Revised 2003 algorithm where possible)
Printlevel                                  ...      1
Contraction scheme used                     ... SEGMENTED contraction
Coulomb Range Separation                    ... NOT USED
Exchange Range Separation                   ... NOT USED
Finite Nucleus Model                        ... NOT USED
Auxiliary Coulomb fitting basis             ... AVAILABLE
   # of basis functions in Aux-J            ...   1157
   # of shells in Aux-J                     ...    299
   Maximum angular momentum in Aux-J        ...      4
Auxiliary J/K fitting basis                 ... NOT available
Auxiliary Correlation fitting basis         ... NOT available
Auxiliary 'external' fitting basis          ... NOT available
Integral threshold                          ...     2.500000e-11
Primitive cut-off                           ...     2.500000e-12
Primitive pair pre-selection threshold      ...     2.500000e-12

Calculating pre-screening integrals         ... done (  0.5 sec) Dimension = 183
Organizing shell pair data                  ... done (  0.7 sec)
Shell pair information
Total number of shell pairs                 ...     16836
Shell pairs after pre-screening             ...     13589
Total number of primitive shell pairs       ...     45389
Primitive shell pairs kept                  ...     26951
          la=0 lb=0:   2144 shell pairs
          la=1 lb=0:   3115 shell pairs
          la=1 lb=1:   1180 shell pairs
          la=2 lb=0:   2670 shell pairs
          la=2 lb=1:   1890 shell pairs
          la=2 lb=2:    776 shell pairs
          la=3 lb=0:    734 shell pairs
          la=3 lb=1:    542 shell pairs
          la=3 lb=2:    454 shell pairs
          la=3 lb=3:     84 shell pairs

Calculating one electron integrals          ... done (  0.1 sec)
Calculating ECP integrals                   ... done (  9.4 sec)
Calculating RI/J V-Matrix + Cholesky decomp.... done (  0.1 sec)
Calculating Nuclear repulsion               ... done (  0.0 sec) ENN=   4296.373741385494 Eh

SHARK setup successfully completed in  11.6 seconds

Maximum memory used throughout the entire GTOINT-calculation: 398.4 MB
-------------------------------------------------------------------------------
                                 ORCA SCF
-------------------------------------------------------------------------------

------------
SCF SETTINGS
------------
Hamiltonian:
 Density Functional     Method          .... DFT(GTOs)
 Exchange Functional    Exchange        .... PBE
   PBE kappa parameter   XKappa         ....  0.804000
   PBE mue parameter    XMuePBE         ....  0.219520
 Correlation Functional Correlation     .... PBE
   PBE beta parameter  CBetaPBE         ....  0.066725
 LDA part of GGA corr.  LDAOpt          .... PW91-LDA
 Gradients option       PostSCFGGA      .... off
   Density functional embedding theory  .... OFF
   NL short-range parameter             ....  6.400000
 RI-approximation to the Coulomb term is turned on
   Number of AuxJ basis functions       .... 1157


General Settings:
 Integral files         IntName         .... pbe
 Hartree-Fock type      HFTyp           .... UHF
 Total Charge           Charge          ....    0
 Multiplicity           Mult            ....    4
 Number of Electrons    NEL             ....  253
 Basis Dimension        Dim             ....  525
 Nuclear Repulsion      ENuc            ....   4296.3737413855 Eh

Convergence Acceleration:
 DIIS                   CNVDIIS         .... off
 Trust-Rad. Augm. Hess. CNVTRAH         .... auto
   Auto Start mean grad. ratio tolernc. ....  1.125000
   Auto Start start iteration           ....    20
   Auto Start num. interpolation iter.  ....    10
   Max. Number of Micro iterations      ....    16
   Max. Number of Macro iterations      .... Maxiter - #DIIS iter
   Number of Davidson start vectors     ....     2
   Converg. threshold I  (grad. norm)   ....   1.000e-05
   Converg. threshold II (energy diff.) ....   1.000e-08
   Grad. Scal. Fac. for Micro threshold ....   0.100
   Minimum threshold for Micro iter.    ....   0.010
   NR start threshold (gradient norm)   ....   0.001
   Initial trust radius                 ....   0.400
   Minimum AH scaling param. (alpha)    ....   1.000
   Maximum AH scaling param. (alpha)    .... 1000.000
   Orbital update algorithm             .... Taylor
   White noise on init. David. guess    .... on
   Maximum white noise                  ....   0.010
   Quad. conv. algorithm                .... NR
 SOSCF                  CNVSOSCF        .... off
 Level Shifting         CNVShift        .... off
 Zerner damping         CNVZerner       .... off
 Static damping         CNVDamp         .... off
 Fernandez-Rico         CNVRico         .... off

SCF Procedure:
 Maximum # iterations   MaxIter         ....   125
 SCF integral mode      SCFMode         .... Direct
   Integral package                     .... SHARK and LIBINT hybrid scheme
 Reset frequency        DirectResetFreq ....    20
 Integral Threshold     Thresh          ....  2.500e-11 Eh
 Primitive CutOff       TCut            ....  2.500e-12 Eh

Convergence Tolerance:
 Convergence Check Mode ConvCheckMode   .... Total+1el-Energy
 Convergence forced     ConvForced      .... 0
 Energy Change          TolE            ....  1.000e-08 Eh
 1-El. energy change                    ....  1.000e-05 Eh


Diagonalization of the overlap matrix:
Smallest eigenvalue                        ... 2.587e-04
Time for diagonalization                   ...    0.121 sec
Threshold for overlap eigenvalues          ... 1.000e-08
Number of eigenvalues below threshold      ... 0
Time for construction of square roots      ...    0.062 sec
Total time needed                          ...    0.184 sec

Time for model grid setup =    1.706 sec

------------------------------
INITIAL GUESS: MODEL POTENTIAL
------------------------------
Loading Hartree-Fock densities                     ... done
  calling /home/ehlert/src/miniconda3/envs/orca500/Programs/ORCA501/orca pbe_atom79.inp > pbe_atom79.out in order to generate an atomic fitting density for atom 0 (Au with ECP) on-the-fly... 
    atom 0 (Au), assumed electronic state with S=2: 1s2 2s2 2p6 3s2 3p6 4s2 3d10 4p6 5s2 4d10 5p6 6s1 4f14 5d10           ... done
Calculating cut-offs                               ... done
Initializing the effective Hamiltonian             ... done
Setting up the integral package (SHARK)            ... done
Starting the Coulomb interaction                   ... done (   2.2 sec)
Reading the grid                                   ... done
Mapping shells                                     ... done
Starting the XC term evaluation                    ... done (   3.0 sec)
  promolecular density results
     # of electrons  =    973.013324192
     EX              =  -4440.464572045
     EC              =    -59.194668141
     EX+EC           =  -4499.659240187
Transforming the Hamiltonian                       ... done (   0.0 sec)
Diagonalizing the Hamiltonian                      ... done (   0.1 sec)
Back transforming the eigenvectors                 ... done (   0.0 sec)
Now organizing SCF variables                       ... done
                      ------------------
                      INITIAL GUESS DONE (   7.9 sec)
                      ------------------
-------------------
DFT GRID GENERATION
-------------------

General Integration Accuracy     IntAcc      ... 4.388
Radial Grid Type                 RadialGrid  ... OptM3 with GC (2021)
Angular Grid (max. ang.)         AngularGrid ... 4 (Lebedev-302)
Angular grid pruning method      GridPruning ... 4 (adaptive)
Weight generation scheme         WeightScheme... Becke
Basis function cutoff            BFCut       ... 1.0000e-11
Integration weight cutoff        WCut        ... 1.0000e-14
Angular grids for H and He will be reduced by one unit
Partially contracted basis set               ... off
Rotationally invariant grid construction     ... off

Total number of grid points                  ...   144867
Total number of batches                      ...     2270
Average number of points per batch           ...       63
Average number of grid points per atom       ...    11144
Time for grid setup =    3.862 sec

--------------
SCF ITERATIONS
--------------
ITER       Energy         Delta-E        Max-DP      RMS-DP      [F,P]   Gradient Norm
               ***  Starting incremental Fock matrix formation  ***
                             ****Resetting KDIIS****
                             ****Turning on KDIIS(Cayley)****
  0  -2778.4368015967   0.000000000000 0.36564207  0.00185459  0.4345391   0.230262275
  1  -2779.6474311478  -1.210629551145 1.18168867  0.00295509  0.3802054   0.171578195
  2  -2780.2367316224  -0.589300474559 0.19558742  0.00157299  0.3007632   0.125179373
  3  -2780.4729989875  -0.236267365141 0.14600206  0.00146395  0.1748070   0.073844466
  4  -2780.4935703062  -0.020571318631 0.18746131  0.00059293  0.1020852   0.033499360
  5  -2780.5687337554  -0.075163449252 0.23307508  0.00060410  0.0498232   0.008722770
  6  -2780.5847548093  -0.016021053915 0.19129554  0.00085209  0.0462890   0.007728568
  7  -2780.6031312051  -0.018376395760 0.11014475  0.00041237  0.0467639   0.010010425
  8  -2780.6171183262  -0.013987121059 0.04058703  0.00031196  0.0155582   0.007739092
  9  -2780.6267545137  -0.009636187508 0.02448713  0.00014151  0.0121445   0.005888102
 10  -2780.6293483345  -0.002593820828 0.10853212  0.00029059  0.0214372   0.003704025
 11  -2780.6350987180  -0.005750383521 0.03912144  0.00018366  0.0132977   0.003161962
 12  -2780.6385385739  -0.003439855866 0.05143658  0.00016878  0.0104633   0.002816883
 13  -2780.6395428486  -0.001004274754 0.14425400  0.00036953  0.0084503   0.003882197
 14  -2780.6443983514  -0.004855502753 0.01029874  0.00010003  0.0114713   0.002395650
 15  -2780.6438927594   0.000505592018 0.06510592  0.00017555  0.0077122   0.002045360
 16  -2780.6448614440  -0.000968684664 0.01929773  0.00009805  0.0123859   0.003515490
 17  -2780.6464938249  -0.001632380825 0.01811686  0.00006723  0.0078371   0.001261606
 18  -2780.6469678047  -0.000473979799 0.04734804  0.00012394  0.0065674   0.001256580
 19  -2780.6478790488  -0.000911244145 0.01032623  0.00004986  0.0086965   0.001220495
               *** Restarting incremental Fock matrix formation ***
                             ****Resetting KDIIS****

 WARNING: the maximum gradient error descreased on average only by a factor   1.1
          during the last 20 iterations

                      *** Initiating the TRAH-SCF procedure ***

                    *** KDIIS BlockDiag ( 0.171 sec) ***

TRAH GRID
---------

General Integration Accuracy     IntAcc      ... 3.467
Radial Grid Type                 RadialGrid  ... OptM3 with GC (2021)
Angular Grid (max. ang.)         AngularGrid ... 1 (Lebedev-50)
Angular grid pruning method      GridPruning ... 4 (adaptive)
Weight generation scheme         WeightScheme... Becke
Basis function cutoff            BFCut       ... 1.0000e-11
Integration weight cutoff        WCut        ... 1.0000e-14
Angular grids for H and He will be reduced by one unit
Partially contracted basis set               ... off
Rotationally invariant grid construction     ... off

Total number of grid points                  ...    62531
Total number of batches                      ...      982
Average number of points per batch           ...       63
Average number of grid points per atom       ...     4810

 --------------------------------------------------------------------------------------------
   Iter.        energy            ||Error||_2        Shift      TRadius  Mac/Mic        Rej.
 --------------------------------------------------------------------------------------------
WARNING: 1 diagonal Hessian elements are negative!
    0      -2780.648263727098     1.603049e-02                     0.400 (TRAH MAcro)   No
WARNING : negative HOMO - LUMO gap : (op =  beta) -0.029525
    0     dE    -4.955788e-05     3.516679e-02    -4.9557e-05      0.003 (TRAH MIcro)
    0     dE    -1.003807e-03     1.020700e-01    -9.8999e-04      0.118 (TRAH MIcro)
    0     dE    -5.187890e-03     3.432380e-02    -9.2796e-03      0.400 (TRAH MIcro)
    0     dE    -5.830352e-03     2.486453e-02    -1.3045e-02      0.400 (TRAH MIcro)
    0     dE    -6.078163e-03     1.257824e-02    -1.4858e-02      0.391 (TRAH MIcro)
    0     dE    -6.214646e-03     8.314671e-03    -1.5114e-02      0.394 (TRAH MIcro)
    0     dE    -6.235769e-03     3.298342e-03    -1.5190e-02      0.393 (TRAH MIcro)
    0     dE    -6.237419e-03     1.631483e-03    -1.5203e-02      0.392 (TRAH MIcro)
    0     dE    -6.233492e-03     7.067403e-04    -1.5206e-02      0.392 (TRAH MIcro)
WARNING: 1 diagonal Hessian elements are negative!
    1      -2780.653918934308     1.018345e-02                     0.480 (TRAH MAcro)   No
WARNING : negative HOMO - LUMO gap : (op =  beta) -0.029752
    1     dE    -2.858225e-05     1.464957e-02    -2.8582e-05      0.003 (TRAH MIcro)
    1     dE    -5.090057e-04     4.713056e-02    -5.0050e-04      0.130 (TRAH MIcro)
    1     dE    -8.766749e-04     1.159503e-02    -8.4008e-04      0.209 (TRAH MIcro)
    1     dE    -9.482275e-04     7.377904e-03    -9.0321e-04      0.223 (TRAH MIcro)
    1     dE    -9.815434e-04     4.344496e-03    -9.3192e-04      0.231 (TRAH MIcro)
    1     dE    -9.944954e-04     2.354741e-03    -9.4251e-04      0.235 (TRAH MIcro)
    1     dE    -9.972152e-04     1.122600e-03    -9.4484e-04      0.235 (TRAH MIcro)
    1     dE    -9.979257e-04     5.074469e-04    -9.4540e-04      0.236 (TRAH MIcro)
WARNING: 1 diagonal Hessian elements are negative!
    2      -2780.654719686153     1.442593e-02                     0.576 (TRAH MAcro)   No
WARNING : negative HOMO - LUMO gap : (op =  beta) -0.029498
    2     dE    -4.598953e-05     1.476307e-02    -4.5989e-05      0.003 (TRAH MIcro)
    2     dE    -7.607619e-05     2.556174e-03    -7.6070e-05      0.009 (TRAH MIcro)
    2     dE    -8.522881e-05     2.210321e-03    -8.5209e-05      0.015 (TRAH MIcro)
    2     dE    -8.805923e-05     1.459778e-03    -8.8027e-05      0.019 (TRAH MIcro)
    2     dE    -8.893776e-05     6.250926e-04    -8.8899e-05      0.021 (TRAH MIcro)
WARNING: 1 diagonal Hessian elements are negative!
    3      -2780.654810470566     6.557327e-04                           (NR   MAcro)
WARNING : negative HOMO - LUMO gap : (op =  beta) -0.029954
    3     dE    -5.729479e-07     7.494177e-04                           (NR   MIcro)
    3     dE    -8.537126e-07     5.828088e-04                           (NR   MIcro)
    3     dE    -1.014558e-06     3.149466e-04                           (NR   MIcro)
    3     dE    -1.055738e-06     2.224854e-04                           (NR   MIcro)
    3     dE    -1.090161e-06     2.050622e-04                           (NR   MIcro)
    3     dE    -1.127905e-06     2.568886e-04                           (NR   MIcro)
    3     dE    -1.191115e-06     4.186612e-04                           (NR   MIcro)
    3     dE    -2.498887e-06     2.865925e-03                           (NR   MIcro)
    3     dE    -2.674520e-07     6.974579e-04                           (NR   MIcro)
    3     dE    -4.560362e-07     3.335154e-04                           (NR   MIcro)
    3     dE    -5.154529e-07     1.369240e-04                           (NR   MIcro)
    3     dE    -5.227785e-07     7.229306e-05                           (NR   MIcro)
    3     dE    -5.253868e-07     4.499292e-05                           (NR   MIcro)
    3     dE    -5.264347e-07     2.119718e-05                           (NR   MIcro)
    3     dE    -5.266331e-07     1.014962e-05                           (NR   MIcro)
WARNING: 1 diagonal Hessian elements are negative!
    4      -2780.654811000131     3.087003e-05                           (NR   MAcro)
WARNING : negative HOMO - LUMO gap : (op =  beta) -0.029948
    4     dE    -2.714984e-10     1.150872e-05                           (NR   MIcro)
    4     dE    -3.417776e-10     6.704398e-06                           (NR   MIcro)
    4     dE    -3.742211e-10     4.369501e-06                           (NR   MIcro)
    4     dE    -3.860390e-10     2.789201e-06                           (NR   MIcro)
    4     dE    -3.900808e-10     1.919197e-06                           (NR   MIcro)
    4     dE    -3.921585e-10     9.306501e-07                           (NR   MIcro)
WARNING: 1 diagonal Hessian elements are negative!
    5      -2780.654811000521     9.304564e-07                           (NR   MAcro)
WARNING : negative HOMO - LUMO gap : (op =  beta) -0.029949

               *****************************************************
               *                     SUCCESS                       *
               *           SCF CONVERGED AFTER  69 CYCLES          *
               *****************************************************


----------------
TOTAL SCF ENERGY
----------------

Total Energy       :        -2780.65481100 Eh          -75665.46417 eV

Components:
Nuclear Repulsion  :         4296.37374139 Eh          116910.27311 eV
Electronic Energy  :        -7077.02855239 Eh         -192575.73727 eV
One Electron Energy:       -13033.45046062 Eh         -354658.21751 eV
Two Electron Energy:         5956.42190823 Eh          162082.48024 eV

Virial components:
Potential Energy   :        -4479.20335316 Eh         -121885.31977 eV
Kinetic Energy     :         1698.54854215 Eh           46219.85560 eV
Virial Ratio       :            2.63707703


DFT components:
N(Alpha)           :      128.000003969498 electrons
N(Beta)            :      125.000000294352 electrons
N(Total)           :      253.000004263850 electrons
E(X)               :     -195.404004999816 Eh       
E(C)               :      -11.004206715054 Eh       
E(XC)              :     -206.408211714870 Eh       
DFET-embed. en.    :        0.000000000000 Eh       

---------------
SCF CONVERGENCE
---------------

  Last Energy change         ...   -3.9017e-10  Tolerance :   1.0000e-08
  Last Orbital Gradient      ...    9.3046e-07  Tolerance :   1.0000e-05
  Last Orbital Rotation      ...    5.7789e-05

             **** THE GBW FILE WAS UPDATED (pbe.gbw) ****
             **** DENSITY pbe.scfp WAS UPDATED ****
             **** ENERGY FILE WAS UPDATED (pbe.en.tmp) ****
----------------------
UHF SPIN CONTAMINATION
----------------------

Warning: in a DFT calculation there is little theoretical justification to 
         calculate <S**2> as in Hartree-Fock theory. We will do it anyways
         but you should keep in mind that the values have only limited relevance

Expectation value of <S**2>     :     4.925346
Ideal value S*(S+1) for S=1.5   :     3.750000
Deviation                       :     1.175346

             **** THE GBW FILE WAS UPDATED (pbe.gbw) ****
             **** DENSITY pbe.scfp WAS UPDATED ****
----------------
ORBITAL ENERGIES
----------------
                 SPIN UP ORBITALS
  NO   OCC          E(Eh)            E(eV) 
   0   1.0000    -234.197660     -6372.8423 
   1   1.0000     -26.896138      -731.8811 
   2   1.0000     -23.047672      -627.1590 
   3   1.0000     -23.045717      -627.1058 
   4   1.0000     -23.042247      -627.0114 
   5   1.0000      -4.028467      -109.6202 
   6   1.0000      -4.028438      -109.6194 
   7   1.0000      -4.028437      -109.6193 
   8   1.0000      -4.028413      -109.6187 
   9   1.0000      -4.028029      -109.6082 
  10   1.0000      -4.026060      -109.5547 
  11   1.0000      -4.026042      -109.5542 
  12   1.0000      -4.026019      -109.5535 
  13   1.0000      -4.026003      -109.5531 
  14   1.0000      -4.022311      -109.4526 
  15   1.0000      -4.015962      -109.2799 
  16   1.0000      -4.015943      -109.2794 
  17   1.0000      -3.097715       -84.2931 
  18   1.0000      -2.247398       -61.1548 
  19   1.0000      -2.247100       -61.1467 
  20   1.0000      -2.247033       -61.1449 
  21   1.0000      -2.246745       -61.1370 
  22   1.0000      -2.246558       -61.1319 
  23   1.0000      -2.244045       -61.0636 
  24   1.0000      -2.243704       -61.0543 
  25   1.0000      -2.243494       -61.0486 
  26   1.0000      -2.243209       -61.0408 
  27   1.0000      -2.242858       -61.0313 
  28   1.0000      -2.242205       -61.0135 
  29   1.0000      -2.242196       -61.0133 
  30   1.0000      -2.241700       -60.9998 
  31   1.0000      -2.240411       -60.9647 
  32   1.0000      -2.240131       -60.9571 
  33   1.0000      -2.239874       -60.9501 
  34   1.0000      -2.239384       -60.9367 
  35   1.0000      -2.238046       -60.9003 
  36   1.0000      -2.237812       -60.8940 
  37   1.0000      -2.236550       -60.8596 
  38   1.0000      -2.236200       -60.8501 
  39   1.0000      -2.236049       -60.8460 
  40   1.0000      -2.235713       -60.8369 
  41   1.0000      -2.235688       -60.8362 
  42   1.0000      -2.235149       -60.8215 
  43   1.0000      -2.233373       -60.7732 
  44   1.0000      -2.233015       -60.7634 
  45   1.0000      -2.232938       -60.7613 
  46   1.0000      -2.232617       -60.7526 
  47   1.0000      -2.232544       -60.7506 
  48   1.0000      -2.232315       -60.7444 
  49   1.0000      -2.231410       -60.7197 
  50   1.0000      -2.227345       -60.6091 
  51   1.0000      -2.227318       -60.6084 
  52   1.0000      -2.225512       -60.5592 
  53   1.0000      -2.225316       -60.5539 
  54   1.0000      -2.004570       -54.5471 
  55   1.0000      -2.002207       -54.4828 
  56   1.0000      -1.994203       -54.2650 
  57   1.0000      -0.421285       -11.4637 
  58   1.0000      -0.392801       -10.6887 
  59   1.0000      -0.375619       -10.2211 
  60   1.0000      -0.373833       -10.1725 
  61   1.0000      -0.366344        -9.9687 
  62   1.0000      -0.363927        -9.9030 
  63   1.0000      -0.362482        -9.8636 
  64   1.0000      -0.356915        -9.7122 
  65   1.0000      -0.354274        -9.6403 
  66   1.0000      -0.353351        -9.6152 
  67   1.0000      -0.347822        -9.4647 
  68   1.0000      -0.346925        -9.4403 
  69   1.0000      -0.345348        -9.3974 
  70   1.0000      -0.340747        -9.2722 
  71   1.0000      -0.334425        -9.1002 
  72   1.0000      -0.332910        -9.0589 
  73   1.0000      -0.332810        -9.0562 
  74   1.0000      -0.327069        -8.9000 
  75   1.0000      -0.324533        -8.8310 
  76   1.0000      -0.323737        -8.8093 
  77   1.0000      -0.321813        -8.7570 
  78   1.0000      -0.316045        -8.6000 
  79   1.0000      -0.315752        -8.5921 
  80   1.0000      -0.315583        -8.5874 
  81   1.0000      -0.311141        -8.4666 
  82   1.0000      -0.310060        -8.4372 
  83   1.0000      -0.303241        -8.2516 
  84   1.0000      -0.299726        -8.1560 
  85   1.0000      -0.297010        -8.0821 
  86   1.0000      -0.295840        -8.0502 
  87   1.0000      -0.295685        -8.0460 
  88   1.0000      -0.294703        -8.0193 
  89   1.0000      -0.293998        -8.0001 
  90   1.0000      -0.290305        -7.8996 
  91   1.0000      -0.288802        -7.8587 
  92   1.0000      -0.287714        -7.8291 
  93   1.0000      -0.281271        -7.6538 
  94   1.0000      -0.280085        -7.6215 
  95   1.0000      -0.279535        -7.6065 
  96   1.0000      -0.278419        -7.5762 
  97   1.0000      -0.276325        -7.5192 
  98   1.0000      -0.273901        -7.4532 
  99   1.0000      -0.273210        -7.4344 
 100   1.0000      -0.271830        -7.3969 
 101   1.0000      -0.269449        -7.3321 
 102   1.0000      -0.269086        -7.3222 
 103   1.0000      -0.266959        -7.2643 
 104   1.0000      -0.265023        -7.2116 
 105   1.0000      -0.265020        -7.2116 
 106   1.0000      -0.261904        -7.1268 
 107   1.0000      -0.261236        -7.1086 
 108   1.0000      -0.258020        -7.0211 
 109   1.0000      -0.257358        -7.0031 
 110   1.0000      -0.256444        -6.9782 
 111   1.0000      -0.254176        -6.9165 
 112   1.0000      -0.253855        -6.9078 
 113   1.0000      -0.253377        -6.8947 
 114   1.0000      -0.250257        -6.8098 
 115   1.0000      -0.250024        -6.8035 
 116   1.0000      -0.248778        -6.7696 
 117   1.0000      -0.243883        -6.6364 
 118   1.0000      -0.243108        -6.6153 
 119   1.0000      -0.241096        -6.5605 
 120   1.0000      -0.240174        -6.5355 
 121   1.0000      -0.239763        -6.5243 
 122   1.0000      -0.235385        -6.4051 
 123   1.0000      -0.229643        -6.2489 
 124   1.0000      -0.227183        -6.1820 
 125   1.0000      -0.226747        -6.1701 
 126   1.0000      -0.211413        -5.7528 
 127   1.0000      -0.206409        -5.6167 
 128   0.0000      -0.172245        -4.6870 
 129   0.0000      -0.171137        -4.6569 
 130   0.0000      -0.145269        -3.9530 
 131   0.0000      -0.132884        -3.6160 
 132   0.0000      -0.123829        -3.3696 
 133   0.0000      -0.114985        -3.1289 
 134   0.0000      -0.105772        -2.8782 
 135   0.0000      -0.077319        -2.1040 
 136   0.0000      -0.076449        -2.0803 
 137   0.0000      -0.055504        -1.5103 
 138   0.0000      -0.051012        -1.3881 
 139   0.0000      -0.044290        -1.2052 
 140   0.0000      -0.044172        -1.2020 
 141   0.0000      -0.040406        -1.0995 
 142   0.0000      -0.019713        -0.5364 
 143   0.0000      -0.009146        -0.2489 
 144   0.0000      -0.005814        -0.1582 
 145   0.0000       0.002938         0.0799 
 146   0.0000       0.011246         0.3060 
 147   0.0000       0.017526         0.4769 
 148   0.0000       0.023108         0.6288 
 149   0.0000       0.035629         0.9695 
 150   0.0000       0.047815         1.3011 
 151   0.0000       0.047898         1.3034 
 152   0.0000       0.050200         1.3660 
 153   0.0000       0.052038         1.4160 
 154   0.0000       0.052187         1.4201 
 155   0.0000       0.055163         1.5011 
 156   0.0000       0.061839         1.6827 
 157   0.0000       0.068622         1.8673 
 158   0.0000       0.078436         2.1344 
 159   0.0000       0.080363         2.1868 
 160   0.0000       0.083224         2.2647 
 161   0.0000       0.091693         2.4951 
 162   0.0000       0.096181         2.6172 
 163   0.0000       0.097131         2.6431 
 164   0.0000       0.099063         2.6956 
 165   0.0000       0.100922         2.7462 
 166   0.0000       0.109983         2.9928 
 167   0.0000       0.129160         3.5146 
 168   0.0000       0.135312         3.6820 
 169   0.0000       0.138082         3.7574 
 170   0.0000       0.138504         3.7689 
 171   0.0000       0.143275         3.8987 
 172   0.0000       0.143687         3.9099 
 173   0.0000       0.155249         4.2245 
 174   0.0000       0.160271         4.3612 
 175   0.0000       0.160605         4.3703 
 176   0.0000       0.179630         4.8880 
 177   0.0000       0.185495         5.0476 
 178   0.0000       0.190950         5.1960 
 179   0.0000       0.200846         5.4653 
 180   0.0000       0.206335         5.6147 
 181   0.0000       0.207136         5.6365 
 182   0.0000       0.213798         5.8178 
 183   0.0000       0.215842         5.8734 
 184   0.0000       0.224183         6.1003 
 185   0.0000       0.229109         6.2344 
 186   0.0000       0.235144         6.3986 
 187   0.0000       0.236440         6.4339 
 188   0.0000       0.245373         6.6769 
 189   0.0000       0.255147         6.9429 
 190   0.0000       0.255976         6.9655 
 191   0.0000       0.260562         7.0903 
 192   0.0000       0.262706         7.1486 
 193   0.0000       0.266991         7.2652 
 194   0.0000       0.272132         7.4051 
 195   0.0000       0.275531         7.4976 
 196   0.0000       0.278550         7.5797 
 197   0.0000       0.285658         7.7732 
 198   0.0000       0.287398         7.8205 
 199   0.0000       0.296660         8.0725 
 200   0.0000       0.301268         8.1979 
 201   0.0000       0.301847         8.2137 
 202   0.0000       0.306474         8.3396 
 203   0.0000       0.309484         8.4215 
 204   0.0000       0.324233         8.8228 
 205   0.0000       0.325117         8.8469 
 206   0.0000       0.328358         8.9351 
 207   0.0000       0.328590         8.9414 
 208   0.0000       0.340431         9.2636 
 209   0.0000       0.340565         9.2672 
 210   0.0000       0.342557         9.3215 
 211   0.0000       0.345723         9.4076 
 212   0.0000       0.351966         9.5775 
 213   0.0000       0.356932         9.7126 
 214   0.0000       0.358586         9.7576 
 215   0.0000       0.360913         9.8209 
 216   0.0000       0.371248        10.1022 
 217   0.0000       0.371388        10.1060 
 218   0.0000       0.381004        10.3676 
 219   0.0000       0.387852        10.5540 
 220   0.0000       0.399560        10.8726 
 221   0.0000       0.407114        11.0781 
 222   0.0000       0.411661        11.2019 
 223   0.0000       0.414985        11.2923 
 224   0.0000       0.420756        11.4494 
 225   0.0000       0.424612        11.5543 
 226   0.0000       0.429788        11.6951 
 227   0.0000       0.429929        11.6990 
 228   0.0000       0.433139        11.7863 
 229   0.0000       0.440221        11.9790 
 230   0.0000       0.444909        12.1066 
 231   0.0000       0.460127        12.5207 
 232   0.0000       0.463655        12.6167 
 233   0.0000       0.470198        12.7947 
 234   0.0000       0.478112        13.0101 
 235   0.0000       0.482673        13.1342 
 236   0.0000       0.489069        13.3082 
 237   0.0000       0.489156        13.3106 
 238   0.0000       0.489188        13.3115 
 239   0.0000       0.494274        13.4499 
 240   0.0000       0.500086        13.6080 
 241   0.0000       0.503134        13.6910 
 242   0.0000       0.509020        13.8511 
 243   0.0000       0.525018        14.2865 
 244   0.0000       0.528497        14.3811 
 245   0.0000       0.528538        14.3822 
 246   0.0000       0.534673        14.5492 
 247   0.0000       0.539073        14.6689 
 248   0.0000       0.540952        14.7200 
 249   0.0000       0.543312        14.7843 
 250   0.0000       0.555023        15.1030 
 251   0.0000       0.591033        16.0828 
 252   0.0000       0.612359        16.6631 
 253   0.0000       0.618312        16.8251 
 254   0.0000       0.650330        17.6964 
 255   0.0000       0.665637        18.1129 
 256   0.0000       0.666324        18.1316 
 257   0.0000       0.679428        18.4882 
 258   0.0000       0.686476        18.6800 
 259   0.0000       0.687426        18.7058 
 260   0.0000       0.693672        18.8758 
 261   0.0000       0.702418        19.1138 
 262   0.0000       0.721443        19.6315 
 263   0.0000       0.729925        19.8623 
 264   0.0000       0.757559        20.6142 
 265   0.0000       0.768222        20.9044 
 266   0.0000       0.776130        21.1196 
 267   0.0000       0.780200        21.2303 
 268   0.0000       0.784656        21.3516 
 269   0.0000       0.788995        21.4696 
 270   0.0000       0.795608        21.6496 
 271   0.0000       0.803150        21.8548 
 272   0.0000       0.809878        22.0379 
 273   0.0000       0.814530        22.1645 
 274   0.0000       0.828576        22.5467 
 275   0.0000       0.830458        22.5979 
 276   0.0000       0.848702        23.0943 
 277   0.0000       0.857044        23.3214 
 278   0.0000       0.864728        23.5304 
 279   0.0000       0.872631        23.7455 
 280   0.0000       0.881462        23.9858 
 281   0.0000       0.887020        24.1370 
 282   0.0000       0.944892        25.7118 
 283   0.0000       0.966987        26.3130 
 284   0.0000       0.975633        26.5483 
 285   0.0000       1.001950        27.2645 
 286   0.0000       1.010163        27.4879 
 287   0.0000       1.011141        27.5145 
 288   0.0000       1.106830        30.1184 
 289   0.0000       1.169725        31.8298 
 290   0.0000       1.193021        32.4638 
 291   0.0000       1.214020        33.0352 
 292   0.0000       1.215914        33.0867 
 293   0.0000       1.231249        33.5040 
 294   0.0000       1.263661        34.3860 
 295   0.0000       1.264388        34.4057 
 296   0.0000       1.271242        34.5922 
 297   0.0000       1.274670        34.6855 
 298   0.0000       1.293591        35.2004 
 299   0.0000       1.298383        35.3308 
 300   0.0000       1.298574        35.3360 
 301   0.0000       1.321408        35.9573 
 302   0.0000       1.332466        36.2582 
 303   0.0000       1.333486        36.2860 
 304   0.0000       1.333877        36.2966 
 305   0.0000       1.346041        36.6276 
 306   0.0000       1.349183        36.7131 
 307   0.0000       1.363511        37.1030 
 308   0.0000       1.368683        37.2438 
 309   0.0000       1.377560        37.4853 
 310   0.0000       1.386695        37.7339 
 311   0.0000       1.387140        37.7460 
 312   0.0000       1.387200        37.7476 
 313   0.0000       1.394269        37.9400 
 314   0.0000       1.396324        37.9959 
 315   0.0000       1.406746        38.2795 
 316   0.0000       1.411454        38.4076 
 317   0.0000       1.411778        38.4164 
 318   0.0000       1.416604        38.5478 
 319   0.0000       1.420166        38.6447 
 320   0.0000       1.422758        38.7152 
 321   0.0000       1.434682        39.0397 
 322   0.0000       1.438562        39.1453 
 323   0.0000       1.439487        39.1704 
 324   0.0000       1.444602        39.3096 
 325   0.0000       1.445394        39.3312 
 326   0.0000       1.448276        39.4096 
 327   0.0000       1.450878        39.4804 
 328   0.0000       1.456606        39.6363 
 329   0.0000       1.459557        39.7166 
 330   0.0000       1.463093        39.8128 
 331   0.0000       1.464166        39.8420 
 332   0.0000       1.466670        39.9101 
 333   0.0000       1.467909        39.9438 
 334   0.0000       1.472322        40.0639 
 335   0.0000       1.477605        40.2077 
 336   0.0000       1.477923        40.2163 
 337   0.0000       1.478102        40.2212 
 338   0.0000       1.479066        40.2474 
 339   0.0000       1.480192        40.2781 
 340   0.0000       1.481184        40.3051 
 341   0.0000       1.483753        40.3750 
 342   0.0000       1.484400        40.3926 
 343   0.0000       1.485817        40.4311 
 344   0.0000       1.487621        40.4802 
 345   0.0000       1.491409        40.5833 
 346   0.0000       1.491570        40.5877 
 347   0.0000       1.492152        40.6035 
 348   0.0000       1.495259        40.6881 
 349   0.0000       1.496425        40.7198 
 350   0.0000       1.497135        40.7391 
 351   0.0000       1.497280        40.7431 
 352   0.0000       1.501147        40.8483 
 353   0.0000       1.503101        40.9014 
 354   0.0000       1.503725        40.9184 
 355   0.0000       1.508479        41.0478 
 356   0.0000       1.509523        41.0762 
 357   0.0000       1.509890        41.0862 
 358   0.0000       1.516219        41.2584 
 359   0.0000       1.518974        41.3334 
 360   0.0000       1.519584        41.3500 
 361   0.0000       1.522261        41.4228 
 362   0.0000       1.524101        41.4729 
 363   0.0000       1.526504        41.5383 
 364   0.0000       1.527327        41.5607 
 365   0.0000       1.528685        41.5976 
 366   0.0000       1.531407        41.6717 
 367   0.0000       1.533047        41.7163 
 368   0.0000       1.534128        41.7458 
 369   0.0000       1.537046        41.8251 
 370   0.0000       1.537752        41.8444 
 371   0.0000       1.538049        41.8524 
 372   0.0000       1.540014        41.9059 
 373   0.0000       1.547415        42.1073 
 374   0.0000       1.547908        42.1207 
 375   0.0000       1.551938        42.2304 
 376   0.0000       1.551993        42.2319 
 377   0.0000       1.553633        42.2765 
 378   0.0000       1.555384        42.3241 
 379   0.0000       1.557652        42.3859 
 380   0.0000       1.561472        42.4898 
 381   0.0000       1.562622        42.5211 
 382   0.0000       1.564879        42.5825 
 383   0.0000       1.567510        42.6541 
 384   0.0000       1.570733        42.7418 
 385   0.0000       1.571549        42.7640 
 386   0.0000       1.577183        42.9173 
 387   0.0000       1.577239        42.9189 
 388   0.0000       1.579525        42.9811 
 389   0.0000       1.585134        43.1337 
 390   0.0000       1.588106        43.2146 
 391   0.0000       1.588194        43.2169 
 392   0.0000       1.591924        43.3184 
 393   0.0000       1.593138        43.3515 
 394   0.0000       1.593204        43.3533 
 395   0.0000       1.596238        43.4358 
 396   0.0000       1.601745        43.5857 
 397   0.0000       1.602689        43.6114 
 398   0.0000       1.609270        43.7905 
 399   0.0000       1.615389        43.9570 
 400   0.0000       1.618384        44.0385 
 401   0.0000       1.618688        44.0467 
 402   0.0000       1.620102        44.0852 
 403   0.0000       1.628076        44.3022 
 404   0.0000       1.631073        44.3837 
 405   0.0000       1.636925        44.5430 
 406   0.0000       1.639258        44.6065 
 407   0.0000       1.646816        44.8121 
 408   0.0000       1.647091        44.8196 
 409   0.0000       1.655316        45.0434 
 410   0.0000       1.658766        45.1373 
 411   0.0000       1.667835        45.3841 
 412   0.0000       1.677781        45.6547 
 413   0.0000       1.694224        46.1022 
 414   0.0000       1.707669        46.4680 
 415   0.0000       1.715780        46.6887 
 416   0.0000       1.729249        47.0553 
 417   0.0000       1.732327        47.1390 
 418   0.0000       1.751719        47.6667 
 419   0.0000       1.764287        48.0087 
 420   0.0000       1.767915        48.1074 
 421   0.0000       1.774400        48.2839 
 422   0.0000       1.776544        48.3422 
 423   0.0000       1.799364        48.9632 
 424   0.0000       1.799546        48.9681 
 425   0.0000       1.827377        49.7254 
 426   0.0000       1.849209        50.3195 
 427   0.0000       1.849587        50.3298 
 428   0.0000       1.865549        50.7642 
 429   0.0000       1.875036        51.0223 
 430   0.0000       1.935104        52.6568 
 431   0.0000       1.941886        52.8414 
 432   0.0000       1.947057        52.9821 
 433   0.0000       1.954134        53.1747 
 434   0.0000       1.980906        53.9032 
 435   0.0000       2.046921        55.6995 
 436   0.0000       2.062867        56.1335 
 437   0.0000       2.077706        56.5373 
 438   0.0000       2.103056        57.2271 
 439   0.0000       2.154650        58.6310 
 440   0.0000       2.210568        60.1526 
 441   0.0000       2.235490        60.8308 
 442   0.0000       2.243634        61.0524 
[...]
 140( 0) :    -0.042647 a.u.    -1.160 eV
 141( 0) :    -0.033519 a.u.    -0.912 eV
 142( 0) :    -0.031791 a.u.    -0.865 eV
 143( 0) :    -0.005847 a.u.    -0.159 eV
 144( 0) :    -0.005385 a.u.    -0.147 eV
 145( 0) :     0.015151 a.u.     0.412 eV
 146( 0) :     0.018452 a.u.     0.502 eV
 147( 0) :     0.025189 a.u.     0.685 eV
 148( 0) :     0.028398 a.u.     0.773 eV
 149( 0) :     0.029713 a.u.     0.809 eV
 150( 0) :     0.040379 a.u.     1.099 eV
 151( 0) :     0.040981 a.u.     1.115 eV
 152( 0) :     0.045155 a.u.     1.229 eV
 153( 0) :     0.051268 a.u.     1.395 eV
 154( 0) :     0.052408 a.u.     1.426 eV
 155( 0) :     0.064044 a.u.     1.743 eV
 156( 0) :     0.068013 a.u.     1.851 eV
 157( 0) :     0.071430 a.u.     1.944 eV
 158( 0) :     0.072916 a.u.     1.984 eV
 159( 0) :     0.080801 a.u.     2.199 eV
 160( 0) :     0.083278 a.u.     2.266 eV
 161( 0) :     0.084794 a.u.     2.307 eV
 162( 0) :     0.089162 a.u.     2.426 eV
 163( 0) :     0.098178 a.u.     2.672 eV
 164( 0) :     0.102807 a.u.     2.798 eV
 165( 0) :     0.108689 a.u.     2.958 eV
 166( 0) :     0.114337 a.u.     3.111 eV
 167( 0) :     0.131158 a.u.     3.569 eV
 168( 0) :     0.135609 a.u.     3.690 eV
 169( 0) :     0.146843 a.u.     3.996 eV
 170( 0) :     0.148734 a.u.     4.047 eV
 171( 0) :     0.154905 a.u.     4.215 eV
 172( 0) :     0.156976 a.u.     4.272 eV
 173( 0) :     0.159533 a.u.     4.341 eV
 174( 0) :     0.162790 a.u.     4.430 eV
 175( 0) :     0.173034 a.u.     4.708 eV
 176( 0) :     0.174140 a.u.     4.739 eV
 177( 0) :     0.176621 a.u.     4.806 eV
 178( 0) :     0.182499 a.u.     4.966 eV
 179( 0) :     0.189627 a.u.     5.160 eV
 180( 0) :     0.198661 a.u.     5.406 eV
 181( 0) :     0.208142 a.u.     5.664 eV
 182( 0) :     0.215817 a.u.     5.873 eV
 183( 0) :     0.216630 a.u.     5.895 eV
 184( 0) :     0.228604 a.u.     6.221 eV
 185( 0) :     0.231537 a.u.     6.300 eV
 186( 0) :     0.234915 a.u.     6.392 eV
 187( 0) :     0.247424 a.u.     6.733 eV
 188( 0) :     0.253307 a.u.     6.893 eV
 189( 0) :     0.254782 a.u.     6.933 eV
 190( 0) :     0.256970 a.u.     6.993 eV
 191( 0) :     0.260525 a.u.     7.089 eV
 192( 0) :     0.268990 a.u.     7.320 eV
 193( 0) :     0.275361 a.u.     7.493 eV
 194( 0) :     0.281204 a.u.     7.652 eV
 195( 0) :     0.282429 a.u.     7.685 eV
 196( 0) :     0.285082 a.u.     7.757 eV
 197( 0) :     0.287216 a.u.     7.816 eV
 198( 0) :     0.292259 a.u.     7.953 eV
 199( 0) :     0.296934 a.u.     8.080 eV
 200( 0) :     0.297340 a.u.     8.091 eV
 201( 0) :     0.311723 a.u.     8.482 eV
 202( 0) :     0.312062 a.u.     8.492 eV
 203( 0) :     0.314414 a.u.     8.556 eV
 204( 0) :     0.318813 a.u.     8.675 eV
 205( 0) :     0.320762 a.u.     8.728 eV
 206( 0) :     0.329104 a.u.     8.955 eV
 207( 0) :     0.335469 a.u.     9.129 eV
 208( 0) :     0.335553 a.u.     9.131 eV
 209( 0) :     0.344420 a.u.     9.372 eV
 210( 0) :     0.347179 a.u.     9.447 eV
 211( 0) :     0.353893 a.u.     9.630 eV
 212( 0) :     0.364450 a.u.     9.917 eV
 213( 0) :     0.369116 a.u.    10.044 eV
 214( 0) :     0.371879 a.u.    10.119 eV
 215( 0) :     0.374813 a.u.    10.199 eV
 216( 0) :     0.382189 a.u.    10.400 eV
 217( 0) :     0.384093 a.u.    10.452 eV
 218( 0) :     0.386864 a.u.    10.527 eV
 219( 0) :     0.388275 a.u.    10.565 eV
 220( 0) :     0.398620 a.u.    10.847 eV
 221( 0) :     0.406372 a.u.    11.058 eV
 222( 0) :     0.410672 a.u.    11.175 eV
 223( 0) :     0.411519 a.u.    11.198 eV
 224( 0) :     0.411637 a.u.    11.201 eV
 225( 0) :     0.416785 a.u.    11.341 eV
 226( 0) :     0.427692 a.u.    11.638 eV
 227( 0) :     0.430449 a.u.    11.713 eV
 228( 0) :     0.435977 a.u.    11.864 eV
 229( 0) :     0.440583 a.u.    11.989 eV
 230( 0) :     0.450459 a.u.    12.258 eV
 231( 0) :     0.457072 a.u.    12.438 eV
 232( 0) :     0.457360 a.u.    12.445 eV
 233( 0) :     0.467907 a.u.    12.732 eV
 234( 0) :     0.470782 a.u.    12.811 eV
 235( 0) :     0.473541 a.u.    12.886 eV
 236( 0) :     0.477109 a.u.    12.983 eV
 237( 0) :     0.483543 a.u.    13.158 eV
 238( 0) :     0.483621 a.u.    13.160 eV
 239( 0) :     0.485296 a.u.    13.206 eV
 240( 0) :     0.504191 a.u.    13.720 eV
 241( 0) :     0.506789 a.u.    13.790 eV
 242( 0) :     0.512919 a.u.    13.957 eV
 243( 0) :     0.517158 a.u.    14.073 eV
 244( 0) :     0.522601 a.u.    14.221 eV
 245( 0) :     0.524621 a.u.    14.276 eV
 246( 0) :     0.529764 a.u.    14.416 eV
 247( 0) :     0.530391 a.u.    14.433 eV
 248( 0) :     0.537674 a.u.    14.631 eV
 249( 0) :     0.553478 a.u.    15.061 eV
 250( 0) :     0.562341 a.u.    15.302 eV
 251( 0) :     0.571398 a.u.    15.549 eV
 252( 0) :     0.576172 a.u.    15.678 eV
 253( 0) :     0.607877 a.u.    16.541 eV
 254( 0) :     0.635389 a.u.    17.290 eV
 255( 0) :     0.635792 a.u.    17.301 eV
 256( 0) :     0.670895 a.u.    18.256 eV
 257( 0) :     0.677379 a.u.    18.432 eV
 258( 0) :     0.686390 a.u.    18.678 eV
 259( 0) :     0.693404 a.u.    18.868 eV
 260( 0) :     0.713875 a.u.    19.426 eV
 261( 0) :     0.743914 a.u.    20.243 eV
 262( 0) :     0.747595 a.u.    20.343 eV
 263( 0) :     0.748570 a.u.    20.370 eV
 264( 0) :     0.752375 a.u.    20.473 eV
 265( 0) :     0.761894 a.u.    20.732 eV
 266( 0) :     0.770186 a.u.    20.958 eV
 267( 0) :     0.777645 a.u.    21.161 eV
 268( 0) :     0.778458 a.u.    21.183 eV
 269( 0) :     0.790489 a.u.    21.510 eV
 270( 0) :     0.798733 a.u.    21.735 eV
 271( 0) :     0.810857 a.u.    22.065 eV
 272( 0) :     0.812373 a.u.    22.106 eV
 273( 0) :     0.822694 a.u.    22.387 eV
 274( 0) :     0.837395 a.u.    22.787 eV
 275( 0) :     0.842472 a.u.    22.925 eV
 276( 0) :     0.844557 a.u.    22.982 eV
 277( 0) :     0.852802 a.u.    23.206 eV
 278( 0) :     0.868793 a.u.    23.641 eV
 279( 0) :     0.888388 a.u.    24.174 eV
 280( 0) :     0.893019 a.u.    24.300 eV
 281( 0) :     0.894184 a.u.    24.332 eV
 282( 0) :     0.908326 a.u.    24.717 eV
 283( 0) :     0.924046 a.u.    25.145 eV
 284( 0) :     0.942525 a.u.    25.647 eV
 285( 0) :     0.947902 a.u.    25.794 eV
 286( 0) :     0.965443 a.u.    26.271 eV
 287( 0) :     1.024526 a.u.    27.879 eV
 288( 0) :     1.041652 a.u.    28.345 eV
 289( 0) :     1.056033 a.u.    28.736 eV
 290( 0) :     1.059579 a.u.    28.833 eV
 291( 0) :     1.104923 a.u.    30.066 eV
 292( 0) :     1.140067 a.u.    31.023 eV
 293( 0) :     1.186640 a.u.    32.290 eV
 294( 0) :     1.191432 a.u.    32.421 eV
 295( 0) :     1.222722 a.u.    33.272 eV
 296( 0) :     1.235154 a.u.    33.610 eV
 297( 0) :     1.240033 a.u.    33.743 eV
 298( 0) :     1.283377 a.u.    34.922 eV
 299( 0) :     1.284654 a.u.    34.957 eV
 300( 0) :     1.312082 a.u.    35.704 eV
 301( 0) :     1.312998 a.u.    35.728 eV
 302( 0) :     1.315003 a.u.    35.783 eV
 303( 0) :     1.322309 a.u.    35.982 eV
 304( 0) :     1.325017 a.u.    36.056 eV
 305( 0) :     1.341392 a.u.    36.501 eV
 306( 0) :     1.346605 a.u.    36.643 eV
 307( 0) :     1.360532 a.u.    37.022 eV
 308( 0) :     1.367054 a.u.    37.199 eV
 309( 0) :     1.371865 a.u.    37.330 eV
 310( 0) :     1.377195 a.u.    37.475 eV
 311( 0) :     1.383193 a.u.    37.639 eV
 312( 0) :     1.387557 a.u.    37.757 eV
 313( 0) :     1.393191 a.u.    37.911 eV
 314( 0) :     1.393381 a.u.    37.916 eV
 315( 0) :     1.397217 a.u.    38.020 eV
 316( 0) :     1.404368 a.u.    38.215 eV
 317( 0) :     1.407474 a.u.    38.299 eV
 318( 0) :     1.412311 a.u.    38.431 eV
 319( 0) :     1.415204 a.u.    38.510 eV
 320( 0) :     1.419025 a.u.    38.614 eV
 321( 0) :     1.420825 a.u.    38.663 eV
 322( 0) :     1.427649 a.u.    38.848 eV
 323( 0) :     1.429808 a.u.    38.907 eV
 324( 0) :     1.435261 a.u.    39.055 eV
 325( 0) :     1.440009 a.u.    39.185 eV
 326( 0) :     1.445932 a.u.    39.346 eV
 327( 0) :     1.451978 a.u.    39.510 eV
 328( 0) :     1.453360 a.u.    39.548 eV
 329( 0) :     1.457472 a.u.    39.660 eV
 330( 0) :     1.461904 a.u.    39.780 eV
 331( 0) :     1.466344 a.u.    39.901 eV
 332( 0) :     1.467313 a.u.    39.928 eV
 333( 0) :     1.470717 a.u.    40.020 eV
 334( 0) :     1.472919 a.u.    40.080 eV
 335( 0) :     1.474958 a.u.    40.136 eV
 336( 0) :     1.475722 a.u.    40.156 eV
 337( 0) :     1.481158 a.u.    40.304 eV
 338( 0) :     1.484451 a.u.    40.394 eV
 339( 0) :     1.484957 a.u.    40.408 eV
 340( 0) :     1.487578 a.u.    40.479 eV
 341( 0) :     1.489664 a.u.    40.536 eV
 342( 0) :     1.489969 a.u.    40.544 eV
 343( 0) :     1.492962 a.u.    40.626 eV
 344( 0) :     1.493275 a.u.    40.634 eV
 345( 0) :     1.493732 a.u.    40.647 eV
 346( 0) :     1.495746 a.u.    40.701 eV
 347( 0) :     1.498348 a.u.    40.772 eV
 348( 0) :     1.500649 a.u.    40.835 eV
 349( 0) :     1.503266 a.u.    40.906 eV
 350( 0) :     1.504275 a.u.    40.933 eV
 351( 0) :     1.505343 a.u.    40.962 eV
 352( 0) :     1.506464 a.u.    40.993 eV
 353( 0) :     1.508174 a.u.    41.039 eV
 354( 0) :     1.510032 a.u.    41.090 eV
 355( 0) :     1.512329 a.u.    41.153 eV
 356( 0) :     1.512714 a.u.    41.163 eV
 357( 0) :     1.515759 a.u.    41.246 eV
 358( 0) :     1.516680 a.u.    41.271 eV
 359( 0) :     1.518951 a.u.    41.333 eV
 360( 0) :     1.519321 a.u.    41.343 eV
 361( 0) :     1.520110 a.u.    41.364 eV
 362( 0) :     1.522306 a.u.    41.424 eV
 363( 0) :     1.523332 a.u.    41.452 eV
 364( 0) :     1.526103 a.u.    41.527 eV
 365( 0) :     1.527559 a.u.    41.567 eV
 366( 0) :     1.528089 a.u.    41.581 eV
 367( 0) :     1.529994 a.u.    41.633 eV
 368( 0) :     1.535360 a.u.    41.779 eV
 369( 0) :     1.535522 a.u.    41.784 eV
 370( 0) :     1.538874 a.u.    41.875 eV
 371( 0) :     1.539080 a.u.    41.880 eV
 372( 0) :     1.541553 a.u.    41.948 eV
 373( 0) :     1.541805 a.u.    41.955 eV
 374( 0) :     1.543759 a.u.    42.008 eV
 375( 0) :     1.546535 a.u.    42.083 eV
 376( 0) :     1.548427 a.u.    42.135 eV
 377( 0) :     1.549267 a.u.    42.158 eV
 378( 0) :     1.550369 a.u.    42.188 eV
 379( 0) :     1.554557 a.u.    42.302 eV
 380( 0) :     1.555406 a.u.    42.325 eV
 381( 0) :     1.562477 a.u.    42.517 eV
 382( 0) :     1.562948 a.u.    42.530 eV
 383( 0) :     1.565325 a.u.    42.595 eV
 384( 0) :     1.565528 a.u.    42.600 eV
 385( 0) :     1.567196 a.u.    42.646 eV
 386( 0) :     1.568143 a.u.    42.671 eV
 387( 0) :     1.570759 a.u.    42.743 eV
 388( 0) :     1.571275 a.u.    42.757 eV
 389( 0) :     1.578538 a.u.    42.954 eV
 390( 0) :     1.579874 a.u.    42.991 eV
 391( 0) :     1.584221 a.u.    43.109 eV
 392( 0) :     1.586668 a.u.    43.175 eV
 393( 0) :     1.590634 a.u.    43.283 eV
 394( 0) :     1.592675 a.u.    43.339 eV
 395( 0) :     1.596602 a.u.    43.446 eV
 396( 0) :     1.599608 a.u.    43.528 eV
 397( 0) :     1.601548 a.u.    43.580 eV
 398( 0) :     1.605495 a.u.    43.688 eV
 399( 0) :     1.607238 a.u.    43.735 eV
 400( 0) :     1.612502 a.u.    43.878 eV
 401( 0) :     1.613957 a.u.    43.918 eV
 402( 0) :     1.623719 a.u.    44.184 eV
 403( 0) :     1.623795 a.u.    44.186 eV
 404( 0) :     1.626368 a.u.    44.256 eV
 405( 0) :     1.627827 a.u.    44.295 eV
 406( 0) :     1.639560 a.u.    44.615 eV
 407( 0) :     1.640772 a.u.    44.648 eV
 408( 0) :     1.646176 a.u.    44.795 eV
 409( 0) :     1.653609 a.u.    44.997 eV
 410( 0) :     1.657396 a.u.    45.100 eV
 411( 0) :     1.661329 a.u.    45.207 eV
 412( 0) :     1.664752 a.u.    45.300 eV
 413( 0) :     1.665722 a.u.    45.327 eV
 414( 0) :     1.693543 a.u.    46.084 eV
 415( 0) :     1.711797 a.u.    46.580 eV
 416( 0) :     1.717137 a.u.    46.726 eV
 417( 0) :     1.723899 a.u.    46.910 eV
 418( 0) :     1.734894 a.u.    47.209 eV
 419( 0) :     1.742125 a.u.    47.406 eV
 420( 0) :     1.748920 a.u.    47.591 eV
 421( 0) :     1.767441 a.u.    48.095 eV
 422( 0) :     1.773990 a.u.    48.273 eV
 423( 0) :     1.786156 a.u.    48.604 eV
 424( 0) :     1.794314 a.u.    48.826 eV
 425( 0) :     1.805528 a.u.    49.131 eV
 426( 0) :     1.807481 a.u.    49.184 eV
 427( 0) :     1.810576 a.u.    49.268 eV
 428( 0) :     1.812991 a.u.    49.334 eV
 429( 0) :     1.855794 a.u.    50.499 eV
 430( 0) :     1.866028 a.u.    50.777 eV
 431( 0) :     1.880871 a.u.    51.181 eV
 432( 0) :     1.906053 a.u.    51.866 eV
 433( 0) :     1.918690 a.u.    52.210 eV
 434( 0) :     1.925740 a.u.    52.402 eV
 435( 0) :     1.943814 a.u.    52.894 eV
 436( 0) :     1.955468 a.u.    53.211 eV
 437( 0) :     1.968082 a.u.    53.554 eV
 438( 0) :     2.113808 a.u.    57.520 eV
 439( 0) :     2.199684 a.u.    59.856 eV
 440( 0) :     2.216747 a.u.    60.321 eV
 441( 0) :     2.261592 a.u.    61.541 eV
 442( 0) :     2.284680 a.u.    62.169 eV
 443( 0) :     2.292921 a.u.    62.394 eV
 444( 0) :     2.352526 a.u.    64.015 eV
 445( 0) :     2.366594 a.u.    64.398 eV
 446( 0) :     2.418538 a.u.    65.812 eV
 447( 0) :     2.464033 a.u.    67.050 eV
 448( 0) :     2.475921 a.u.    67.373 eV
 449( 0) :     2.490422 a.u.    67.768 eV
 450( 0) :     2.530414 a.u.    68.856 eV
 451( 0) :     2.533071 a.u.    68.928 eV
 452( 0) :     2.981792 a.u.    81.139 eV
 453( 0) :     3.197236 a.u.    87.001 eV
 454( 0) :     3.237452 a.u.    88.096 eV
 455( 0) :     3.237968 a.u.    88.110 eV
 456( 0) :     3.242882 a.u.    88.243 eV
 457( 0) :     3.255110 a.u.    88.576 eV
 458( 0) :     3.255198 a.u.    88.578 eV
 459( 0) :     3.275051 a.u.    89.119 eV
 460( 0) :     3.275861 a.u.    89.141 eV
 461( 0) :     3.335073 a.u.    90.752 eV
 462( 0) :     3.423276 a.u.    93.152 eV
 463( 0) :     3.424308 a.u.    93.180 eV
 464( 0) :     3.553893 a.u.    96.706 eV
 465( 0) :    23.301762 a.u.   634.073 eV
 466( 0) :    23.643366 a.u.   643.369 eV
 467( 0) :    23.732131 a.u.   645.784 eV
 468( 0) :    23.966894 a.u.   652.172 eV
 469( 0) :    24.004977 a.u.   653.209 eV
 470( 0) :    24.171807 a.u.   657.748 eV
 471( 0) :    24.574345 a.u.   668.702 eV
 472( 0) :    24.691641 a.u.   671.894 eV
 473( 0) :    25.115970 a.u.   683.440 eV
 474( 0) :    25.288621 a.u.   688.138 eV
 475( 0) :    25.519970 a.u.   694.434 eV
 476( 0) :    25.565298 a.u.   695.667 eV
 477( 0) :    25.690188 a.u.   699.066 eV
 478( 0) :    25.694600 a.u.   699.186 eV
 479( 0) :    25.946019 a.u.   706.027 eV
 480( 0) :    25.957361 a.u.   706.336 eV
 481( 0) :    26.057974 a.u.   709.074 eV
 482( 0) :    26.195697 a.u.   712.821 eV
 483( 0) :    26.261790 a.u.   714.620 eV
 484( 0) :    26.289235 a.u.   715.366 eV
 485( 0) :    26.348867 a.u.   716.989 eV
 486( 0) :    26.486906 a.u.   720.745 eV
 487( 0) :    26.587254 a.u.   723.476 eV
 488( 0) :    26.590417 a.u.   723.562 eV
 489( 0) :    26.733385 a.u.   727.452 eV
 490( 0) :    26.789336 a.u.   728.975 eV
 491( 0) :    26.857676 a.u.   730.835 eV
 492( 0) :    26.920446 a.u.   732.543 eV
 493( 0) :    27.271524 a.u.   742.096 eV
 494( 0) :    27.458875 a.u.   747.194 eV
 495( 0) :    27.705095 a.u.   753.894 eV
 496( 0) :    27.790399 a.u.   756.215 eV
 497( 0) :    28.012131 a.u.   762.249 eV
 498( 0) :    28.294604 a.u.   769.935 eV
 499( 0) :    28.501415 a.u.   775.563 eV
 500( 0) :    29.206374 a.u.   794.746 eV
 501( 0) :    43.875759 a.u.  1193.920 eV
 502( 0) :    43.941414 a.u.  1195.707 eV
 503( 0) :    43.952921 a.u.  1196.020 eV
 504( 0) :    43.981607 a.u.  1196.800 eV
 505( 0) :    44.053782 a.u.  1198.764 eV
 506( 0) :    44.058301 a.u.  1198.887 eV
 507( 0) :    44.140897 a.u.  1201.135 eV
 508( 0) :    44.141128 a.u.  1201.141 eV
 509( 0) :    44.154568 a.u.  1201.507 eV
 510( 0) :    44.171102 a.u.  1201.957 eV
 511( 0) :    44.198810 a.u.  1202.711 eV
 512( 0) :    44.231308 a.u.  1203.595 eV
 513( 0) :   205.082066 a.u.  5580.567 eV
 514( 0) :   205.108657 a.u.  5581.290 eV
 515( 0) :   205.114607 a.u.  5581.452 eV
 516( 0) :   205.125825 a.u.  5581.757 eV
 517( 0) :   205.156258 a.u.  5582.586 eV
 518( 0) :   205.158143 a.u.  5582.637 eV
 519( 0) :   205.187304 a.u.  5583.430 eV
 520( 0) :   205.191838 a.u.  5583.554 eV
 521( 0) :   205.196402 a.u.  5583.678 eV
 522( 0) :   205.198151 a.u.  5583.726 eV
 523( 0) :   205.211756 a.u.  5584.096 eV
 524( 0) :   205.231177 a.u.  5584.624 eV
-------
TIMINGS
-------

Total SCF time: 0 days 0 hours 4 min 44 sec 

Total time                  ....     284.916 sec
Sum of individual times     ....     278.655 sec  ( 97.8%)

Fock matrix formation       ....     267.672 sec  ( 93.9%)
  Split-RI-J                ....      87.239 sec  ( 32.6% of F)
  XC integration            ....     180.193 sec  ( 67.3% of F)
    Basis function eval.    ....      33.027 sec  ( 18.3% of XC)
    Density eval.           ....      91.412 sec  ( 50.7% of XC)
    XC-Functional eval.     ....       4.986 sec  (  2.8% of XC)
    XC-Potential eval.      ....      44.453 sec  ( 24.7% of XC)
Diagonalization             ....       3.844 sec  (  1.3%)
Density matrix formation    ....       0.530 sec  (  0.2%)
Population analysis         ....       2.331 sec  (  0.8%)
Initial guess               ....       0.288 sec  (  0.1%)
Orbital Transformation      ....       0.172 sec  (  0.1%)
Orbital Orthonormalization  ....       0.249 sec  (  0.1%)
DIIS solution               ....       0.000 sec  (  0.0%)
Grid generation             ....       3.813 sec  (  1.3%)

Maximum memory used throughout the entire SCF-calculation: 466.1 MB

-------------------------   --------------------
FINAL SINGLE POINT ENERGY     -2780.692900550642
-------------------------   --------------------

                                *** OPTIMIZATION RUN DONE ***

                            ***************************************
                            *     ORCA property calculations      *
                            ***************************************

                                    ---------------------
                                    Active property flags
                                    ---------------------
   (+) Dipole Moment


------------------------------------------------------------------------------
                       ORCA ELECTRIC PROPERTIES CALCULATION
------------------------------------------------------------------------------

Dipole Moment Calculation                       ... on
Quadrupole Moment Calculation                   ... off
Polarizability Calculation                      ... off
GBWName                                         ... pbe.gbw
Electron density                                ... pbe.scfp
The origin for moment calculation is the CENTER OF MASS  = (16.801703, 16.503586 14.490495)

-------------
DIPOLE MOMENT
-------------
                                X             Y             Z
Electronic contribution:     -6.25725      -0.38933       2.33341
Nuclear contribution   :      6.14300       0.35693      -2.30332
                        -----------------------------------------
Total Dipole Moment    :     -0.11425      -0.03240       0.03010
                        -----------------------------------------
Magnitude (a.u.)       :      0.12251
Magnitude (Debye)      :      0.31140



--------------------
Rotational spectrum 
--------------------
 
Rotational constants in cm-1:     0.001535     0.001171     0.000911 
Rotational constants in MHz :    46.010758    35.107292    27.306238 

 Dipole components along the rotational axes: 
x,y,z [a.u.] :    -0.094126     0.002146     0.078389 
x,y,z [Debye]:    -0.239248     0.005456     0.199248 

 

Timings for individual modules:

Sum of individual times         ...    38438.766 sec (= 640.646 min)
GTO integral calculation        ...      687.172 sec (=  11.453 min)   1.8 %
SCF iterations                  ...    29759.198 sec (= 495.987 min)  77.4 %
SCF Gradient evaluation         ...     7984.558 sec (= 133.076 min)  20.8 %
Geometry relaxation             ...        7.839 sec (=   0.131 min)   0.0 %
                             ****ORCA TERMINATED NORMALLY****
TOTAL RUN TIME: 0 days 10 hours 40 minutes 47 seconds 44 msec
