
                                 *****************
                                 * O   R   C   A *
                                 *****************

                                            #,                                       
                                            ###                                      
                                            ####                                     
                                            #####                                    
                                            ######                                   
                                           ########,                                 
                                     ,,################,,,,,                         
                               ,,#################################,,                 
                          ,,##########################################,,             
                       ,#########################################, ''#####,          
                    ,#############################################,,   '####,        
                  ,##################################################,,,,####,       
                ,###########''''           ''''###############################       
              ,#####''   ,,,,##########,,,,          '''####'''          '####       
            ,##' ,,,,###########################,,,                        '##       
           ' ,,###''''                  '''############,,,                           
         ,,##''                                '''############,,,,        ,,,,,,###''
      ,#''                                            '''#######################'''  
     '                                                          ''''####''''         
             ,#######,   #######,   ,#######,      ##                                
            ,#'     '#,  ##    ##  ,#'     '#,    #''#        ######   ,####,        
            ##       ##  ##   ,#'  ##            #'  '#       #        #'  '#        
            ##       ##  #######   ##           ,######,      #####,   #    #        
            '#,     ,#'  ##    ##  '#,     ,#' ,#      #,         ##   #,  ,#        
             '#######'   ##     ##  '#######'  #'      '#     #####' # '####'        



                  #######################################################
                  #                        -***-                        #
                  #          Department of theory and spectroscopy      #
                  #    Directorship and core code : Frank Neese         #
                  #        Max Planck Institute fuer Kohlenforschung    #
                  #                Kaiser Wilhelm Platz 1               #
                  #                 D-45470 Muelheim/Ruhr               #
                  #                      Germany                        #
                  #                                                     #
                  #                  All rights reserved                #
                  #                        -***-                        #
                  #######################################################


                         Program Version 5.0.3 -  RELEASE  -


 With contributions from (in alphabetic order):
   Daniel Aravena         : Magnetic Suceptibility
   Michael Atanasov       : Ab Initio Ligand Field Theory (pilot matlab implementation)
   Alexander A. Auer      : GIAO ZORA, VPT2 properties, NMR spectrum
   Ute Becker             : Parallelization
   Giovanni Bistoni       : ED, misc. LED, open-shell LED, HFLD
   Martin Brehm           : Molecular dynamics
   Dmytro Bykov           : SCF Hessian
   Vijay G. Chilkuri      : MRCI spin determinant printing, contributions to CSF-ICE
   Dipayan Datta          : RHF DLPNO-CCSD density
   Achintya Kumar Dutta   : EOM-CC, STEOM-CC
   Dmitry Ganyushin       : Spin-Orbit,Spin-Spin,Magnetic field MRCI
   Miquel Garcia          : C-PCM and meta-GGA Hessian, CC/C-PCM, Gaussian charge scheme
   Yang Guo               : DLPNO-NEVPT2, F12-NEVPT2, CIM, IAO-localization
   Andreas Hansen         : Spin unrestricted coupled pair/coupled cluster methods
   Benjamin Helmich-Paris : MC-RPA, TRAH-SCF, COSX integrals
   Lee Huntington         : MR-EOM, pCC
   Robert Izsak           : Overlap fitted RIJCOSX, COSX-SCS-MP3, EOM
   Marcus Kettner         : VPT2
   Christian Kollmar      : KDIIS, OOCD, Brueckner-CCSD(T), CCSD density, CASPT2, CASPT2-K
   Simone Kossmann        : Meta GGA functionals, TD-DFT gradient, OOMP2, MP2 Hessian
   Martin Krupicka        : Initial AUTO-CI
   Lucas Lang             : DCDCAS
   Marvin Lechner         : AUTO-CI (C++ implementation), FIC-MRCC
   Dagmar Lenk            : GEPOL surface, SMD
   Dimitrios Liakos       : Extrapolation schemes; Compound Job, initial MDCI parallelization
   Dimitrios Manganas     : Further ROCIS development; embedding schemes
   Dimitrios Pantazis     : SARC Basis sets
   Anastasios Papadopoulos: AUTO-CI, single reference methods and gradients
   Taras Petrenko         : DFT Hessian,TD-DFT gradient, ASA, ECA, R-Raman, ABS, FL, XAS/XES, NRVS
   Peter Pinski           : DLPNO-MP2, DLPNO-MP2 Gradient
   Christoph Reimann      : Effective Core Potentials
   Marius Retegan         : Local ZFS, SOC
   Christoph Riplinger    : Optimizer, TS searches, QM/MM, DLPNO-CCSD(T), (RO)-DLPNO pert. Triples
   Tobias Risthaus        : Range-separated hybrids, TD-DFT gradient, RPA, STAB
   Michael Roemelt        : Original ROCIS implementation
   Masaaki Saitow         : Open-shell DLPNO-CCSD energy and density
   Barbara Sandhoefer     : DKH picture change effects
   Avijit Sen             : IP-ROCIS
   Kantharuban Sivalingam : CASSCF convergence, NEVPT2, FIC-MRCI
   Bernardo de Souza      : ESD, SOC TD-DFT
   Georgi Stoychev        : AutoAux, RI-MP2 NMR, DLPNO-MP2 response
   Willem Van den Heuvel  : Paramagnetic NMR
   Boris Wezisla          : Elementary symmetry handling
   Frank Wennmohs         : Technical directorship


 We gratefully acknowledge several colleagues who have allowed us to
 interface, adapt or use parts of their codes:
   Stefan Grimme, W. Hujo, H. Kruse, P. Pracht,  : VdW corrections, initial TS optimization,
                  C. Bannwarth, S. Ehlert          DFT functionals, gCP, sTDA/sTD-DF
   Ed Valeev, F. Pavosevic, A. Kumar             : LibInt (2-el integral package), F12 methods
   Garnet Chan, S. Sharma, J. Yang, R. Olivares  : DMRG
   Ulf Ekstrom                                   : XCFun DFT Library
   Mihaly Kallay                                 : mrcc  (arbitrary order and MRCC methods)
   Jiri Pittner, Ondrej Demel                    : Mk-CCSD
   Frank Weinhold                                : gennbo (NPA and NBO analysis)
   Christopher J. Cramer and Donald G. Truhlar   : smd solvation model
   Lars Goerigk                                  : TD-DFT with DH, B97 family of functionals
   V. Asgeirsson, H. Jonsson                     : NEB implementation
   FAccTs GmbH                                   : IRC, NEB, NEB-TS, DLPNO-Multilevel, CI-OPT
                                                   MM, QMMM, 2- and 3-layer-ONIOM, Crystal-QMMM,
                                                   LR-CPCM, SF, NACMEs, symmetry and pop. for TD-DFT,
                                                   nearIR, NL-DFT gradient (VV10), updates on ESD,
                                                   ML-optimized integration grids
   S Lehtola, MJT Oliveira, MAL Marques          : LibXC Library
   Liviu Ungur et al                             : ANISO software


 Your calculation uses the libint2 library for the computation of 2-el integrals
 For citations please refer to: http://libint.valeyev.net

 Your ORCA version has been built with support for libXC version: 5.1.0
 For citations please refer to: https://tddft.org/programs/libxc/

 This ORCA versions uses:
   CBLAS   interface :  Fast vector & matrix operations
   LAPACKE interface :  Fast linear algebra routines
   SCALAPACK package :  Parallel linear algebra routines
   Shared memory     :  Shared parallel matrices
   BLAS/LAPACK       :  OpenBLAS 0.3.15  USE64BITINT DYNAMIC_ARCH NO_AFFINITY Haswell SINGLE_THREADED
        Core in use  :  Haswell
   Copyright (c) 2011-2014, The OpenBLAS Project




***************************************
The coordinates will be read from file: pbe.xyz
***************************************


================================================================================

cite the ECPs for Au [Def2-ECP] as follows:
Ce-Yb(ecp-28): M. Dolg, H. Stoll, H.Preuss, J. Chem. Phys., 1989, 90, 1730-1734.
Y-Cd(ecp-28), Hf-Hg(ecp-46): D. Andrae,U. Haeussermann, M. Dolg, H. Stoll, H. Preuss, Theor. Chim. Acta, 1990, 77, 123-141.
In-Sb(ecp-28), Tl-Bi(ecp-46): B. Metz, H. Stoll, M. Dolg, J. Chem. Phys., 2000, 113, 2563-2569.
Te-Xe(ecp-28), Po-Rn(ecp-46): K. A. Peterson, D. Figgen, E. Goll, H. Stoll, M. Dolg, J. Chem. Phys., 2003, 119, 11113-11123.
Rb(ecp-28), Cs(ecp-46): T. Leininger, A. Nicklass, W. Kuechle, H. Stoll, M. Dolg, A. Bergner, Chem. Phys. Lett., 1996, 255, 274-280.
Sr(ecp-28), Ba(ecp-46): M. Kaupp, P. V. Schleyer, H. Stoll and H. Preuss, J. Chem. Phys., 1991, 94, 1360-1366.
La(ecp-46): M. Dolg, H. Stoll, A. Savin, H. Preuss, Theor. Chim. Acta, 1989, 75, 173-194.
Lu(ecp-28): X. Cao, M. Dolg, J. Chem. Phys., 2001, 115, 7348-7355.

ECP parameters for Au [Def2-ECP] have been obtained from:
TURBOMOLE (7.0.2)

----- Orbital basis set information -----
Your calculation utilizes the basis: def2-TZVP
   F. Weigend and R. Ahlrichs, Phys. Chem. Chem. Phys. 7, 3297 (2005).

----- AuxJ basis set information -----
Your calculation utilizes the auxiliary basis: def2/J
   F. Weigend, Phys. Chem. Chem. Phys. 8, 1057 (2006).

================================================================================
                                        WARNINGS
                       Please study these warnings very carefully!
================================================================================


WARNING: your system is open-shell and RHF/RKS was chosen
  ===> : WILL SWITCH to UHF/UKS


INFO   : the flag for use of the SHARK integral package has been found!



***************************************
The coordinates will be read from file: pbe.xyz
***************************************


================================================================================

cite the ECPs for Au [Def2-ECP] as follows:
Ce-Yb(ecp-28): M. Dolg, H. Stoll, H.Preuss, J. Chem. Phys., 1989, 90, 1730-1734.
Y-Cd(ecp-28), Hf-Hg(ecp-46): D. Andrae,U. Haeussermann, M. Dolg, H. Stoll, H. Preuss, Theor. Chim. Acta, 1990, 77, 123-141.
In-Sb(ecp-28), Tl-Bi(ecp-46): B. Metz, H. Stoll, M. Dolg, J. Chem. Phys., 2000, 113, 2563-2569.
Te-Xe(ecp-28), Po-Rn(ecp-46): K. A. Peterson, D. Figgen, E. Goll, H. Stoll, M. Dolg, J. Chem. Phys., 2003, 119, 11113-11123.
Rb(ecp-28), Cs(ecp-46): T. Leininger, A. Nicklass, W. Kuechle, H. Stoll, M. Dolg, A. Bergner, Chem. Phys. Lett., 1996, 255, 274-280.
Sr(ecp-28), Ba(ecp-46): M. Kaupp, P. V. Schleyer, H. Stoll and H. Preuss, J. Chem. Phys., 1991, 94, 1360-1366.
La(ecp-46): M. Dolg, H. Stoll, A. Savin, H. Preuss, Theor. Chim. Acta, 1989, 75, 173-194.
Lu(ecp-28): X. Cao, M. Dolg, J. Chem. Phys., 2001, 115, 7348-7355.

ECP parameters for Au [Def2-ECP] have been obtained from:
TURBOMOLE (7.0.2)

----- Orbital basis set information -----
Your calculation utilizes the basis: def2-TZVP
   F. Weigend and R. Ahlrichs, Phys. Chem. Chem. Phys. 7, 3297 (2005).

----- AuxJ basis set information -----
Your calculation utilizes the auxiliary basis: def2/J
   F. Weigend, Phys. Chem. Chem. Phys. 8, 1057 (2006).

================================================================================
                                        WARNINGS
                       Please study these warnings very carefully!
================================================================================


INFO   : the flag for use of the SHARK integral package has been found!

================================================================================
                                       INPUT FILE
================================================================================
NAME = pbeSP.inp
|  1> !PBE def2-TZVP VERYSLOWCONV
|  2> 
|  3> %scf
|  4>   AutoTRAHIter 200
|  5>   maxiter 400
|  6> end
|  7> 
|  8> 
|  9> %pal nprocs 6 end 
| 10> 
| 11> *xyzfile 0 6 pbe.xyz
| 12> 
| 13> $new_job
| 14> 
| 15> !PBE def2-TZVP VERYSLOWCONV
| 16> 
| 17> %scf
| 18>   AutoTRAHIter 200
| 19>   maxiter 400
| 20> end
| 21>  
| 22> 
| 23> %pal nprocs 6 end 
| 24> 
| 25> *xyzfile 0 4 pbe.xyz
| 26> 
| 27> 
| 28> 
| 29> 
| 30> 
| 31>                          ****END OF INPUT****
================================================================================


                 $$$$$$$$$$$$$$$$$$$$$$$$$$$$$$$$$$$$$$$$$$$$$$ 
                 $ THERE ARE  2 JOBS TO BE PROCESSED THIS RUN $
                 $$$$$$$$$$$$$$$$$$$$$$$$$$$$$$$$$$$$$$$$$$$$$$ 




                 $$$$$$$$$$$$$$$$  JOB NUMBER  1 $$$$$$$$$$$$$$


                       ****************************
                       * Single Point Calculation *
                       ****************************

---------------------------------
CARTESIAN COORDINATES (ANGSTROEM)
---------------------------------
  Au     5.776039    7.440422    5.889958
  Au     8.439488    7.838301    5.213179
  Au     9.839849    9.859324    6.593181
  Au     7.043765    9.941455    6.543059
  Au    10.388895    6.920572    7.033627
  Au     7.808423    5.843279    7.148165
  Au     5.464789    6.243692    8.440093
  Au     3.364656    7.543327    9.597908
  Au     7.877815    6.250697    9.864126
  Au     4.925662    9.115078    8.010264
  Au     7.100527   10.360394    9.258753
  Au     9.943071   10.189643    9.303970
  Au     5.840642    8.149843   10.612756
  Au    10.463670    7.431987    9.716797
  Au     8.431099    8.725643   11.188691
  Fe     8.378078    8.270623    8.191806

----------------------------
CARTESIAN COORDINATES (A.U.)
----------------------------
  NO LB      ZA    FRAG     MASS         X           Y           Z
   0 Au   19.0000*   0   196.966   10.915132   14.060360   11.130408
   1 Au   19.0000*   0   196.966   15.948321   14.812242    9.851480
   2 Au   19.0000*   0   196.966   18.594620   18.631421   12.459307
   3 Au   19.0000*   0   196.966   13.310786   18.786627   12.364589
   4 Au   19.0000*   0   196.966   19.632165   13.077987   13.291629
   5 Au   19.0000*   0   196.966   14.755780   11.042197   13.508074
   6 Au   19.0000*   0   196.966   10.326955   11.798869   15.949464
   7 Au   19.0000*   0   196.966    6.358278   14.254823   18.137417
   8 Au   19.0000*   0   196.966   14.886913   11.812105   18.640497
   9 Au   19.0000*   0   196.966    9.308152   17.225001   15.137204
  10 Au   19.0000*   0   196.966   13.418052   19.578307   17.496508
  11 Au   19.0000*   0   196.966   18.789680   19.255635   17.581956
  12 Au   19.0000*   0   196.966   11.037214   15.400972   20.055203
  13 Au   19.0000*   0   196.966   19.773471   14.044419   18.362086
  14 Au   19.0000*   0   196.966   15.932468   16.489075   21.143562
  15 Fe   26.0000    0    55.850   15.832273   15.629213   15.480269
* core charge reduced due to ECP

--------------------------------
INTERNAL COORDINATES (ANGSTROEM)
--------------------------------
 Au     0   0   0     0.000000000000     0.00000000     0.00000000
 Au     1   0   0     2.776742569249     0.00000000     0.00000000
 Au     2   1   0     2.819565957589   117.37490522     0.00000000
 Au     3   2   1     2.797739544232    61.04707265   339.42551258
 Au     2   1   3     2.820716806956   117.32164433    74.19642520
 Au     5   2   1     2.798663278782    60.95007769    20.67014096
 Au     6   5   2     2.705924516777   139.56714103   266.86377967
 Au     7   6   5     2.727662769360   160.05493411    39.12240900
 Au     6   5   2     2.747226314398    87.71239431   227.70105638
 Au     4   3   2     2.705910121909   139.78497376    92.77742302
 Au     4   3   2     2.748404857611    88.05913790   132.13850684
 Au     3   2   1     2.732790632909   126.22066566    50.06014736
 Au     8   7   6     2.743772132281    64.37557554   302.60813549
 Au     5   2   1     2.732496943416   126.28156994   309.74068882
 Au    13   8   7     2.715458358733   170.46443318    38.47206650
 Fe     9   6   5     2.669648542547    59.84448377    53.84531935

---------------------------
INTERNAL COORDINATES (A.U.)
---------------------------
 Au     0   0   0     0.000000000000     0.00000000     0.00000000
 Au     1   0   0     5.247283000281     0.00000000     0.00000000
 Au     2   1   0     5.328207476372   117.37490522     0.00000000
 Au     3   2   1     5.286961532640    61.04707265   339.42551258
 Au     2   1   3     5.330382266495   117.32164433    74.19642520
 Au     5   2   1     5.288707137960    60.95007769    20.67014096
 Au     6   5   2     5.113456275772   139.56714103   266.86377967
 Au     7   6   5     5.154535619783   160.05493411    39.12240900
 Au     6   5   2     5.191505362113    87.71239431   227.70105638
 Au     4   3   2     5.113429073413   139.78497376    92.77742302
 Au     4   3   2     5.193732486023    88.05913790   132.13850684
 Au     3   2   1     5.164225877544   126.22066566    50.06014736
 Au     8   7   6     5.184977903895    64.37557554   302.60813549
 Au     5   2   1     5.163670884833   126.28156994   309.74068882
 Au    13   8   7     5.131472626073   170.46443318    38.47206650
 Fe     9   6   5     5.044904619237    59.84448377    53.84531935

---------------------
BASIS SET INFORMATION
---------------------
There are 2 groups of distinct atoms

 Group   1 Type Au  : 8s7p6d1f contracted to 6s4p3d1f pattern {311111/4111/411/1}
 Group   2 Type Fe  : 17s11p7d1f contracted to 6s4p4d1f pattern {842111/6311/4111/1}

Atom   0Au   basis set group =>   1
Atom   1Au   basis set group =>   1
Atom   2Au   basis set group =>   1
Atom   3Au   basis set group =>   1
Atom   4Au   basis set group =>   1
Atom   5Au   basis set group =>   1
Atom   6Au   basis set group =>   1
Atom   7Au   basis set group =>   1
Atom   8Au   basis set group =>   1
Atom   9Au   basis set group =>   1
Atom  10Au   basis set group =>   1
Atom  11Au   basis set group =>   1
Atom  12Au   basis set group =>   1
Atom  13Au   basis set group =>   1
Atom  14Au   basis set group =>   1
Atom  15Fe   basis set group =>   2
---------------------------------
AUXILIARY/J BASIS SET INFORMATION
---------------------------------
There are 2 groups of distinct atoms

 Group   1 Type Au  : 11s5p5d3f3g contracted to 8s5p5d2f3g pattern {41111111/11111/11111/21/111}
 Group   2 Type Fe  : 19s5p5d3f3g contracted to 8s5p5d2f3g pattern {121111111/11111/11111/21/111}

Atom   0Au   basis set group =>   1
Atom   1Au   basis set group =>   1
Atom   2Au   basis set group =>   1
Atom   3Au   basis set group =>   1
Atom   4Au   basis set group =>   1
Atom   5Au   basis set group =>   1
Atom   6Au   basis set group =>   1
Atom   7Au   basis set group =>   1
Atom   8Au   basis set group =>   1
Atom   9Au   basis set group =>   1
Atom  10Au   basis set group =>   1
Atom  11Au   basis set group =>   1
Atom  12Au   basis set group =>   1
Atom  13Au   basis set group =>   1
Atom  14Au   basis set group =>   1
Atom  15Fe   basis set group =>   2
-------------------------
ECP PARAMETER INFORMATION
-------------------------

 Group 1, Type Au ECP Def2-ECP (replacing 60 core electrons, lmax=3)

Atom   0Au   ECP group =>   1
Atom   1Au   ECP group =>   1
Atom   2Au   ECP group =>   1
Atom   3Au   ECP group =>   1
Atom   4Au   ECP group =>   1
Atom   5Au   ECP group =>   1
Atom   6Au   ECP group =>   1
Atom   7Au   ECP group =>   1
Atom   8Au   ECP group =>   1
Atom   9Au   ECP group =>   1
Atom  10Au   ECP group =>   1
Atom  11Au   ECP group =>   1
Atom  12Au   ECP group =>   1
Atom  13Au   ECP group =>   1
Atom  14Au   ECP group =>   1



           ************************************************************
           *        Program running with 6 parallel MPI-processes     *
           *              working on a common directory               *
           ************************************************************
------------------------------------------------------------------------------
                           ORCA GTO INTEGRAL CALCULATION
                           -- RI-GTO INTEGRALS CHOSEN --
------------------------------------------------------------------------------
------------------------------------------------------------------------------
                   ___                                                        
                  /   \      - P O W E R E D   B Y -                         
                 /     \                                                     
                 |  |  |   _    _      __       _____    __    __             
                 |  |  |  | |  | |    /  \     |  _  \  |  |  /  |          
                  \  \/   | |  | |   /    \    | | | |  |  | /  /          
                 / \  \   | |__| |  /  /\  \   | |_| |  |  |/  /          
                |  |  |   |  __  | /  /__\  \  |    /   |      \           
                |  |  |   | |  | | |   __   |  |    \   |  |\   \          
                \     /   | |  | | |  |  |  |  | |\  \  |  | \   \       
                 \___/    |_|  |_| |__|  |__|  |_| \__\ |__|  \__/        
                                                                              
                      - O R C A' S   B I G   F R I E N D -                    
                                      &                                       
                       - I N T E G R A L  F E E D E R -                       
                                                                              
 v1 FN, 2020, v2 2021                                                         
------------------------------------------------------------------------------


Reading SHARK input file pbeSP.SHARKINP.tmp ... ok
----------------------
SHARK INTEGRAL PACKAGE
----------------------

Number of atoms                             ...     16
Number of basis functions                   ...    645
Number of shells                            ...    225
Maximum angular momentum                    ...      3
Integral batch strategy                     ... SHARK/LIBINT Hybrid
RI-J (if used) integral strategy            ... SPLIT-RIJ (Revised 2003 algorithm where possible)
Printlevel                                  ...      1
Contraction scheme used                     ... SEGMENTED contraction
Coulomb Range Separation                    ... NOT USED
Exchange Range Separation                   ... NOT USED
Finite Nucleus Model                        ... NOT USED
Auxiliary Coulomb fitting basis             ... AVAILABLE
   # of basis functions in Aux-J            ...   1424
   # of shells in Aux-J                     ...    368
   Maximum angular momentum in Aux-J        ...      4
Auxiliary J/K fitting basis                 ... NOT available
Auxiliary Correlation fitting basis         ... NOT available
Auxiliary 'external' fitting basis          ... NOT available
Integral threshold                          ...     1.000000e-10
Primitive cut-off                           ...     1.000000e-11
Primitive pair pre-selection threshold      ...     1.000000e-11

Calculating pre-screening integrals         ... done (  0.1 sec) Dimension = 225
Organizing shell pair data                  ... done (  0.3 sec)
Shell pair information
Total number of shell pairs                 ...     25425
Shell pairs after pre-screening             ...     19929
Total number of primitive shell pairs       ...     67445
Primitive shell pairs kept                  ...     37922
          la=0 lb=0:   3133 shell pairs
          la=1 lb=0:   4537 shell pairs
          la=1 lb=1:   1707 shell pairs
          la=2 lb=0:   3968 shell pairs
          la=2 lb=1:   2787 shell pairs
          la=2 lb=2:   1160 shell pairs
          la=3 lb=0:   1026 shell pairs
          la=3 lb=1:    806 shell pairs
          la=3 lb=2:    697 shell pairs
          la=3 lb=3:    108 shell pairs

Calculating one electron integrals          ... done (  0.0 sec)
Calculating ECP integrals                   ... done (  9.6 sec)
Calculating RI/J V-Matrix + Cholesky decomp.... done (  0.1 sec)
Calculating Nuclear repulsion               ... done (  0.0 sec) ENN=   6372.002413403582 Eh

SHARK setup successfully completed in  10.4 seconds

Maximum memory used throughout the entire GTOINT-calculation: 37.6 MB


           ************************************************************
           *        Program running with 6 parallel MPI-processes     *
           *              working on a common directory               *
           ************************************************************
-------------------------------------------------------------------------------
                                 ORCA SCF
-------------------------------------------------------------------------------

------------
SCF SETTINGS
------------
Hamiltonian:
 Density Functional     Method          .... DFT(GTOs)
 Exchange Functional    Exchange        .... PBE
   PBE kappa parameter   XKappa         ....  0.804000
   PBE mue parameter    XMuePBE         ....  0.219520
 Correlation Functional Correlation     .... PBE
   PBE beta parameter  CBetaPBE         ....  0.066725
 LDA part of GGA corr.  LDAOpt          .... PW91-LDA
 Gradients option       PostSCFGGA      .... off
   Density functional embedding theory  .... OFF
   NL short-range parameter             ....  6.400000
 RI-approximation to the Coulomb term is turned on
   Number of AuxJ basis functions       .... 1424


General Settings:
 Integral files         IntName         .... pbeSP
 Hartree-Fock type      HFTyp           .... UHF
 Total Charge           Charge          ....    0
 Multiplicity           Mult            ....    6
 Number of Electrons    NEL             ....  311
 Basis Dimension        Dim             ....  645
 Nuclear Repulsion      ENuc            ....   6372.0024134036 Eh

Convergence Acceleration:
 DIIS                   CNVDIIS         .... on
   Start iteration      DIISMaxIt       ....     0
   Startup error        DIISStart       ....  0.200000
   # of expansion vecs  DIISMaxEq       ....     5
   Bias factor          DIISBfac        ....   1.050
   Max. coefficient     DIISMaxC        ....  10.000
 Trust-Rad. Augm. Hess. CNVTRAH         .... auto
   Auto Start mean grad. ratio tolernc. ....  1.125000
   Auto Start start iteration           ....   200
   Auto Start num. interpolation iter.  ....    10
   Max. Number of Micro iterations      ....    16
   Max. Number of Macro iterations      .... Maxiter - #DIIS iter
   Number of Davidson start vectors     ....     2
   Converg. threshold I  (grad. norm)   ....   5.000e-05
   Converg. threshold II (energy diff.) ....   1.000e-06
   Grad. Scal. Fac. for Micro threshold ....   0.100
   Minimum threshold for Micro iter.    ....   0.010
   NR start threshold (gradient norm)   ....   0.001
   Initial trust radius                 ....   0.400
   Minimum AH scaling param. (alpha)    ....   1.000
   Maximum AH scaling param. (alpha)    .... 1000.000
   Orbital update algorithm             .... Taylor
   White noise on init. David. guess    .... on
   Maximum white noise                  ....   0.010
   Quad. conv. algorithm                .... NR
 SOSCF                  CNVSOSCF        .... off
 Level Shifting         CNVShift        .... on
   Level shift para.    LevelShift      ....    0.2500
   Turn off err/grad.   ShiftErr        ....    0.0000
 Zerner damping         CNVZerner       .... off
 Static damping         CNVDamp         .... on
   Fraction old density DampFac         ....    0.9200
   Max. Damping (<1)    DampMax         ....    0.9800
   Min. Damping (>=0)   DampMin         ....    0.0000
   Turn off err/grad.   DampErr         ....    0.0030
 Fernandez-Rico         CNVRico         .... off

SCF Procedure:
 Maximum # iterations   MaxIter         ....   400
 SCF integral mode      SCFMode         .... Direct
   Integral package                     .... SHARK and LIBINT hybrid scheme
 Reset frequency        DirectResetFreq ....    20
 Integral Threshold     Thresh          ....  1.000e-10 Eh
 Primitive CutOff       TCut            ....  1.000e-11 Eh

Convergence Tolerance:
 Convergence Check Mode ConvCheckMode   .... Total+1el-Energy
 Convergence forced     ConvForced      .... 0
 Energy Change          TolE            ....  1.000e-06 Eh
 1-El. energy change                    ....  1.000e-03 Eh
 DIIS Error             TolErr          ....  1.000e-06


Diagonalization of the overlap matrix:
Smallest eigenvalue                        ... 4.732e-04
Time for diagonalization                   ...    0.046 sec
Threshold for overlap eigenvalues          ... 1.000e-08
Number of eigenvalues below threshold      ... 0
Time for construction of square roots      ...    0.036 sec
Total time needed                          ...    0.083 sec

Time for model grid setup =    0.447 sec

------------------------------
INITIAL GUESS: MODEL POTENTIAL
------------------------------
Loading Hartree-Fock densities                     ... done
  calling /media/Programs/ORCA501/orca pbeSP_atom79.inp > pbeSP_atom79.out in order to generate an atomic fitting density for atom 0 (Au with ECP) on-the-fly... 
    atom 0 (Au), assumed electronic state with S=2: 1s2 2s2 2p6 3s2 3p6 4s2 3d10 4p6 5s2 4d10 5p6 6s1 4f14 5d10           ... done
Calculating cut-offs                               ... done
Initializing the effective Hamiltonian             ... done
Setting up the integral package (SHARK)            ... done
Starting the Coulomb interaction                   ... done (   0.4 sec)
Reading the grid                                   ... done
Mapping shells                                     ... done
Starting the XC term evaluation                    ... done (   0.5 sec)
  promolecular density results
     # of electrons  =   1211.014703196
     EX              =  -5541.464338716
     EC              =    -73.835827481
     EX+EC           =  -5615.300166197
Transforming the Hamiltonian                       ... done (   0.0 sec)
Diagonalizing the Hamiltonian                      ... done (   0.1 sec)
Back transforming the eigenvectors                 ... done (   0.0 sec)
Now organizing SCF variables                       ... done
                      ------------------
                      INITIAL GUESS DONE (   2.0 sec)
                      ------------------
-------------------
DFT GRID GENERATION
-------------------

General Integration Accuracy     IntAcc      ... 4.388
Radial Grid Type                 RadialGrid  ... OptM3 with GC (2021)
Angular Grid (max. ang.)         AngularGrid ... 4 (Lebedev-302)
Angular grid pruning method      GridPruning ... 4 (adaptive)
Weight generation scheme         WeightScheme... Becke
Basis function cutoff            BFCut       ... 1.0000e-10
Integration weight cutoff        WCut        ... 1.0000e-14
Angular grids for H and He will be reduced by one unit
Partially contracted basis set               ... off
Rotationally invariant grid construction     ... off

Total number of grid points                  ...   176281
Total number of batches                      ...     2763
Average number of points per batch           ...       63
Average number of grid points per atom       ...    11018
Time for grid setup =    1.431 sec

--------------
SCF ITERATIONS
--------------
ITER       Energy         Delta-E        Max-DP      RMS-DP      [F,P]     Damp
               ***  Starting incremental Fock matrix formation  ***
  0  -3297.2975289029   0.000000000000 0.21553726  0.00080578  0.5562541 0.9200
  1  -3298.6730282988  -1.375499395836 0.14830082  0.00068200  0.3543681 0.9200
                               ***Turning on DIIS***
  2  -3299.3971285156  -0.724100216837 0.08376354  0.00053223  0.2421796 0.9200
  3  -3299.6981589941  -0.301030478510 0.07262836  0.00045871  0.2219621 0.9200
  4  -3299.7806494052  -0.082490411070 0.05017983  0.00037140  0.2035224 0.9200
  5  -3299.8078467484  -0.027197343280 0.03427040  0.00029612  0.1865896 0.9200
  6  -3299.9102188230  -0.102372074513 0.02922144  0.00026696  0.1709914 0.9200
  7  -3299.9945371573  -0.084318334386 0.02986098  0.00024424  0.1570430 0.9200
  8  -3300.0426807043  -0.048143546934 0.03422704  0.00023384  0.1445464 0.9200
  9  -3300.1040720159  -0.061391311574 0.06154961  0.00025320  0.1329061 0.9200
 10  -3300.1567847058  -0.052712689978 0.02655170  0.00019641  0.1221383 0.9200
 11  -3300.1968727588  -0.040088052939 0.02072843  0.00017011  0.1123411 0.9200
 12  -3300.2520124054  -0.055139646662 0.02211858  0.00016871  0.1031575 0.9200
 13  -3300.3019808776  -0.049968472168 0.02350503  0.00015390  0.0946930 0.9200
 14  -3300.3404224250  -0.038441547415 0.01606793  0.00014498  0.0870747 0.9200
 15  -3300.3821261946  -0.041703769543 0.01489425  0.00014387  0.0800235 0.9200
 16  -3300.4218470035  -0.039720808979 0.01937511  0.00013526  0.0735567 0.9200
 17  -3300.4562424362  -0.034395432703 0.02408458  0.00012752  0.0676948 0.9200
 18  -3300.4901215908  -0.033879154557 0.02566115  0.00012356  0.0622175 0.9200
 19  -3300.5211076404  -0.030986049607 0.02485709  0.00011561  0.0571225 0.9200
               *** Restarting incremental Fock matrix formation ***
                                   *** Resetting DIIS ***
 20  -3300.5493637863  -0.028256145920 0.01608924  0.00010943  0.0525114 0.9200
 21  -3300.5769569778  -0.027593191476 0.01490358  0.00010477  0.0482055 0.9200
 22  -3300.6029286672  -0.025971689378 0.01861913  0.00009867  0.0442808 0.9200
 23  -3300.6266384414  -0.023709774169 0.02017005  0.00009326  0.0407019 0.9200
 24  -3300.6483316892  -0.021693247865 0.01938885  0.00008845  0.0374267 0.9200
 25  -3300.6686696369  -0.020337947695 0.01733384  0.00008388  0.0344273 0.9200
 26  -3300.6877228631  -0.019053226204 0.01616244  0.00007901  0.0316607 0.9200
 27  -3300.7052944204  -0.017571557308 0.01550674  0.00007381  0.0291128 0.9200
 28  -3300.7214017359  -0.016107315444 0.01471596  0.00006892  0.0267685 0.9200
 29  -3300.7362712124  -0.014869476543 0.01339255  0.00006471  0.0246176 0.9200
 30  -3300.7501841826  -0.013912970156 0.01230451  0.00006082  0.0226448 0.9200
 31  -3300.7630708337  -0.012886651105 0.01157493  0.00005655  0.0208284 0.9200
 32  -3300.7749129390  -0.011842105375 0.01076665  0.00005243  0.0191522 0.9200
 33  -3300.7858017776  -0.010888838547 0.00990829  0.00004878  0.0176088 0.9200
 34  -3300.7959090226  -0.010107245058 0.00905357  0.00004571  0.0161944 0.9200
 35  -3300.8052944351  -0.009385412477 0.00858043  0.00004258  0.0148969 0.9200
 36  -3300.8139381540  -0.008643718898 0.00800800  0.00003939  0.0137020 0.9200
 37  -3300.8218866247  -0.007948470695 0.00736325  0.00003646  0.0125989 0.9200
 38  -3300.8292170089  -0.007330384143 0.00666355  0.00003392  0.0115844 0.9200
 39  -3300.8360140798  -0.006797070903 0.00571532  0.00003155  0.0106544 0.9200
               *** Restarting incremental Fock matrix formation ***
                                   *** Resetting DIIS ***
 40  -3300.8422909544  -0.006276874652 0.00430735  0.00002906  0.0098008 0.9200
 41  -3300.8480746053  -0.005783650852 0.00427843  0.00002672  0.0090032 0.9200
 42  -3300.8534013905  -0.005326785249 0.00457862  0.00002468  0.0082706 0.9200
 43  -3300.8583066922  -0.004905301688 0.00460224  0.00002294  0.0075997 0.9200
 44  -3300.8628296644  -0.004522972163 0.00434535  0.00002143  0.0069883 0.9200
 45  -3300.8670027142  -0.004173049832 0.00390439  0.00002001  0.0064287 0.9200
 46  -3300.8708480453  -0.003845331082 0.00371973  0.00001855  0.0059137 0.9200
 47  -3300.8743902750  -0.003542229730 0.00350071  0.00001717  0.0054384 0.9200
 48  -3300.8776508538  -0.003260578748 0.00316144  0.00001587  0.0049999 0.9200
 49  -3300.8806591413  -0.003008287569 0.00285797  0.00001479  0.0045981 0.9200
 50  -3300.8834324067  -0.002773265370 0.00272796  0.00001375  0.0042296 0.9200
 51  -3300.8859859441  -0.002553537374 0.00256694  0.00001271  0.0038906 0.9200
 52  -3300.8883373178  -0.002351373733 0.00236262  0.00001174  0.0035777 0.9200
 53  -3300.8905023707  -0.002165052924 0.00209346  0.00001085  0.0032895 0.9200
 54  -3300.8924987888  -0.001996418101 0.00193716  0.00001012  0.0030253 0.9200
 55  -3300.8943372137  -0.001838424826 0.02371305  0.00011731  0.0027830 0.0000
 56  -3300.9156088960  -0.021271682356 0.00220285  0.00000873  0.0005917 0.0000
 57  -3300.9155904081   0.000018487866 0.00049023  0.00000290  0.0018169 0.0000
 58  -3300.9156056832  -0.000015275063 0.00020331  0.00000191  0.0009135 0.0000
 59  -3300.9156116635  -0.000005980263 0.00157166  0.00000380  0.0005542 0.0000
               *** Restarting incremental Fock matrix formation ***
                                   *** Resetting DIIS ***
 60  -3300.9156117481  -0.000000084651 0.00056554  0.00000461  0.0002867 0.0000
 61  -3300.9156014787   0.000010269461 0.00048746  0.00000213  0.0013980 0.0000
 62  -3300.9156082728  -0.000006794154 0.00015360  0.00000123  0.0008665 0.0000
 63  -3300.9156106359  -0.000002363069 0.00008262  0.00000094  0.0007041 0.0000
 64  -3300.9156119838  -0.000001347881 0.00015467  0.00000100  0.0006194 0.0000
 65  -3300.9156134393  -0.000001455486 0.00067107  0.00000238  0.0004836 0.0000
 66  -3300.9156153373  -0.000001898035 0.00018270  0.00000095  0.0000344 0.0000
 67  -3300.9156156684  -0.000000331089 0.00012542  0.00000075  0.0000274 0.0000
 68  -3300.9156157217  -0.000000053295 0.00014907  0.00000068  0.0000472 0.0000
 69  -3300.9156160192  -0.000000297513 0.00008472  0.00000067  0.0000316 0.0000
 70  -3300.9156162255  -0.000000206343 0.00005288  0.00000062  0.0000195 0.0000
 71  -3300.9156163694  -0.000000143842 0.00005073  0.00000047  0.0000279 0.0000
 72  -3300.9156164259  -0.000000056538 0.00006889  0.00000064  0.0000180 0.0000
 73  -3300.9156165245  -0.000000098633 0.00005653  0.00000058  0.0000189 0.0000
 74  -3300.9156167891  -0.000000264537 0.00003700  0.00000041  0.0000133 0.0000
                 **** Energy Check signals convergence ****

               *****************************************************
               *                     SUCCESS                       *
               *           SCF CONVERGED AFTER  75 CYCLES          *
               *****************************************************


----------------
TOTAL SCF ENERGY
----------------

Total Energy       :        -3300.91561682 Eh          -89822.48042 eV

Components:
Nuclear Repulsion  :         6372.00241340 Eh          173391.00070 eV
Electronic Energy  :        -9672.91803022 Eh         -263213.48112 eV
One Electron Energy:       -18056.15795073 Eh         -491333.03673 eV
Two Electron Energy:         8383.23992051 Eh          228119.55561 eV

Virial components:
Potential Energy   :        -5249.26134936 Eh         -142839.66314 eV
Kinetic Energy     :         1948.34573254 Eh           53017.18272 eV
Virial Ratio       :            2.69421451


DFT components:
N(Alpha)           :      157.999936288051 electrons
N(Beta)            :      152.999936232204 electrons
N(Total)           :      310.999872520255 electrons
E(X)               :     -235.067908103490 Eh       
E(C)               :      -13.606757161896 Eh       
E(XC)              :     -248.674665265386 Eh       
DFET-embed. en.    :        0.000000000000 Eh       

---------------
SCF CONVERGENCE
---------------

  Last Energy change         ...   -3.0632e-08  Tolerance :   1.0000e-06
  Last MAX-Density change    ...    4.3325e-05  Tolerance :   1.0000e-05
  Last RMS-Density change    ...    4.7747e-07  Tolerance :   1.0000e-06
  Last DIIS Error            ...    1.9215e-05  Tolerance :   1.0000e-06

             **** THE GBW FILE WAS UPDATED (pbeSP.gbw) ****
             **** DENSITY pbeSP.scfp WAS UPDATED ****
             **** ENERGY FILE WAS UPDATED (pbeSP.en.tmp) ****
----------------------
UHF SPIN CONTAMINATION
----------------------

Warning: in a DFT calculation there is little theoretical justification to 
         calculate <S**2> as in Hartree-Fock theory. We will do it anyways
         but you should keep in mind that the values have only limited relevance

Expectation value of <S**2>     :     8.770135
Ideal value S*(S+1) for S=2.5   :     8.750000
Deviation                       :     0.020135

             **** THE GBW FILE WAS UPDATED (pbeSP.gbw) ****
             **** DENSITY pbeSP.scfp WAS UPDATED ****
----------------
ORBITAL ENERGIES
----------------
                 SPIN UP ORBITALS
  NO   OCC          E(Eh)            E(eV) 
   0   1.0000    -254.789041     -6933.1623 
   1   1.0000     -29.631910      -806.3253 
   2   1.0000     -25.571714      -695.8417 
   3   1.0000     -25.563693      -695.6235 
   4   1.0000     -25.563656      -695.6225 
   5   1.0000      -4.038305      -109.8879 
   6   1.0000      -4.038289      -109.8874 
   7   1.0000      -4.033629      -109.7606 
   8   1.0000      -4.033542      -109.7583 
   9   1.0000      -4.030468      -109.6746 
  10   1.0000      -4.030412      -109.6731 
  11   1.0000      -4.027726      -109.6000 
  12   1.0000      -4.027615      -109.5970 
  13   1.0000      -4.027576      -109.5959 
  14   1.0000      -4.026212      -109.5588 
  15   1.0000      -4.025362      -109.5357 
  16   1.0000      -4.025129      -109.5293 
  17   1.0000      -4.025060      -109.5275 
  18   1.0000      -4.024958      -109.5247 
  19   1.0000      -4.016405      -109.2919 
  20   1.0000      -3.412565       -92.8606 
  21   1.0000      -2.254196       -61.3398 
  22   1.0000      -2.254105       -61.3373 
  23   1.0000      -2.252586       -61.2960 
  24   1.0000      -2.252506       -61.2938 
  25   1.0000      -2.249065       -61.2002 
  26   1.0000      -2.248920       -61.1962 
  27   1.0000      -2.248652       -61.1889 
  28   1.0000      -2.248032       -61.1721 
  29   1.0000      -2.247968       -61.1703 
  30   1.0000      -2.247614       -61.1607 
  31   1.0000      -2.246296       -61.1248 
  32   1.0000      -2.246105       -61.1196 
  33   1.0000      -2.245802       -61.1114 
  34   1.0000      -2.244609       -61.0789 
  35   1.0000      -2.244098       -61.0650 
  36   1.0000      -2.243784       -61.0565 
  37   1.0000      -2.243750       -61.0555 
  38   1.0000      -2.242734       -61.0279 
  39   1.0000      -2.242609       -61.0245 
  40   1.0000      -2.242356       -61.0176 
  41   1.0000      -2.241972       -61.0071 
  42   1.0000      -2.241701       -60.9998 
  43   1.0000      -2.241185       -60.9858 
  44   1.0000      -2.240634       -60.9707 
  45   1.0000      -2.239959       -60.9524 
  46   1.0000      -2.239700       -60.9453 
  47   1.0000      -2.239478       -60.9393 
  48   1.0000      -2.239012       -60.9266 
  49   1.0000      -2.238647       -60.9167 
  50   1.0000      -2.238377       -60.9093 
  51   1.0000      -2.238112       -60.9021 
  52   1.0000      -2.237689       -60.8906 
  53   1.0000      -2.237549       -60.8868 
  54   1.0000      -2.237059       -60.8735 
  55   1.0000      -2.236608       -60.8612 
  56   1.0000      -2.236392       -60.8553 
  57   1.0000      -2.236227       -60.8508 
  58   1.0000      -2.235819       -60.8397 
  59   1.0000      -2.235764       -60.8382 
  60   1.0000      -2.235759       -60.8381 
  61   1.0000      -2.235566       -60.8329 
  62   1.0000      -2.235217       -60.8234 
  63   1.0000      -2.233748       -60.7834 
  64   1.0000      -2.231156       -60.7128 
  65   1.0000      -2.229066       -60.6560 
  66   1.0000      -2.227953       -60.6257 
  67   1.0000      -2.220188       -60.4144 
  68   1.0000      -2.219869       -60.4057 
  69   1.0000      -0.438024       -11.9192 
  70   1.0000      -0.401266       -10.9190 
  71   1.0000      -0.390647       -10.6300 
  72   1.0000      -0.389146       -10.5892 
  73   1.0000      -0.383498       -10.4355 
  74   1.0000      -0.377305       -10.2670 
  75   1.0000      -0.376128       -10.2350 
  76   1.0000      -0.374969       -10.2034 
  77   1.0000      -0.373215       -10.1557 
  78   1.0000      -0.372091       -10.1251 
  79   1.0000      -0.368508       -10.0276 
  80   1.0000      -0.363370        -9.8878 
  81   1.0000      -0.361487        -9.8366 
  82   1.0000      -0.357078        -9.7166 
  83   1.0000      -0.353874        -9.6294 
  84   1.0000      -0.353762        -9.6264 
  85   1.0000      -0.350803        -9.5458 
  86   1.0000      -0.347941        -9.4680 
  87   1.0000      -0.347853        -9.4656 
  88   1.0000      -0.346760        -9.4358 
  89   1.0000      -0.346403        -9.4261 
  90   1.0000      -0.339899        -9.2491 
  91   1.0000      -0.339272        -9.2321 
  92   1.0000      -0.337561        -9.1855 
  93   1.0000      -0.335903        -9.1404 
  94   1.0000      -0.334653        -9.1064 
  95   1.0000      -0.330295        -8.9878 
  96   1.0000      -0.329859        -8.9759 
  97   1.0000      -0.328480        -8.9384 
  98   1.0000      -0.325874        -8.8675 
  99   1.0000      -0.323034        -8.7902 
 100   1.0000      -0.320452        -8.7199 
 101   1.0000      -0.319189        -8.6856 
 102   1.0000      -0.316520        -8.6129 
 103   1.0000      -0.314116        -8.5475 
 104   1.0000      -0.311531        -8.4772 
 105   1.0000      -0.310878        -8.4594 
 106   1.0000      -0.305939        -8.3250 
 107   1.0000      -0.305675        -8.3178 
 108   1.0000      -0.301832        -8.2133 
 109   1.0000      -0.300936        -8.1889 
 110   1.0000      -0.295637        -8.0447 
 111   1.0000      -0.294030        -8.0010 
 112   1.0000      -0.293638        -7.9903 
 113   1.0000      -0.293471        -7.9858 
 114   1.0000      -0.290977        -7.9179 
 115   1.0000      -0.289689        -7.8828 
 116   1.0000      -0.286186        -7.7875 
 117   1.0000      -0.282771        -7.6946 
 118   1.0000      -0.280713        -7.6386 
 119   1.0000      -0.278926        -7.5900 
 120   1.0000      -0.277651        -7.5553 
 121   1.0000      -0.277152        -7.5417 
 122   1.0000      -0.275191        -7.4883 
 123   1.0000      -0.274868        -7.4795 
 124   1.0000      -0.273070        -7.4306 
 125   1.0000      -0.271115        -7.3774 
 126   1.0000      -0.270397        -7.3579 
 127   1.0000      -0.269488        -7.3332 
 128   1.0000      -0.267868        -7.2891 
 129   1.0000      -0.265229        -7.2172 
 130   1.0000      -0.264794        -7.2054 
 131   1.0000      -0.263755        -7.1771 
 132   1.0000      -0.263496        -7.1701 
 133   1.0000      -0.262469        -7.1421 
 134   1.0000      -0.261522        -7.1164 
 135   1.0000      -0.261174        -7.1069 
 136   1.0000      -0.259726        -7.0675 
 137   1.0000      -0.257686        -7.0120 
 138   1.0000      -0.257085        -6.9956 
 139   1.0000      -0.256733        -6.9861 
 140   1.0000      -0.256300        -6.9743 
 141   1.0000      -0.253165        -6.8890 
 142   1.0000      -0.252379        -6.8676 
 143   1.0000      -0.251116        -6.8332 
 144   1.0000      -0.250913        -6.8277 
 145   1.0000      -0.249544        -6.7904 
 146   1.0000      -0.247286        -6.7290 
 147   1.0000      -0.245908        -6.6915 
 148   1.0000      -0.243976        -6.6389 
 149   1.0000      -0.243057        -6.6139 
 150   1.0000      -0.241073        -6.5599 
 151   1.0000      -0.239999        -6.5307 
 152   1.0000      -0.230317        -6.2672 
 153   1.0000      -0.230128        -6.2621 
 154   1.0000      -0.211793        -5.7632 
 155   1.0000      -0.206372        -5.6157 
 156   1.0000      -0.202641        -5.5141 
 157   1.0000      -0.192202        -5.2301 
 158   0.0000      -0.155364        -4.2277 
 159   0.0000      -0.136950        -3.7266 
 160   0.0000      -0.131904        -3.5893 
 161   0.0000      -0.131312        -3.5732 
 162   0.0000      -0.119968        -3.2645 
 163   0.0000      -0.118420        -3.2224 
 164   0.0000      -0.115209        -3.1350 
 165   0.0000      -0.079451        -2.1620 
 166   0.0000      -0.071286        -1.9398 
 167   0.0000      -0.070265        -1.9120 
 168   0.0000      -0.065569        -1.7842 
 169   0.0000      -0.054327        -1.4783 
 170   0.0000      -0.042871        -1.1666 
 171   0.0000      -0.037968        -1.0332 
 172   0.0000      -0.027898        -0.7592 
 173   0.0000      -0.022516        -0.6127 
 174   0.0000      -0.020914        -0.5691 
 175   0.0000      -0.013377        -0.3640 
 176   0.0000      -0.003417        -0.0930 
 177   0.0000       0.011817         0.3215 
 178   0.0000       0.013573         0.3693 
 179   0.0000       0.016705         0.4546 
 180   0.0000       0.025180         0.6852 
 181   0.0000       0.036162         0.9840 
 182   0.0000       0.038467         1.0467 
 183   0.0000       0.038588         1.0500 
 184   0.0000       0.045834         1.2472 
 185   0.0000       0.048740         1.3263 
 186   0.0000       0.051601         1.4041 
 187   0.0000       0.059296         1.6135 
 188   0.0000       0.061334         1.6690 
 189   0.0000       0.066627         1.8130 
 190   0.0000       0.068210         1.8561 
 191   0.0000       0.072632         1.9764 
 192   0.0000       0.073308         1.9948 
 193   0.0000       0.073908         2.0111 
 194   0.0000       0.081184         2.2091 
 195   0.0000       0.086091         2.3427 
 196   0.0000       0.087947         2.3932 
 197   0.0000       0.092270         2.5108 
 198   0.0000       0.097886         2.6636 
 199   0.0000       0.100591         2.7372 
 200   0.0000       0.106518         2.8985 
 201   0.0000       0.116680         3.1750 
 202   0.0000       0.122024         3.3204 
 203   0.0000       0.129681         3.5288 
 204   0.0000       0.131137         3.5684 
 205   0.0000       0.132071         3.5938 
 206   0.0000       0.137897         3.7524 
 207   0.0000       0.151652         4.1267 
 208   0.0000       0.152586         4.1521 
 209   0.0000       0.156428         4.2566 
 210   0.0000       0.157773         4.2932 
 211   0.0000       0.160703         4.3729 
 212   0.0000       0.163385         4.4459 
 213   0.0000       0.167018         4.5448 
 214   0.0000       0.171123         4.6565 
 215   0.0000       0.172407         4.6914 
 216   0.0000       0.173450         4.7198 
 217   0.0000       0.180497         4.9116 
 218   0.0000       0.185094         5.0367 
 219   0.0000       0.191314         5.2059 
 220   0.0000       0.200620         5.4592 
 221   0.0000       0.207325         5.6416 
 222   0.0000       0.208099         5.6627 
 223   0.0000       0.216461         5.8902 
 224   0.0000       0.220176         5.9913 
 225   0.0000       0.224320         6.1040 
 226   0.0000       0.228060         6.2058 
 227   0.0000       0.231017         6.2863 
 228   0.0000       0.233588         6.3563 
 229   0.0000       0.236932         6.4472 
 230   0.0000       0.237693         6.4680 
 231   0.0000       0.251138         6.8338 
 232   0.0000       0.252420         6.8687 
 233   0.0000       0.260777         7.0961 
 234   0.0000       0.262890         7.1536 
 235   0.0000       0.264818         7.2061 
 236   0.0000       0.267731         7.2853 
 237   0.0000       0.269190         7.3250 
 238   0.0000       0.273195         7.4340 
 239   0.0000       0.278973         7.5912 
 240   0.0000       0.284093         7.7306 
 241   0.0000       0.289994         7.8911 
 242   0.0000       0.290459         7.9038 
 243   0.0000       0.295515         8.0414 
 244   0.0000       0.296652         8.0723 
 245   0.0000       0.300563         8.1787 
 246   0.0000       0.308692         8.3999 
 247   0.0000       0.314574         8.5600 
 248   0.0000       0.314963         8.5706 
 249   0.0000       0.322212         8.7678 
 250   0.0000       0.339862         9.2481 
 251   0.0000       0.340910         9.2766 
 252   0.0000       0.341619         9.2959 
 253   0.0000       0.343555         9.3486 
 254   0.0000       0.349869         9.5204 
 255   0.0000       0.354038         9.6339 
 256   0.0000       0.354782         9.6541 
 257   0.0000       0.355032         9.6609 
 258   0.0000       0.356724         9.7070 
 259   0.0000       0.367923        10.0117 
 260   0.0000       0.368311        10.0222 
 261   0.0000       0.368607        10.0303 
 262   0.0000       0.379437        10.3250 
 263   0.0000       0.381930        10.3928 
 264   0.0000       0.391313        10.6482 
 265   0.0000       0.396282        10.7834 
 266   0.0000       0.399242        10.8639 
 267   0.0000       0.402913        10.9638 
 268   0.0000       0.407343        11.0844 
 269   0.0000       0.412157        11.2154 
 270   0.0000       0.413036        11.2393 
 271   0.0000       0.416792        11.3415 
 272   0.0000       0.420073        11.4308 
 273   0.0000       0.430287        11.7087 
 274   0.0000       0.431067        11.7299 
 275   0.0000       0.435248        11.8437 
 276   0.0000       0.440413        11.9842 
 277   0.0000       0.443974        12.0811 
 278   0.0000       0.447084        12.1658 
 279   0.0000       0.448974        12.2172 
 280   0.0000       0.453592        12.3429 
 281   0.0000       0.462824        12.5941 
 282   0.0000       0.469874        12.7859 
 283   0.0000       0.472137        12.8475 
 284   0.0000       0.473542        12.8857 
 285   0.0000       0.474322        12.9070 
 286   0.0000       0.476707        12.9719 
 287   0.0000       0.479107        13.0372 
 288   0.0000       0.490440        13.3456 
 289   0.0000       0.493924        13.4403 
 290   0.0000       0.494631        13.4596 
 291   0.0000       0.499212        13.5842 
 292   0.0000       0.500883        13.6297 
 293   0.0000       0.505771        13.7627 
 294   0.0000       0.510760        13.8985 
 295   0.0000       0.514283        13.9943 
 296   0.0000       0.515070        14.0158 
 297   0.0000       0.521404        14.1881 
 298   0.0000       0.527886        14.3645 
 299   0.0000       0.528164        14.3721 
 300   0.0000       0.537431        14.6242 
 301   0.0000       0.542204        14.7541 
 302   0.0000       0.547900        14.9091 
 303   0.0000       0.549372        14.9492 
 304   0.0000       0.555540        15.1170 
 305   0.0000       0.558401        15.1949 
 306   0.0000       0.578798        15.7499 
 307   0.0000       0.597910        16.2699 
 308   0.0000       0.627640        17.0790 
 309   0.0000       0.639334        17.3971 
 310   0.0000       0.643564        17.5123 
 311   0.0000       0.649479        17.6732 
 312   0.0000       0.684984        18.6394 
 313   0.0000       0.698230        18.9998 
 314   0.0000       0.701657        19.0931 
 315   0.0000       0.707840        19.2613 
 316   0.0000       0.717711        19.5299 
 317   0.0000       0.720814        19.6143 
 318   0.0000       0.728639        19.8273 
 319   0.0000       0.731455        19.9039 
 320   0.0000       0.734158        19.9774 
 321   0.0000       0.754631        20.5346 
 322   0.0000       0.761397        20.7187 
 323   0.0000       0.766609        20.8605 
 324   0.0000       0.768330        20.9073 
 325   0.0000       0.775141        21.0927 
 326   0.0000       0.775396        21.0996 
 327   0.0000       0.789434        21.4816 
 328   0.0000       0.793825        21.6011 
 329   0.0000       0.799880        21.7658 
 330   0.0000       0.805386        21.9157 
 331   0.0000       0.820708        22.3326 
 332   0.0000       0.823416        22.4063 
 333   0.0000       0.826984        22.5034 
 334   0.0000       0.841781        22.9060 
 335   0.0000       0.845485        23.0068 
 336   0.0000       0.846610        23.0374 
 337   0.0000       0.855294        23.2737 
 338   0.0000       0.867661        23.6103 
 339   0.0000       0.873112        23.7586 
 340   0.0000       0.879213        23.9246 
 341   0.0000       0.897668        24.4268 
 342   0.0000       0.904587        24.6151 
 343   0.0000       0.911332        24.7986 
 344   0.0000       0.931696        25.3528 
 345   0.0000       0.936533        25.4843 
 346   0.0000       0.951685        25.8967 
 347   0.0000       0.954087        25.9620 
 348   0.0000       0.974795        26.5255 
 349   0.0000       0.985526        26.8175 
 350   0.0000       0.987203        26.8632 
 351   0.0000       0.995015        27.0757 
 352   0.0000       1.015867        27.6431 
 353   0.0000       1.043503        28.3952 
 354   0.0000       1.079863        29.3846 
 355   0.0000       1.086260        29.5586 
 356   0.0000       1.137157        30.9436 
 357   0.0000       1.193214        32.4690 
 358   0.0000       1.214021        33.0352 
 359   0.0000       1.220361        33.2077 
 360   0.0000       1.230805        33.4919 
 361   0.0000       1.240020        33.7427 
 362   0.0000       1.244702        33.8701 
 363   0.0000       1.253823        34.1183 
 364   0.0000       1.258394        34.2426 
 365   0.0000       1.275556        34.7096 
 366   0.0000       1.278044        34.7774 
 367   0.0000       1.282597        34.9012 
 368   0.0000       1.292580        35.1729 
 369   0.0000       1.301327        35.4109 
 370   0.0000       1.305550        35.5258 
 371   0.0000       1.316545        35.8250 
 372   0.0000       1.325763        36.0758 
 373   0.0000       1.331572        36.2339 
 374   0.0000       1.340467        36.4760 
 375   0.0000       1.347353        36.6633 
 376   0.0000       1.351000        36.7626 
 377   0.0000       1.355868        36.8950 
 378   0.0000       1.360594        37.0237 
 379   0.0000       1.361251        37.0415 
 380   0.0000       1.362357        37.0716 
 381   0.0000       1.369469        37.2652 
 382   0.0000       1.373005        37.3614 
 383   0.0000       1.379604        37.5409 
 384   0.0000       1.388708        37.7887 
 385   0.0000       1.392232        37.8846 
 386   0.0000       1.394340        37.9419 
 387   0.0000       1.401912        38.1480 
 388   0.0000       1.404126        38.2082 
 389   0.0000       1.410562        38.3833 
 390   0.0000       1.413439        38.4616 
 391   0.0000       1.415435        38.5159 
 392   0.0000       1.418409        38.5969 
 393   0.0000       1.421329        38.6763 
 394   0.0000       1.425801        38.7980 
 395   0.0000       1.428283        38.8656 
 396   0.0000       1.431060        38.9411 
 397   0.0000       1.433982        39.0206 
 398   0.0000       1.438761        39.1507 
 399   0.0000       1.440349        39.1939 
 400   0.0000       1.442798        39.2605 
 401   0.0000       1.446690        39.3664 
 402   0.0000       1.450364        39.4664 
 403   0.0000       1.455198        39.5980 
 404   0.0000       1.457983        39.6737 
 405   0.0000       1.458910        39.6990 
 406   0.0000       1.459983        39.7281 
 407   0.0000       1.468448        39.9585 
 408   0.0000       1.468883        39.9703 
 409   0.0000       1.469596        39.9897 
 410   0.0000       1.470344        40.0101 
 411   0.0000       1.473746        40.1027 
 412   0.0000       1.479098        40.2483 
 413   0.0000       1.479925        40.2708 
 414   0.0000       1.481752        40.3205 
 415   0.0000       1.483788        40.3759 
 416   0.0000       1.485065        40.4107 
 417   0.0000       1.487220        40.4693 
 418   0.0000       1.488752        40.5110 
 419   0.0000       1.491424        40.5837 
 420   0.0000       1.492484        40.6126 
 421   0.0000       1.493616        40.6434 
 422   0.0000       1.495969        40.7074 
 423   0.0000       1.496212        40.7140 
 424   0.0000       1.496688        40.7269 
 425   0.0000       1.497686        40.7541 
 426   0.0000       1.500530        40.8315 
 427   0.0000       1.500881        40.8411 
 428   0.0000       1.502433        40.8833 
 429   0.0000       1.502743        40.8917 
 430   0.0000       1.505926        40.9783 
 431   0.0000       1.506746        41.0007 
 432   0.0000       1.508445        41.0469 
 433   0.0000       1.509343        41.0713 
 434   0.0000       1.511612        41.1331 
 435   0.0000       1.512373        41.1538 
 436   0.0000       1.513836        41.1936 
 437   0.0000       1.515144        41.2292 
 438   0.0000       1.516152        41.2566 
 439   0.0000       1.517159        41.2840 
 440   0.0000       1.518657        41.3248 
 441   0.0000       1.520071        41.3632 
 442   0.0000       1.520732        41.3812 
 443   0.0000       1.521152        41.3927 
 444   0.0000       1.523567        41.4584 
 445   0.0000       1.524168        41.4747 
 446   0.0000       1.525822        41.5197 
 447   0.0000       1.528103        41.5818 
 448   0.0000       1.529131        41.6098 
 449   0.0000       1.530297        41.6415 
 450   0.0000       1.530979        41.6600 
 451   0.0000       1.535629        41.7866 
 452   0.0000       1.538805        41.8730 
 453   0.0000       1.541872        41.9565 
 454   0.0000       1.544688        42.0331 
 455   0.0000       1.545755        42.0621 
 456   0.0000       1.550428        42.1893 
 457   0.0000       1.550653        42.1954 
 458   0.0000       1.552192        42.2373 
 459   0.0000       1.557095        42.3707 
 460   0.0000       1.557984        42.3949 
 461   0.0000       1.562878        42.5281 
 462   0.0000       1.563296        42.5394 
 463   0.0000       1.564630        42.5757 
 464   0.0000       1.566116        42.6162 
 465   0.0000       1.567743        42.6604 
 466   0.0000       1.571187        42.7542 
 467   0.0000       1.572941        42.8019 
 468   0.0000       1.574267        42.8380 
 469   0.0000       1.576081        42.8874 
 470   0.0000       1.577027        42.9131 
 471   0.0000       1.582108        43.0514 
 472   0.0000       1.583218        43.0816 
 473   0.0000       1.586946        43.1830 
 474   0.0000       1.593260        43.3548 
 475   0.0000       1.595191        43.4073 
 476   0.0000       1.595886        43.4263 
 477   0.0000       1.596734        43.4493 
 478   0.0000       1.597765        43.4774 
 479   0.0000       1.598444        43.4959 
 480   0.0000       1.603652        43.6376 
 481   0.0000       1.605920        43.6993 
 482   0.0000       1.607837        43.7515 
 483   0.0000       1.611254        43.8445 
 484   0.0000       1.615450        43.9586 
 485   0.0000       1.619160        44.0596 
 486   0.0000       1.619465        44.0679 
 487   0.0000       1.623979        44.1907 
 488   0.0000       1.625299        44.2266 
 489   0.0000       1.631170        44.3864 
 490   0.0000       1.634512        44.4773 
 491   0.0000       1.636125        44.5212 
 492   0.0000       1.636688        44.5365 
 493   0.0000       1.642631        44.6983 
 494   0.0000       1.645068        44.7646 
 495   0.0000       1.646948        44.8157 
 496   0.0000       1.652219        44.9592 
 497   0.0000       1.656178        45.0669 
 498   0.0000       1.663938        45.2781 
 499   0.0000       1.666078        45.3363 
 500   0.0000       1.681321        45.7511 
 501   0.0000       1.686451        45.8907 
 502   0.0000       1.699423        46.2437 
 503   0.0000       1.702207        46.3194 
 504   0.0000       1.707558        46.4650 
 505   0.0000       1.712745        46.6062 
 506   0.0000       1.721143        46.8347 
 507   0.0000       1.729137        47.0522 
 508   0.0000       1.739150        47.3247 
 509   0.0000       1.740312        47.3563 
 510   0.0000       1.749300        47.6009 
 511   0.0000       1.754159        47.7331 
 512   0.0000       1.759479        47.8779 
 513   0.0000       1.765343        48.0374 
 514   0.0000       1.772899        48.2430 
 515   0.0000       1.777000        48.3546 
 516   0.0000       1.777808        48.3766 
 517   0.0000       1.789237        48.6876 
 518   0.0000       1.792451        48.7751 
 519   0.0000       1.794422        48.8287 
 520   0.0000       1.795964        48.8707 
 521   0.0000       1.797949        48.9247 
 522   0.0000       1.801954        49.0337 
 523   0.0000       1.811104        49.2826 
 524   0.0000       1.820235        49.5311 
 525   0.0000       1.825685        49.6794 
 526   0.0000       1.838153        50.0187 
 527   0.0000       1.838960        50.0406 
 528   0.0000       1.870151        50.8894 
 529   0.0000       1.873026        50.9676 
 530   0.0000       1.900585        51.7175 
 531   0.0000       1.903075        51.7853 
 532   0.0000       1.917924        52.1894 
 533   0.0000       1.920936        52.2713 
 534   0.0000       1.935142        52.6579 
 535   0.0000       1.956659        53.2434 
 536   0.0000       1.988297        54.1043 
 537   0.0000       2.034895        55.3723 
 538   0.0000       2.118308        57.6421 
 539   0.0000       2.122714        57.7620 
 540   0.0000       2.262367        61.5621 
 541   0.0000       2.268826        61.7379 
 542   0.0000       2.299565        62.5744 
 543   0.0000       2.339773        63.6685 
 544   0.0000       2.374909        64.6246 
 545   0.0000       2.392355        65.0993 
 546   0.0000       2.404030        65.4170 
 547   0.0000       2.427235        66.0484 
 548   0.0000       2.444053        66.5061 
 549   0.0000       2.459321        66.9215 
 550   0.0000       2.491578        67.7993 
 551   0.0000       2.499027        68.0020 
 552   0.0000       2.530805        68.8667 
 553   0.0000       2.539695        69.1086 
 554   0.0000       2.547786        69.3288 
 555   0.0000       2.561704        69.7075 
 556   0.0000       2.579869        70.2018 
 557   0.0000       3.351491        91.1987 
 558   0.0000       3.506540        95.4178 
 559   0.0000       3.579217        97.3954 
 560   0.0000       3.702067       100.7384 
 561   0.0000       3.712478       101.0217 
 562   0.0000       3.789477       103.1169 
 563   0.0000       3.865265       105.1792 
 564   0.0000       3.870796       105.3297 
 565   0.0000       3.873741       105.4099 
 566   0.0000       3.881655       105.6252 
 567   0.0000       3.887045       105.7719 
 568   0.0000       3.889999       105.8522 
 569   0.0000       3.893049       105.9352 
 570   0.0000      23.757602       646.4772 
 571   0.0000      23.767056       646.7345 
 572   0.0000      24.333574       662.1502 
 573   0.0000      24.340135       662.3287 
 574   0.0000      24.442687       665.1193 
 575   0.0000      24.626930       670.1328 
 576   0.0000      24.837982       675.8758 
 577   0.0000      24.928363       678.3352 
 578   0.0000      25.160657       684.6563 
 579   0.0000      25.279464       687.8892 
 580   0.0000      25.405086       691.3075 
 581   0.0000      25.512565       694.2322 
 582   0.0000      25.518264       694.3873 
 583   0.0000      25.548742       695.2166 
 584   0.0000      25.600643       696.6289 
 585   0.0000      25.629725       697.4203 
 586   0.0000      25.697680       699.2694 
 587   0.0000      25.793306       701.8715 
 588   0.0000      25.857870       703.6284 
 589   0.0000      26.001573       707.5388 
 590   0.0000      26.045558       708.7357 
 591   0.0000      26.107469       710.4203 
 592   0.0000      26.146116       711.4720 
 593   0.0000      26.314728       716.0602 
 594   0.0000      26.487025       720.7486 
 595   0.0000      26.521354       721.6827 
 596   0.0000      26.604169       723.9362 
 597   0.0000      26.767197       728.3725 
 598   0.0000      26.840087       730.3559 
 599   0.0000      26.932540       732.8717 
 600   0.0000      26.941936       733.1273 
 601   0.0000      27.027977       735.4686 
 602   0.0000      27.046318       735.9677 
 603   0.0000      27.203809       740.2533 
 604   0.0000      27.242836       741.3153 
 605   0.0000      27.429969       746.4074 
 606   0.0000      27.482138       747.8270 
 607   0.0000      27.639408       752.1065 
 608   0.0000      27.751753       755.1636 
 609   0.0000      27.813260       756.8373 
 610   0.0000      28.072225       763.8841 
 611   0.0000      28.332581       770.9687 
 612   0.0000      28.461265       774.4704 
 613   0.0000      30.630298       833.4928 
 614   0.0000      30.781566       837.6090 
 615   0.0000      43.888034      1194.2541 
 616   0.0000      44.013316      1197.6632 
 617   0.0000      44.029096      1198.0926 
 618   0.0000      44.043428      1198.4826 
 619   0.0000      44.059633      1198.9236 
 620   0.0000      44.128298      1200.7920 
 621   0.0000      44.131665      1200.8836 
 622   0.0000      44.137407      1201.0399 
 623   0.0000      44.166647      1201.8356 
 624   0.0000      44.184981      1202.3345 
 625   0.0000      44.196054      1202.6358 
 626   0.0000      44.208451      1202.9731 
 627   0.0000      44.240323      1203.8404 
 628   0.0000      44.246113      1203.9979 
 629   0.0000      44.272715      1204.7218 
 630   0.0000     205.082889      5580.5891 
 631   0.0000     205.134836      5582.0027 
 632   0.0000     205.141783      5582.1917 
 633   0.0000     205.147099      5582.3364 
 634   0.0000     205.153178      5582.5018 
 635   0.0000     205.183571      5583.3288 
 636   0.0000     205.187066      5583.4239 
 637   0.0000     205.189660      5583.4945 
 638   0.0000     205.201562      5583.8184 
 639   0.0000     205.208715      5584.0130 
 640   0.0000     205.210801      5584.0698 
 641   0.0000     205.215804      5584.2059 
 642   0.0000     205.225719      5584.4757 
 643   0.0000     205.232656      5584.6645 
 644   0.0000     205.242069      5584.9206 

                 SPIN DOWN ORBITALS
  NO   OCC          E(Eh)            E(eV) 
   0   1.0000    -254.788264     -6933.1411 
   1   1.0000     -29.567479      -804.5720 
   2   1.0000     -25.520833      -694.4572 
   3   1.0000     -25.516296      -694.3337 
   4   1.0000     -25.515926      -694.3236 
   5   1.0000      -4.037121      -109.8556 
   6   1.0000      -4.037115      -109.8555 
   7   1.0000      -4.032406      -109.7273 
   8   1.0000      -4.032325      -109.7251 
   9   1.0000      -4.030065      -109.6636 
  10   1.0000      -4.030010      -109.6621 
  11   1.0000      -4.027055      -109.5817 
  12   1.0000      -4.026464      -109.5657 
  13   1.0000      -4.026424      -109.5646 
  14   1.0000      -4.025463      -109.5384 
  15   1.0000      -4.024935      -109.5240 
  16   1.0000      -4.024697      -109.5176 
  17   1.0000      -4.024035      -109.4996 
  18   1.0000      -4.023930      -109.4967 
  19   1.0000      -4.015834      -109.2764 
  20   1.0000      -3.267674       -88.9179 
  21   1.0000      -2.253081       -61.3094 
  22   1.0000      -2.252971       -61.3065 
  23   1.0000      -2.250761       -61.2463 
  24   1.0000      -2.250737       -61.2457 
  25   1.0000      -2.248168       -61.1758 
  26   1.0000      -2.247593       -61.1601 
  27   1.0000      -2.247400       -61.1549 
  28   1.0000      -2.246894       -61.1411 
  29   1.0000      -2.246725       -61.1365 
  30   1.0000      -2.246614       -61.1335 
  31   1.0000      -2.245422       -61.1010 
  32   1.0000      -2.245141       -61.0934 
  33   1.0000      -2.244966       -61.0886 
  34   1.0000      -2.243138       -61.0389 
  35   1.0000      -2.242909       -61.0327 
  36   1.0000      -2.242580       -61.0237 
  37   1.0000      -2.242036       -61.0089 
  38   1.0000      -2.241975       -61.0072 
  39   1.0000      -2.241868       -61.0043 
  40   1.0000      -2.241439       -60.9926 
  41   1.0000      -2.241419       -60.9921 
  42   1.0000      -2.240643       -60.9710 
  43   1.0000      -2.240295       -60.9615 
  44   1.0000      -2.239543       -60.9411 
  45   1.0000      -2.239183       -60.9313 
  46   1.0000      -2.238910       -60.9238 
  47   1.0000      -2.238503       -60.9128 
  48   1.0000      -2.238010       -60.8993 
  49   1.0000      -2.237865       -60.8954 
  50   1.0000      -2.237717       -60.8914 
  51   1.0000      -2.237096       -60.8745 
  52   1.0000      -2.236853       -60.8679 
  53   1.0000      -2.236619       -60.8615 
  54   1.0000      -2.236008       -60.8449 
  55   1.0000      -2.235939       -60.8430 
  56   1.0000      -2.235725       -60.8372 
  57   1.0000      -2.235401       -60.8283 
  58   1.0000      -2.235377       -60.8277 
  59   1.0000      -2.235273       -60.8249 
  60   1.0000      -2.234869       -60.8139 
  61   1.0000      -2.234721       -60.8099 
  62   1.0000      -2.232902       -60.7604 
  63   1.0000      -2.230454       -60.6937 
  64   1.0000      -2.228472       -60.6398 
  65   1.0000      -2.227430       -60.6115 
  66   1.0000      -2.087412       -56.8014 
  67   1.0000      -2.082164       -56.6586 
  68   1.0000      -2.081559       -56.6421 
  69   1.0000      -0.432504       -11.7690 
  70   1.0000      -0.398425       -10.8417 
  71   1.0000      -0.388621       -10.5749 
  72   1.0000      -0.386793       -10.5252 
  73   1.0000      -0.375620       -10.2211 
  74   1.0000      -0.369112       -10.0441 
  75   1.0000      -0.365936        -9.9576 
  76   1.0000      -0.364759        -9.9256 
  77   1.0000      -0.363551        -9.8927 
  78   1.0000      -0.363206        -9.8833 
  79   1.0000      -0.357309        -9.7229 
  80   1.0000      -0.356266        -9.6945 
  81   1.0000      -0.356172        -9.6919 
  82   1.0000      -0.353639        -9.6230 
  83   1.0000      -0.352080        -9.5806 
  84   1.0000      -0.350545        -9.5388 
  85   1.0000      -0.348465        -9.4822 
  86   1.0000      -0.345935        -9.4134 
  87   1.0000      -0.345414        -9.3992 
  88   1.0000      -0.343810        -9.3555 
  89   1.0000      -0.338647        -9.2151 
  90   1.0000      -0.336713        -9.1624 
  91   1.0000      -0.335472        -9.1287 
  92   1.0000      -0.335292        -9.1238 
  93   1.0000      -0.333361        -9.0712 
  94   1.0000      -0.332289        -9.0420 
  95   1.0000      -0.328027        -8.9261 
  96   1.0000      -0.323901        -8.8138 
  97   1.0000      -0.322892        -8.7864 
  98   1.0000      -0.318418        -8.6646 
  99   1.0000      -0.317581        -8.6418 
 100   1.0000      -0.314731        -8.5643 
 101   1.0000      -0.314203        -8.5499 
 102   1.0000      -0.311227        -8.4689 
 103   1.0000      -0.307938        -8.3794 
 104   1.0000      -0.306875        -8.3505 
 105   1.0000      -0.304402        -8.2832 
 106   1.0000      -0.302175        -8.2226 
 107   1.0000      -0.299598        -8.1525 
 108   1.0000      -0.294119        -8.0034 
 109   1.0000      -0.293869        -7.9966 
 110   1.0000      -0.292211        -7.9515 
 111   1.0000      -0.290456        -7.9037 
 112   1.0000      -0.289654        -7.8819 
 113   1.0000      -0.287958        -7.8357 
 114   1.0000      -0.284874        -7.7518 
 115   1.0000      -0.281054        -7.6479 
 116   1.0000      -0.278425        -7.5763 
 117   1.0000      -0.276490        -7.5237 
 118   1.0000      -0.275882        -7.5071 
 119   1.0000      -0.274718        -7.4754 
 120   1.0000      -0.273484        -7.4419 
 121   1.0000      -0.272471        -7.4143 
 122   1.0000      -0.271950        -7.4001 
 123   1.0000      -0.269250        -7.3267 
 124   1.0000      -0.267934        -7.2909 
 125   1.0000      -0.267216        -7.2713 
 126   1.0000      -0.266211        -7.2440 
 127   1.0000      -0.263580        -7.1724 
 128   1.0000      -0.262792        -7.1509 
 129   1.0000      -0.261132        -7.1058 
 130   1.0000      -0.260938        -7.1005 
 131   1.0000      -0.258352        -7.0301 
 132   1.0000      -0.258146        -7.0245 
 133   1.0000      -0.256228        -6.9723 
 134   1.0000      -0.255954        -6.9649 
 135   1.0000      -0.255369        -6.9489 
 136   1.0000      -0.252309        -6.8657 
 137   1.0000      -0.251950        -6.8559 
 138   1.0000      -0.250942        -6.8285 
 139   1.0000      -0.249409        -6.7868 
 140   1.0000      -0.247495        -6.7347 
 141   1.0000      -0.246445        -6.7061 
 142   1.0000      -0.244538        -6.6542 
 143   1.0000      -0.242868        -6.6088 
 144   1.0000      -0.240977        -6.5573 
 145   1.0000      -0.240233        -6.5371 
 146   1.0000      -0.239587        -6.5195 
 147   1.0000      -0.230273        -6.2660 
 148   1.0000      -0.229324        -6.2402 
 149   1.0000      -0.216380        -5.8880 
 150   1.0000      -0.215447        -5.8626 
 151   1.0000      -0.208073        -5.6620 
 152   1.0000      -0.206807        -5.6275 
 153   0.0000      -0.186866        -5.0849 
 154   0.0000      -0.179693        -4.8897 
 155   0.0000      -0.176735        -4.8092 
 156   0.0000      -0.172695        -4.6993 
 157   0.0000      -0.165697        -4.5089 
 158   0.0000      -0.148479        -4.0403 
 159   0.0000      -0.128333        -3.4921 
 160   0.0000      -0.128069        -3.4849 
 161   0.0000      -0.126298        -3.4367 
 162   0.0000      -0.116304        -3.1648 
 163   0.0000      -0.114733        -3.1220 
 164   0.0000      -0.111364        -3.0304 
 165   0.0000      -0.075597        -2.0571 
 166   0.0000      -0.066541        -1.8107 
 167   0.0000      -0.064422        -1.7530 
 168   0.0000      -0.060779        -1.6539 
 169   0.0000      -0.049543        -1.3481 
 170   0.0000      -0.040702        -1.1075 
 171   0.0000      -0.035134        -0.9560 
 172   0.0000      -0.024903        -0.6776 
 173   0.0000      -0.017088        -0.4650 
 174   0.0000      -0.016986        -0.4622 
 175   0.0000      -0.007317        -0.1991 
 176   0.0000       0.001409         0.0383 
 177   0.0000       0.016698         0.4544 
 178   0.0000       0.019362         0.5269 
 179   0.0000       0.020952         0.5701 
 180   0.0000       0.030087         0.8187 
 181   0.0000       0.040246         1.0951 
 182   0.0000       0.041982         1.1424 
 183   0.0000       0.044360         1.2071 
 184   0.0000       0.048189         1.3113 
 185   0.0000       0.051057         1.3893 
 186   0.0000       0.054108         1.4723 
 187   0.0000       0.061478         1.6729 
 188   0.0000       0.065171         1.7734 
 189   0.0000       0.070113         1.9079 
 190   0.0000       0.071319         1.9407 
 191   0.0000       0.075474         2.0538 
 192   0.0000       0.077204         2.1008 
 193   0.0000       0.077649         2.1129 
 194   0.0000       0.084125         2.2891 
 195   0.0000       0.091456         2.4887 
 196   0.0000       0.091859         2.4996 
 197   0.0000       0.097816         2.6617 
 198   0.0000       0.102715         2.7950 
 199   0.0000       0.103818         2.8250 
 200   0.0000       0.109580         2.9818 
 201   0.0000       0.120417         3.2767 
 202   0.0000       0.124474         3.3871 
 203   0.0000       0.132771         3.6129 
 204   0.0000       0.136514         3.7147 
 205   0.0000       0.136616         3.7175 
 206   0.0000       0.143099         3.8939 
 207   0.0000       0.156827         4.2675 
 208   0.0000       0.158918         4.3244 
 209   0.0000       0.159719         4.3462 
 210   0.0000       0.162388         4.4188 
 211   0.0000       0.166372         4.5272 
 212   0.0000       0.169211         4.6045 
 213   0.0000       0.172721         4.7000 
 214   0.0000       0.174681         4.7533 
 215   0.0000       0.177002         4.8165 
 216   0.0000       0.179657         4.8887 
 217   0.0000       0.186559         5.0765 
 218   0.0000       0.188722         5.1354 
 219   0.0000       0.197757         5.3813 
 220   0.0000       0.203995         5.5510 
 221   0.0000       0.209627         5.7042 
[...]
      pz      :     2.073685  p :     6.235074
      px      :     2.091728
      py      :     2.069661
      dz2     :     1.990621  d :     9.871142
      dxz     :     1.966016
      dyz     :     1.970553
      dx2y2   :     1.980760
      dxy     :     1.963192
      f0      :     0.000468  f :     0.004518
      f+1     :     0.000676
      f-1     :     0.000313
      f+2     :     0.000679
      f-2     :     0.000929
      f+3     :     0.000664
      f-3     :     0.000790
  8 Aus       :     2.507610  s :     2.507610
      pz      :     2.174037  p :     6.542071
      px      :     2.228300
      py      :     2.139735
      dz2     :     1.984785  d :     9.880116
      dxz     :     1.987175
      dyz     :     1.945094
      dx2y2   :     1.968071
      dxy     :     1.994992
      f0      :     0.001319  f :     0.006511
      f+1     :     0.000853
      f-1     :     0.000825
      f+2     :     0.000909
      f-2     :     0.000697
      f+3     :     0.000889
      f-3     :     0.001020
  9 Aus       :     2.538373  s :     2.538373
      pz      :     2.225819  p :     6.624792
      px      :     2.191942
      py      :     2.207032
      dz2     :     1.979159  d :     9.909913
      dxz     :     1.981060
      dyz     :     1.972767
      dx2y2   :     1.987609
      dxy     :     1.989319
      f0      :     0.000865  f :     0.007042
      f+1     :     0.000971
      f-1     :     0.000898
      f+2     :     0.001035
      f-2     :     0.001510
      f+3     :     0.000796
      f-3     :     0.000968
 10 Aus       :     2.507248  s :     2.507248
      pz      :     2.212404  p :     6.542374
      px      :     2.229943
      py      :     2.100027
      dz2     :     1.972393  d :     9.880537
      dxz     :     1.982546
      dyz     :     1.981010
      dx2y2   :     1.975860
      dxy     :     1.968728
      f0      :     0.001254  f :     0.006519
      f+1     :     0.000885
      f-1     :     0.000839
      f+2     :     0.000629
      f-2     :     0.001090
      f+3     :     0.001016
      f-3     :     0.000806
 11 Aus       :     2.614022  s :     2.614022
      pz      :     2.189826  p :     6.458762
      px      :     2.133506
      py      :     2.135429
      dz2     :     1.966449  d :     9.855791
      dxz     :     1.974015
      dyz     :     1.973964
      dx2y2   :     1.987033
      dxy     :     1.954330
      f0      :     0.001133  f :     0.005478
      f+1     :     0.000834
      f-1     :     0.000862
      f+2     :     0.000506
      f-2     :     0.000621
      f+3     :     0.000778
      f-3     :     0.000745
 12 Aus       :     2.537114  s :     2.537114
      pz      :     2.140872  p :     6.589909
      px      :     2.285956
      py      :     2.163081
      dz2     :     1.990998  d :     9.930704
      dxz     :     1.986506
      dyz     :     2.000622
      dx2y2   :     1.981063
      dxy     :     1.971515
      f0      :     0.000842  f :     0.006566
      f+1     :     0.000881
      f-1     :     0.000737
      f+2     :     0.001035
      f-2     :     0.000879
      f+3     :     0.001145
      f-3     :     0.001046
 13 Aus       :     2.613875  s :     2.613875
      pz      :     2.163581  p :     6.458742
      px      :     2.121428
      py      :     2.173732
      dz2     :     1.979461  d :     9.855942
      dxz     :     1.952053
      dyz     :     1.973226
      dx2y2   :     1.984363
      dxy     :     1.966839
      f0      :     0.001167  f :     0.005489
      f+1     :     0.000825
      f-1     :     0.000751
      f+2     :     0.000553
      f-2     :     0.000624
      f+3     :     0.000653
      f-3     :     0.000916
 14 Aus       :     2.591050  s :     2.591050
      pz      :     2.112357  p :     6.500859
      px      :     2.230489
      py      :     2.158013
      dz2     :     1.960566  d :     9.862986
      dxz     :     1.997051
      dyz     :     1.984662
      dx2y2   :     1.953627
      dxy     :     1.967079
      f0      :     0.000710  f :     0.005813
      f+1     :     0.000797
      f-1     :     0.000683
      f+2     :     0.000896
      f-2     :     0.001140
      f+3     :     0.000768
      f-3     :     0.000819
 15 Fes       :     6.268172  s :     6.268172
      pz      :     4.177228  p :    12.555976
      px      :     4.159193
      py      :     4.219555
      dz2     :     1.480934  d :     7.720413
      dxz     :     1.463239
      dyz     :     1.521875
      dx2y2   :     1.773937
      dxy     :     1.480428
      f0      :     0.000087  f :     0.000542
      f+1     :     0.000047
      f-1     :     0.000061
      f+2     :     0.000082
      f-2     :     0.000116
      f+3     :     0.000078
      f-3     :     0.000070

SPIN
  0 Aus       :     0.028692  s :     0.028692
      pz      :     0.007190  p :     0.003161
      px      :     0.004252
      py      :    -0.008281
      dz2     :    -0.000559  d :    -0.012963
      dxz     :     0.003072
      dyz     :     0.001248
      dx2y2   :    -0.001711
      dxy     :    -0.015012
      f0      :     0.000002  f :    -0.000033
      f+1     :    -0.000004
      f-1     :    -0.000000
      f+2     :    -0.000002
      f-2     :    -0.000004
      f+3     :    -0.000007
      f-3     :    -0.000018
  1 Aus       :     0.025563  s :     0.025563
      pz      :     0.007748  p :    -0.029694
      px      :     0.000960
      py      :    -0.038402
      dz2     :     0.012503  d :    -0.011759
      dxz     :    -0.000867
      dyz     :    -0.021708
      dx2y2   :    -0.002322
      dxy     :     0.000636
      f0      :     0.000047  f :     0.000015
      f+1     :    -0.000001
      f-1     :    -0.000004
      f+2     :    -0.000011
      f-2     :    -0.000008
      f+3     :    -0.000006
      f-3     :    -0.000004
  2 Aus       :    -0.012303  s :    -0.012303
      pz      :    -0.005938  p :    -0.012460
      px      :    -0.006268
      py      :    -0.000254
      dz2     :    -0.000056  d :     0.004376
      dxz     :     0.005205
      dyz     :     0.004665
      dx2y2   :    -0.012783
      dxy     :     0.007344
      f0      :     0.000007  f :     0.000135
      f+1     :     0.000029
      f-1     :     0.000001
      f+2     :    -0.000018
      f-2     :     0.000089
      f+3     :     0.000012
      f-3     :     0.000014
  3 Aus       :    -0.028937  s :    -0.028937
      pz      :    -0.008073  p :    -0.000651
      px      :     0.006251
      py      :     0.001172
      dz2     :    -0.002120  d :     0.020787
      dxz     :     0.004541
      dyz     :     0.009812
      dx2y2   :     0.003108
      dxy     :     0.005446
      f0      :    -0.000006  f :     0.000183
      f+1     :     0.000009
      f-1     :     0.000019
      f+2     :     0.000074
      f-2     :     0.000047
      f+3     :     0.000023
      f-3     :     0.000018
  4 Aus       :    -0.012527  s :    -0.012527
      pz      :    -0.003338  p :    -0.012425
      px      :    -0.000254
      py      :    -0.008833
      dz2     :    -0.001479  d :     0.004564
      dxz     :     0.007047
      dyz     :    -0.001148
      dx2y2   :    -0.004255
      dxy     :     0.004400
      f0      :    -0.000003  f :     0.000137
      f+1     :     0.000037
      f-1     :    -0.000003
      f+2     :     0.000011
      f-2     :     0.000035
      f+3     :    -0.000014
      f-3     :     0.000075
  5 Aus       :    -0.029302  s :    -0.029302
      pz      :    -0.005889  p :    -0.000151
      px      :     0.001669
      py      :     0.004069
      dz2     :    -0.002345  d :     0.020508
      dxz     :     0.001306
      dyz     :     0.006983
      dx2y2   :     0.013293
      dxy     :     0.001271
      f0      :    -0.000020  f :     0.000180
      f+1     :    -0.000008
      f-1     :     0.000036
      f+2     :     0.000069
      f-2     :     0.000014
      f+3     :     0.000030
      f-3     :     0.000060
  6 Aus       :     0.019646  s :     0.019646
      pz      :    -0.001940  p :     0.003110
      px      :     0.000508
      py      :     0.004542
      dz2     :     0.001990  d :    -0.010698
      dxz     :    -0.008202
      dyz     :     0.000679
      dx2y2   :    -0.002978
      dxy     :    -0.002187
      f0      :     0.000001  f :    -0.000008
      f+1     :    -0.000001
      f-1     :     0.000004
      f+2     :    -0.000010
      f-2     :     0.000001
      f+3     :    -0.000004
      f-3     :     0.000002
  7 Aus       :    -0.030102  s :    -0.030102
      pz      :     0.003509  p :     0.002043
      px      :    -0.005436
      py      :     0.003970
      dz2     :     0.000620  d :    -0.002470
      dxz     :     0.001689
      dyz     :     0.001863
      dx2y2   :    -0.001419
      dxy     :    -0.005223
      f0      :     0.000004  f :     0.000003
      f+1     :     0.000003
      f-1     :    -0.000002
      f+2     :     0.000002
      f-2     :     0.000015
      f+3     :    -0.000005
      f-3     :    -0.000014
  8 Aus       :    -0.035827  s :    -0.035827
      pz      :    -0.008077  p :    -0.002662
      px      :     0.001174
      py      :     0.004240
      dz2     :    -0.001239  d :     0.021882
      dxz     :     0.001783
      dyz     :     0.015050
      dx2y2   :     0.007131
      dxy     :    -0.000842
      f0      :    -0.000003  f :     0.000195
      f+1     :    -0.000008
      f-1     :     0.000065
      f+2     :     0.000099
      f-2     :     0.000023
      f+3     :    -0.000005
      f-3     :     0.000025
  9 Aus       :     0.019614  s :     0.019614
      pz      :    -0.002356  p :     0.002937
      px      :    -0.001252
      py      :     0.006545
      dz2     :     0.001846  d :    -0.010794
      dxz     :    -0.007953
      dyz     :    -0.001480
      dx2y2   :     0.000987
      dxy     :    -0.004195
      f0      :    -0.000001  f :    -0.000008
      f+1     :     0.000002
      f-1     :     0.000001
      f+2     :    -0.000004
      f-2     :    -0.000004
      f+3     :    -0.000003
      f-3     :     0.000001
 10 Aus       :    -0.036531  s :    -0.036531
      pz      :    -0.006390  p :    -0.002297
      px      :     0.006100
      py      :    -0.002007
      dz2     :    -0.000901  d :     0.021660
      dxz     :     0.003633
      dyz     :     0.006002
      dx2y2   :     0.003673
      dxy     :     0.009252
      f0      :    -0.000005  f :     0.000193
      f+1     :     0.000006
      f-1     :     0.000038
      f+2     :     0.000047
      f-2     :     0.000039
      f+3     :     0.000059
      f-3     :     0.000009
 11 Aus       :    -0.001791  s :    -0.001791
      pz      :    -0.001832  p :    -0.006029
      px      :    -0.003039
      py      :    -0.001157
      dz2     :    -0.000591  d :     0.007079
      dxz     :     0.001746
      dyz     :     0.002853
      dx2y2   :    -0.008997
      dxy     :     0.012069
      f0      :     0.000005  f :     0.000129
      f+1     :     0.000013
      f-1     :     0.000003
      f+2     :    -0.000010
      f-2     :     0.000067
      f+3     :     0.000050
      f-3     :     0.000002
 12 Aus       :     0.012343  s :     0.012343
      pz      :     0.005142  p :    -0.014746
      px      :    -0.005760
      py      :    -0.014129
      dz2     :    -0.001805  d :    -0.017539
      dxz     :     0.001714
      dyz     :    -0.001277
      dx2y2   :    -0.000297
      dxy     :    -0.015875
      f0      :    -0.000004  f :    -0.000025
      f+1     :    -0.000003
      f-1     :    -0.000003
      f+2     :     0.000002
      f-2     :    -0.000004
      f+3     :    -0.000004
      f-3     :    -0.000008
 13 Aus       :    -0.001914  s :    -0.001914
      pz      :    -0.004991  p :    -0.006123
      px      :     0.001541
      py      :    -0.002674
      dz2     :    -0.001502  d :     0.006897
      dxz     :     0.013923
      dyz     :    -0.000923
      dx2y2   :    -0.004563
      dxy     :    -0.000038
      f0      :     0.000010  f :     0.000127
      f+1     :     0.000034
      f-1     :    -0.000028
      f+2     :     0.000040
      f-2     :     0.000053
      f+3     :    -0.000009
      f-3     :     0.000027
 14 Aus       :     0.024908  s :     0.024908
      pz      :     0.006601  p :    -0.031226
      px      :    -0.001422
      py      :    -0.036405
      dz2     :     0.010743  d :    -0.013150
      dxz     :    -0.001798
      dyz     :    -0.020152
      dx2y2   :    -0.002105
      dxy     :     0.000163
      f0      :     0.000048  f :     0.000024
      f+1     :    -0.000002
      f-1     :    -0.000001
      f+2     :    -0.000010
      f-2     :    -0.000007
      f+3     :    -0.000001
      f-3     :    -0.000003
 15 Fes       :     0.014268  s :     0.014268
      pz      :     0.006901  p :     0.018354
      px      :     0.005230
      py      :     0.006222
      dz2     :     0.720951  d :     3.103402
      dxz     :     0.718118
      dyz     :     0.570913
      dx2y2   :     0.350216
      dxy     :     0.743204
      f0      :     0.000007  f :     0.000031
      f+1     :     0.000006
      f-1     :     0.000001
      f+2     :     0.000003
      f-2     :     0.000004
      f+3     :     0.000009
      f-3     :     0.000001


                      *****************************
                      * MAYER POPULATION ANALYSIS *
                      *****************************

  NA   - Mulliken gross atomic population
  ZA   - Total nuclear charge
  QA   - Mulliken gross atomic charge
  VA   - Mayer's total valence
  BVA  - Mayer's bonded valence
  FA   - Mayer's free valence

  ATOM       NA         ZA         QA         VA         BVA        FA
  0 Au    18.8508    19.0000     0.1492     1.6234     1.6188     0.0046
  1 Au    18.8101    19.0000     0.1899     1.7308     1.7236     0.0072
  2 Au    18.7072    19.0000     0.2928     1.6077     1.6044     0.0033
  3 Au    18.8072    19.0000     0.1928     1.8928     1.8848     0.0080
  4 Au    18.7081    19.0000     0.2919     1.6092     1.6059     0.0033
  5 Au    18.8076    19.0000     0.1924     1.8942     1.8861     0.0081
  6 Au    19.1853    19.0000    -0.1853     2.1501     2.1472     0.0029
  7 Au    18.4498    19.0000     0.5502     1.2907     1.2878     0.0029
  8 Au    18.8459    19.0000     0.1541     1.7891     1.7796     0.0095
  9 Au    19.1870    19.0000    -0.1870     2.1521     2.1492     0.0029
 10 Au    18.8448    19.0000     0.1552     1.7866     1.7768     0.0098
 11 Au    18.7230    19.0000     0.2770     1.6164     1.6119     0.0045
 12 Au    19.2582    19.0000    -0.2582     2.2187     2.2169     0.0018
 13 Au    18.7223    19.0000     0.2777     1.6155     1.6111     0.0044
 14 Au    18.7200    19.0000     0.2800     1.7182     1.7120     0.0062
 15 Fe    28.3728    26.0000    -2.3728     7.7903     5.3313     2.4590

  Mayer bond orders larger than 0.100000
B(  0-Au,  1-Au) :   0.3392 B(  0-Au,  3-Au) :   0.1890 B(  0-Au,  5-Au) :   0.1920 
B(  0-Au,  6-Au) :   0.2325 B(  0-Au,  9-Au) :   0.2341 B(  0-Au, 15-Fe) :   0.2117 
B(  1-Au,  2-Au) :   0.2204 B(  1-Au,  3-Au) :   0.1680 B(  1-Au,  4-Au) :   0.2201 
B(  1-Au,  5-Au) :   0.1697 B(  1-Au, 15-Fe) :   0.3416 B(  2-Au,  3-Au) :   0.2255 
B(  2-Au, 11-Au) :   0.2791 B(  2-Au, 15-Fe) :   0.4592 B(  3-Au,  9-Au) :   0.4078 
B(  3-Au, 10-Au) :   0.2109 B(  3-Au, 15-Fe) :   0.4654 B(  4-Au,  5-Au) :   0.2252 
B(  4-Au, 13-Au) :   0.2792 B(  4-Au, 15-Fe) :   0.4609 B(  5-Au,  6-Au) :   0.4073 
B(  5-Au,  8-Au) :   0.2113 B(  5-Au, 15-Fe) :   0.4631 B(  6-Au,  7-Au) :   0.3214 
B(  6-Au,  8-Au) :   0.2852 B(  6-Au,  9-Au) :   0.2744 B(  6-Au, 12-Au) :   0.2722 
B(  6-Au, 15-Fe) :   0.2038 B(  7-Au,  9-Au) :   0.3227 B(  7-Au, 12-Au) :   0.3458 
B(  8-Au, 12-Au) :   0.2280 B(  8-Au, 13-Au) :   0.1728 B(  8-Au, 14-Au) :   0.1414 
B(  8-Au, 15-Fe) :   0.5104 B(  9-Au, 10-Au) :   0.2847 B(  9-Au, 12-Au) :   0.2709 
B(  9-Au, 15-Fe) :   0.2037 B( 10-Au, 11-Au) :   0.1724 B( 10-Au, 12-Au) :   0.2277 
B( 10-Au, 14-Au) :   0.1435 B( 10-Au, 15-Fe) :   0.5083 B( 11-Au, 13-Au) :   0.1668 
B( 11-Au, 14-Au) :   0.2141 B( 11-Au, 15-Fe) :   0.4634 B( 12-Au, 14-Au) :   0.4705 
B( 12-Au, 15-Fe) :   0.2122 B( 13-Au, 14-Au) :   0.2150 B( 13-Au, 15-Fe) :   0.4616 
B( 14-Au, 15-Fe) :   0.2933 

-------
TIMINGS
-------

Total SCF time: 0 days 0 hours 10 min 9 sec 

Total time                  ....     609.088 sec
Sum of individual times     ....     602.766 sec  ( 99.0%)

Fock matrix formation       ....     545.864 sec  ( 89.6%)
  Split-RI-J                ....     177.553 sec  ( 32.5% of F)
  XC integration            ....     361.049 sec  ( 66.1% of F)
    Basis function eval.    ....      40.338 sec  ( 11.2% of XC)
    Density eval.           ....     167.191 sec  ( 46.3% of XC)
    XC-Functional eval.     ....       5.835 sec  (  1.6% of XC)
    XC-Potential eval.      ....     130.556 sec  ( 36.2% of XC)
Diagonalization             ....      34.730 sec  (  5.7%)
Density matrix formation    ....       2.541 sec  (  0.4%)
Population analysis         ....       0.165 sec  (  0.0%)
Initial guess               ....       0.242 sec  (  0.0%)
Orbital Transformation      ....       2.446 sec  (  0.4%)
Orbital Orthonormalization  ....       0.206 sec  (  0.0%)
DIIS solution               ....      15.385 sec  (  2.5%)
Grid generation             ....       1.381 sec  (  0.2%)

Maximum memory used throughout the entire SCF-calculation: 122.3 MB

-------------------------   --------------------
FINAL SINGLE POINT ENERGY     -3300.911085921279
-------------------------   --------------------


                            ***************************************
                            *     ORCA property calculations      *
                            ***************************************

                                    ---------------------
                                    Active property flags
                                    ---------------------
   (+) Dipole Moment


------------------------------------------------------------------------------
                       ORCA ELECTRIC PROPERTIES CALCULATION
------------------------------------------------------------------------------

Dipole Moment Calculation                       ... on
Quadrupole Moment Calculation                   ... off
Polarizability Calculation                      ... off
GBWName                                         ... pbeSP_job2.gbw
Electron density                                ... pbeSP_job2.scfp
The origin for moment calculation is the CENTER OF MASS  = (14.229497, 15.356491 15.670365)

-------------
DIPOLE MOMENT
-------------
                                X             Y             Z
Electronic contribution:    -32.94545      -5.59597       3.97301
Nuclear contribution   :     33.03728       5.62148      -3.91837
                        -----------------------------------------
Total Dipole Moment    :      0.09183       0.02551       0.05465
                        -----------------------------------------
Magnitude (a.u.)       :      0.10986
Magnitude (Debye)      :      0.27925



--------------------
Rotational spectrum 
--------------------
 
Rotational constants in cm-1:     0.001126     0.000877     0.000763 
Rotational constants in MHz :    33.743519    26.297830    22.888199 

 Dipole components along the rotational axes: 
x,y,z [a.u.] :    -0.079423     0.075908    -0.000200 
x,y,z [Debye]:    -0.201877     0.192943    -0.000509 

 

Timings for individual modules:

Sum of individual times         ...      619.725 sec (=  10.329 min)
GTO integral calculation        ...       10.494 sec (=   0.175 min)   1.7 %
SCF iterations                  ...      609.232 sec (=  10.154 min)  98.3 %



                             ****ORCA TERMINATED NORMALLY****
TOTAL RUN TIME: 0 days 0 hours 14 minutes 2 seconds 914 msec
