
                                 *****************
                                 * O   R   C   A *
                                 *****************

                                            #,                                       
                                            ###                                      
                                            ####                                     
                                            #####                                    
                                            ######                                   
                                           ########,                                 
                                     ,,################,,,,,                         
                               ,,#################################,,                 
                          ,,##########################################,,             
                       ,#########################################, ''#####,          
                    ,#############################################,,   '####,        
                  ,##################################################,,,,####,       
                ,###########''''           ''''###############################       
              ,#####''   ,,,,##########,,,,          '''####'''          '####       
            ,##' ,,,,###########################,,,                        '##       
           ' ,,###''''                  '''############,,,                           
         ,,##''                                '''############,,,,        ,,,,,,###''
      ,#''                                            '''#######################'''  
     '                                                          ''''####''''         
             ,#######,   #######,   ,#######,      ##                                
            ,#'     '#,  ##    ##  ,#'     '#,    #''#        ######   ,####,        
            ##       ##  ##   ,#'  ##            #'  '#       #        #'  '#        
            ##       ##  #######   ##           ,######,      #####,   #    #        
            '#,     ,#'  ##    ##  '#,     ,#' ,#      #,         ##   #,  ,#        
             '#######'   ##     ##  '#######'  #'      '#     #####' # '####'        



                  #######################################################
                  #                        -***-                        #
                  #          Department of theory and spectroscopy      #
                  #    Directorship and core code : Frank Neese         #
                  #        Max Planck Institute fuer Kohlenforschung    #
                  #                Kaiser Wilhelm Platz 1               #
                  #                 D-45470 Muelheim/Ruhr               #
                  #                      Germany                        #
                  #                                                     #
                  #                  All rights reserved                #
                  #                        -***-                        #
                  #######################################################


                         Program Version 5.0.3 -  RELEASE  -


 With contributions from (in alphabetic order):
   Daniel Aravena         : Magnetic Suceptibility
   Michael Atanasov       : Ab Initio Ligand Field Theory (pilot matlab implementation)
   Alexander A. Auer      : GIAO ZORA, VPT2 properties, NMR spectrum
   Ute Becker             : Parallelization
   Giovanni Bistoni       : ED, misc. LED, open-shell LED, HFLD
   Martin Brehm           : Molecular dynamics
   Dmytro Bykov           : SCF Hessian
   Vijay G. Chilkuri      : MRCI spin determinant printing, contributions to CSF-ICE
   Dipayan Datta          : RHF DLPNO-CCSD density
   Achintya Kumar Dutta   : EOM-CC, STEOM-CC
   Dmitry Ganyushin       : Spin-Orbit,Spin-Spin,Magnetic field MRCI
   Miquel Garcia          : C-PCM and meta-GGA Hessian, CC/C-PCM, Gaussian charge scheme
   Yang Guo               : DLPNO-NEVPT2, F12-NEVPT2, CIM, IAO-localization
   Andreas Hansen         : Spin unrestricted coupled pair/coupled cluster methods
   Benjamin Helmich-Paris : MC-RPA, TRAH-SCF, COSX integrals
   Lee Huntington         : MR-EOM, pCC
   Robert Izsak           : Overlap fitted RIJCOSX, COSX-SCS-MP3, EOM
   Marcus Kettner         : VPT2
   Christian Kollmar      : KDIIS, OOCD, Brueckner-CCSD(T), CCSD density, CASPT2, CASPT2-K
   Simone Kossmann        : Meta GGA functionals, TD-DFT gradient, OOMP2, MP2 Hessian
   Martin Krupicka        : Initial AUTO-CI
   Lucas Lang             : DCDCAS
   Marvin Lechner         : AUTO-CI (C++ implementation), FIC-MRCC
   Dagmar Lenk            : GEPOL surface, SMD
   Dimitrios Liakos       : Extrapolation schemes; Compound Job, initial MDCI parallelization
   Dimitrios Manganas     : Further ROCIS development; embedding schemes
   Dimitrios Pantazis     : SARC Basis sets
   Anastasios Papadopoulos: AUTO-CI, single reference methods and gradients
   Taras Petrenko         : DFT Hessian,TD-DFT gradient, ASA, ECA, R-Raman, ABS, FL, XAS/XES, NRVS
   Peter Pinski           : DLPNO-MP2, DLPNO-MP2 Gradient
   Christoph Reimann      : Effective Core Potentials
   Marius Retegan         : Local ZFS, SOC
   Christoph Riplinger    : Optimizer, TS searches, QM/MM, DLPNO-CCSD(T), (RO)-DLPNO pert. Triples
   Tobias Risthaus        : Range-separated hybrids, TD-DFT gradient, RPA, STAB
   Michael Roemelt        : Original ROCIS implementation
   Masaaki Saitow         : Open-shell DLPNO-CCSD energy and density
   Barbara Sandhoefer     : DKH picture change effects
   Avijit Sen             : IP-ROCIS
   Kantharuban Sivalingam : CASSCF convergence, NEVPT2, FIC-MRCI
   Bernardo de Souza      : ESD, SOC TD-DFT
   Georgi Stoychev        : AutoAux, RI-MP2 NMR, DLPNO-MP2 response
   Willem Van den Heuvel  : Paramagnetic NMR
   Boris Wezisla          : Elementary symmetry handling
   Frank Wennmohs         : Technical directorship


 We gratefully acknowledge several colleagues who have allowed us to
 interface, adapt or use parts of their codes:
   Stefan Grimme, W. Hujo, H. Kruse, P. Pracht,  : VdW corrections, initial TS optimization,
                  C. Bannwarth, S. Ehlert          DFT functionals, gCP, sTDA/sTD-DF
   Ed Valeev, F. Pavosevic, A. Kumar             : LibInt (2-el integral package), F12 methods
   Garnet Chan, S. Sharma, J. Yang, R. Olivares  : DMRG
   Ulf Ekstrom                                   : XCFun DFT Library
   Mihaly Kallay                                 : mrcc  (arbitrary order and MRCC methods)
   Jiri Pittner, Ondrej Demel                    : Mk-CCSD
   Frank Weinhold                                : gennbo (NPA and NBO analysis)
   Christopher J. Cramer and Donald G. Truhlar   : smd solvation model
   Lars Goerigk                                  : TD-DFT with DH, B97 family of functionals
   V. Asgeirsson, H. Jonsson                     : NEB implementation
   FAccTs GmbH                                   : IRC, NEB, NEB-TS, DLPNO-Multilevel, CI-OPT
                                                   MM, QMMM, 2- and 3-layer-ONIOM, Crystal-QMMM,
                                                   LR-CPCM, SF, NACMEs, symmetry and pop. for TD-DFT,
                                                   nearIR, NL-DFT gradient (VV10), updates on ESD,
                                                   ML-optimized integration grids
   S Lehtola, MJT Oliveira, MAL Marques          : LibXC Library
   Liviu Ungur et al                             : ANISO software


 Your calculation uses the libint2 library for the computation of 2-el integrals
 For citations please refer to: http://libint.valeyev.net

 Your ORCA version has been built with support for libXC version: 5.1.0
 For citations please refer to: https://tddft.org/programs/libxc/

 This ORCA versions uses:
   CBLAS   interface :  Fast vector & matrix operations
   LAPACKE interface :  Fast linear algebra routines
   SCALAPACK package :  Parallel linear algebra routines
   Shared memory     :  Shared parallel matrices
   BLAS/LAPACK       :  OpenBLAS 0.3.15  USE64BITINT DYNAMIC_ARCH NO_AFFINITY Haswell SINGLE_THREADED
        Core in use  :  Haswell
   Copyright (c) 2011-2014, The OpenBLAS Project




***************************************
The coordinates will be read from file: pbe.xyz
***************************************


================================================================================

cite the ECPs for Au [Def2-ECP] as follows:
Ce-Yb(ecp-28): M. Dolg, H. Stoll, H.Preuss, J. Chem. Phys., 1989, 90, 1730-1734.
Y-Cd(ecp-28), Hf-Hg(ecp-46): D. Andrae,U. Haeussermann, M. Dolg, H. Stoll, H. Preuss, Theor. Chim. Acta, 1990, 77, 123-141.
In-Sb(ecp-28), Tl-Bi(ecp-46): B. Metz, H. Stoll, M. Dolg, J. Chem. Phys., 2000, 113, 2563-2569.
Te-Xe(ecp-28), Po-Rn(ecp-46): K. A. Peterson, D. Figgen, E. Goll, H. Stoll, M. Dolg, J. Chem. Phys., 2003, 119, 11113-11123.
Rb(ecp-28), Cs(ecp-46): T. Leininger, A. Nicklass, W. Kuechle, H. Stoll, M. Dolg, A. Bergner, Chem. Phys. Lett., 1996, 255, 274-280.
Sr(ecp-28), Ba(ecp-46): M. Kaupp, P. V. Schleyer, H. Stoll and H. Preuss, J. Chem. Phys., 1991, 94, 1360-1366.
La(ecp-46): M. Dolg, H. Stoll, A. Savin, H. Preuss, Theor. Chim. Acta, 1989, 75, 173-194.
Lu(ecp-28): X. Cao, M. Dolg, J. Chem. Phys., 2001, 115, 7348-7355.

ECP parameters for Au [Def2-ECP] have been obtained from:
TURBOMOLE (7.0.2)

----- Orbital basis set information -----
Your calculation utilizes the basis: def2-TZVP
   F. Weigend and R. Ahlrichs, Phys. Chem. Chem. Phys. 7, 3297 (2005).

----- AuxJ basis set information -----
Your calculation utilizes the auxiliary basis: def2/J
   F. Weigend, Phys. Chem. Chem. Phys. 8, 1057 (2006).

----- AuxC basis set information -----
Your calculation utilizes the auxiliary basis: def2-TZVP/C
  H-La, Hf-Rn : A. Hellweg, C. Hattig, S. Hofener and W. Klopper, Theor. Chem. Acc. 117, 587 (2007).
        Ce-Lu : J. Chmela and M. E. Harding, Mol. Phys. (2018).

================================================================================
                                        WARNINGS
                       Please study these warnings very carefully!
================================================================================


IMPORTANT NOTE: CASSCF must signal convergence for a subsequent CASPT2/NEVPT2! 
                Set maxiter=1 to run CASPT2/NEVPT2 with arbitrary orbitals.


INFO   : the flag for use of the SHARK integral package has been found!

================================================================================
                                       INPUT FILE
================================================================================
NAME = nevpt2.inp
|  1> !SC-NEVPT2 def2-TZVP def2-TZVP/C
|  2> !MOREAD RIJCOSX def2/J
|  3> %maxcore 4000
|  4> %moinp "casscf.gbw"
|  5> %pal nprocs 8 end 
|  6> 
|  7> %casscf
|  8>  mult 5,3
|  9>  bweight 1,1
| 10>  nroots 5,45
| 11>  nel 6
| 12>  norb 5
| 13>  ptsettings
| 14>   d4tpre 1e-14 # default = 1e-10
| 15>   d3tpre 1e-14
| 16>  end
| 17>  rel           
| 18>    dosoc true   
| 19>    gtensor true 
| 20>  end           
| 21> end
| 22> 
| 23> 
| 24> *xyzfile 0 5 pbe.xyz
| 25> 
| 26> 
| 27>                          ****END OF INPUT****
================================================================================

                       ****************************
                       * Single Point Calculation *
                       ****************************

---------------------------------
CARTESIAN COORDINATES (ANGSTROEM)
---------------------------------
  Au     5.568225   10.654325    6.908268
  Au     6.707828   10.017025   10.874113
  Au     9.771579    8.185229    7.450001
  Au     7.393595    7.085246    5.725351
  Au     9.599364    8.229084    4.693930
  Au     4.963516    7.957749    6.648424
  Au     8.154734   10.093442    6.121497
  Au     9.161243    9.121290    9.848369
  Au     7.689785   11.230085    8.595430
  Au     4.577492    9.247494    9.096527
  Au     6.083491    7.262682   10.377872
  Au     6.420726    5.980095    8.029376
  Cr     7.104557    8.593466    8.236307

----------------------------
CARTESIAN COORDINATES (A.U.)
----------------------------
  NO LB      ZA    FRAG     MASS         X           Y           Z
   0 Au   19.0000*   0   196.966   10.522421   20.133756   13.054734
   1 Au   19.0000*   0   196.966   12.675957   18.929433   20.549096
   2 Au   19.0000*   0   196.966   18.465607   15.467840   14.078462
   3 Au   19.0000*   0   196.966   13.971869   13.389175   10.819346
   4 Au   19.0000*   0   196.966   18.140169   15.550714    8.870243
   5 Au   19.0000*   0   196.966    9.379686   15.037966   12.563700
   6 Au   19.0000*   0   196.966   15.410214   19.073842   11.567952
   7 Au   19.0000*   0   196.966   17.312240   17.236739   18.610721
   8 Au   19.0000*   0   196.966   14.531588   21.221786   16.243009
   9 Au   19.0000*   0   196.966    8.650206   17.475231   17.189945
  10 Au   19.0000*   0   196.966   11.496132   13.724480   19.611336
  11 Au   19.0000*   0   196.966   12.133414   11.300742   15.173321
  12 Cr   24.0000    0    52.000   13.425668   16.239297   15.564365
* core charge reduced due to ECP

--------------------------------
INTERNAL COORDINATES (ANGSTROEM)
--------------------------------
 Au     0   0   0     0.000000000000     0.00000000     0.00000000
 Au     1   0   0     4.175257291820     0.00000000     0.00000000
 Au     1   2   0     4.904904568619    65.43992677     0.00000000
 Au     3   1   2     3.136747619611    57.73262568   126.15580976
 Au     4   3   1     2.690280571942    55.95276975   102.14133540
 Au     4   3   1     2.742007656329   112.03583411   330.49938300
 Au     5   4   3     2.756942847360    70.08488590   293.87522213
 Au     3   1   2     2.645919609223    73.99913512   349.12670638
 Au     2   1   3     2.761911267793    41.09177234    59.24240997
 Au     1   2   3     2.783739493536    43.39299040   115.17575583
 Au    10   1   2     2.801670038450   121.75138096   301.68824423
 Au    11  10   1     2.697070994998    90.33618312   305.33161810
 Cr     8   3   1     2.665951513301    63.88333934    29.71921495

---------------------------
INTERNAL COORDINATES (A.U.)
---------------------------
 Au     0   0   0     0.000000000000     0.00000000     0.00000000
 Au     1   0   0     7.890092820197     0.00000000     0.00000000
 Au     1   2   0     9.268926347709    65.43992677     0.00000000
 Au     3   1   2     5.927593952293    57.73262568   126.15580976
 Au     4   3   1     5.083893504380    55.95276975   102.14133540
 Au     4   3   1     5.181643527577   112.03583411   330.49938300
 Au     5   4   3     5.209866948383    70.08488590   293.87522213
 Au     3   1   2     5.000063433804    73.99913512   349.12670638
 Au     2   1   3     5.219255902319    41.09177234    59.24240997
 Au     1   2   3     5.260505270963    43.39299040   115.17575583
 Au    10   1   2     5.294389090283   121.75138096   301.68824423
 Au    11  10   1     5.096725544288    90.33618312   305.33161810
 Cr     8   3   1     5.037918246452    63.88333934    29.71921495

---------------------
BASIS SET INFORMATION
---------------------
There are 2 groups of distinct atoms

 Group   1 Type Au  : 8s7p6d1f contracted to 6s4p3d1f pattern {311111/4111/411/1}
 Group   2 Type Cr  : 17s11p7d1f contracted to 6s4p4d1f pattern {842111/6311/4111/1}

Atom   0Au   basis set group =>   1
Atom   1Au   basis set group =>   1
Atom   2Au   basis set group =>   1
Atom   3Au   basis set group =>   1
Atom   4Au   basis set group =>   1
Atom   5Au   basis set group =>   1
Atom   6Au   basis set group =>   1
Atom   7Au   basis set group =>   1
Atom   8Au   basis set group =>   1
Atom   9Au   basis set group =>   1
Atom  10Au   basis set group =>   1
Atom  11Au   basis set group =>   1
Atom  12Cr   basis set group =>   2
---------------------------------
AUXILIARY/J BASIS SET INFORMATION
---------------------------------
There are 2 groups of distinct atoms

 Group   1 Type Au  : 11s5p5d3f3g contracted to 8s5p5d2f3g pattern {41111111/11111/11111/21/111}
 Group   2 Type Cr  : 19s5p5d3f3g contracted to 8s5p5d2f3g pattern {121111111/11111/11111/21/111}

Atom   0Au   basis set group =>   1
Atom   1Au   basis set group =>   1
Atom   2Au   basis set group =>   1
Atom   3Au   basis set group =>   1
Atom   4Au   basis set group =>   1
Atom   5Au   basis set group =>   1
Atom   6Au   basis set group =>   1
Atom   7Au   basis set group =>   1
Atom   8Au   basis set group =>   1
Atom   9Au   basis set group =>   1
Atom  10Au   basis set group =>   1
Atom  11Au   basis set group =>   1
Atom  12Cr   basis set group =>   2
---------------------------------
AUXILIARY/C BASIS SET INFORMATION
---------------------------------
There are 2 groups of distinct atoms

 Group   1 Type Au  : 8s8p7d5f3g2h contracted to 8s8p7d5f3g2h pattern {11111111/11111111/1111111/11111/111/11}
 Group   2 Type Cr  : 11s9p8d6f5g2h contracted to 9s8p8d6f5g2h pattern {311111111/21111111/11111111/111111/11111/11}

Atom   0Au   basis set group =>   1
Atom   1Au   basis set group =>   1
Atom   2Au   basis set group =>   1
Atom   3Au   basis set group =>   1
Atom   4Au   basis set group =>   1
Atom   5Au   basis set group =>   1
Atom   6Au   basis set group =>   1
Atom   7Au   basis set group =>   1
Atom   8Au   basis set group =>   1
Atom   9Au   basis set group =>   1
Atom  10Au   basis set group =>   1
Atom  11Au   basis set group =>   1
Atom  12Cr   basis set group =>   2
-------------------------
ECP PARAMETER INFORMATION
-------------------------

 Group 1, Type Au ECP Def2-ECP (replacing 60 core electrons, lmax=3)

Atom   0Au   ECP group =>   1
Atom   1Au   ECP group =>   1
Atom   2Au   ECP group =>   1
Atom   3Au   ECP group =>   1
Atom   4Au   ECP group =>   1
Atom   5Au   ECP group =>   1
Atom   6Au   ECP group =>   1
Atom   7Au   ECP group =>   1
Atom   8Au   ECP group =>   1
Atom   9Au   ECP group =>   1
Atom  10Au   ECP group =>   1
Atom  11Au   ECP group =>   1



           ************************************************************
           *        Program running with 8 parallel MPI-processes     *
           *              working on a common directory               *
           ************************************************************
------------------------------------------------------------------------------
                           ORCA GTO INTEGRAL CALCULATION
                           -- RI-GTO INTEGRALS CHOSEN --
------------------------------------------------------------------------------
------------------------------------------------------------------------------
                   ___                                                        
                  /   \      - P O W E R E D   B Y -                         
                 /     \                                                     
                 |  |  |   _    _      __       _____    __    __             
                 |  |  |  | |  | |    /  \     |  _  \  |  |  /  |          
                  \  \/   | |  | |   /    \    | | | |  |  | /  /          
                 / \  \   | |__| |  /  /\  \   | |_| |  |  |/  /          
                |  |  |   |  __  | /  /__\  \  |    /   |      \           
                |  |  |   | |  | | |   __   |  |    \   |  |\   \          
                \     /   | |  | | |  |  |  |  | |\  \  |  | \   \       
                 \___/    |_|  |_| |__|  |__|  |_| \__\ |__|  \__/        
                                                                              
                      - O R C A' S   B I G   F R I E N D -                    
                                      &                                       
                       - I N T E G R A L  F E E D E R -                       
                                                                              
 v1 FN, 2020, v2 2021                                                         
------------------------------------------------------------------------------


Reading SHARK input file nevpt2.SHARKINP.tmp ... ok
----------------------
SHARK INTEGRAL PACKAGE
----------------------

Number of atoms                             ...     13
Number of basis functions                   ...    525
Number of shells                            ...    183
Maximum angular momentum                    ...      3
Integral batch strategy                     ... SHARK/LIBINT Hybrid
RI-J (if used) integral strategy            ... SPLIT-RIJ (Revised 2003 algorithm where possible)
Printlevel                                  ...      1
Contraction scheme used                     ... SEGMENTED contraction
Coulomb Range Separation                    ... NOT USED
Exchange Range Separation                   ... NOT USED
Finite Nucleus Model                        ... NOT USED
Auxiliary Coulomb fitting basis             ... AVAILABLE
   # of basis functions in Aux-J            ...   1157
   # of shells in Aux-J                     ...    299
   Maximum angular momentum in Aux-J        ...      4
Auxiliary J/K fitting basis                 ... NOT available
Auxiliary Correlation fitting basis         ... AVAILABLE
   # of basis functions in Aux-C            ...   1994
   # of shells in Aux-C                     ...    434
   Maximum angular momentum in Aux-C        ...      5
Auxiliary 'external' fitting basis          ... NOT available
Integral threshold                          ...     1.000000e-10
Primitive cut-off                           ...     1.000000e-11
Primitive pair pre-selection threshold      ...     1.000000e-11

Calculating pre-screening integrals         ... done (  0.1 sec) Dimension = 183
Organizing shell pair data                  ... done (  0.2 sec)
Shell pair information
Total number of shell pairs                 ...     16836
Shell pairs after pre-screening             ...     13637
Total number of primitive shell pairs       ...     45389
Primitive shell pairs kept                  ...     26876
          la=0 lb=0:   2131 shell pairs
          la=1 lb=0:   3092 shell pairs
          la=1 lb=1:   1183 shell pairs
          la=2 lb=0:   2699 shell pairs
          la=2 lb=1:   1910 shell pairs
          la=2 lb=2:    782 shell pairs
          la=3 lb=0:    736 shell pairs
          la=3 lb=1:    549 shell pairs
          la=3 lb=2:    475 shell pairs
          la=3 lb=3:     80 shell pairs

Calculating one electron integrals          ... done (  0.0 sec)
Calculating ECP integrals                   ... done (  6.3 sec)
Calculating RI/J V-Matrix + Cholesky decomp.... done (  0.0 sec)
Calculating RI/C V-Matrix + Cholesky decomp.... done (  0.1 sec)
Calculating Nuclear repulsion               ... done (  0.0 sec) ENN=   4288.291192137808 Eh

SHARK setup successfully completed in   7.0 seconds

Maximum memory used throughout the entire GTOINT-calculation: 35.3 MB


           ************************************************************
           *        Program running with 8 parallel MPI-processes     *
           *              working on a common directory               *
           ************************************************************
-------------------------------------------------------------------------------
                                 ORCA SCF
-------------------------------------------------------------------------------

------------
SCF SETTINGS
------------
Hamiltonian:
 Ab initio Hamiltonian  Method          .... Hartree-Fock(GTOs)
 RI-approximation to the Coulomb term is turned on
   Number of AuxJ basis functions       .... 1157
   RIJ-COSX (HFX calculated with COS-X)).... on


General Settings:
 Integral files         IntName         .... nevpt2
 Hartree-Fock type      HFTyp           .... CASSCF
 Total Charge           Charge          ....    0
 Multiplicity           Mult            ....    5
 Number of Electrons    NEL             ....  252
 Basis Dimension        Dim             ....  525
 Nuclear Repulsion      ENuc            ....   4288.2911921378 Eh


Diagonalization of the overlap matrix:
Smallest eigenvalue                        ... 1.626e-04
Time for diagonalization                   ...    0.061 sec
Threshold for overlap eigenvalues          ... 1.000e-08
Number of eigenvalues below threshold      ... 0
Time for construction of square roots      ...    0.033 sec
Total time needed                          ...    0.096 sec

---------------------
INITIAL GUESS: MOREAD
---------------------
Guess MOs are being read from file: casscf.gbw
Input Geometry matches current geometry (good)
Input basis set matches current basis set (good)
MOs were renormalized
Gram-Schmidt orthogonalization of all MOs with pivot on actives
                      ------------------
                      INITIAL GUESS DONE (   1.3 sec)
                      ------------------
--------------------
COSX GRID GENERATION
--------------------

GRIDX 1
-------
General Integration Accuracy     IntAcc      ... 3.816
Radial Grid Type                 RadialGrid  ... OptM3 with GC (2021)
Angular Grid (max. ang.)         AngularGrid ... 1 (Lebedev-50)
Angular grid pruning method      GridPruning ... 4 (adaptive)
Weight generation scheme         WeightScheme... Becke
Basis function cutoff            BFCut       ... 1.0000e-10
Integration weight cutoff        WCut        ... 1.0000e-14
Angular grids for H and He will be reduced by one unit
Partially contracted basis set               ... on
Rotationally invariant grid construction     ... off

Total number of grid points                  ...    15251
Total number of batches                      ...      246
Average number of points per batch           ...       61
Average number of grid points per atom       ...     1173
UseSFitting                                  ... on

GRIDX 2
-------
General Integration Accuracy     IntAcc      ... 4.020
Radial Grid Type                 RadialGrid  ... OptM3 with GC (2021)
Angular Grid (max. ang.)         AngularGrid ... 2 (Lebedev-110)
Angular grid pruning method      GridPruning ... 4 (adaptive)
Weight generation scheme         WeightScheme... Becke
Basis function cutoff            BFCut       ... 1.0000e-10
Integration weight cutoff        WCut        ... 1.0000e-14
Angular grids for H and He will be reduced by one unit
Partially contracted basis set               ... on
Rotationally invariant grid construction     ... off

Total number of grid points                  ...    46055
Total number of batches                      ...      725
Average number of points per batch           ...       63
Average number of grid points per atom       ...     3543
UseSFitting                                  ... on

GRIDX 3
-------
General Integration Accuracy     IntAcc      ... 4.338
Radial Grid Type                 RadialGrid  ... OptM3 with GC (2021)
Angular Grid (max. ang.)         AngularGrid ... 3 (Lebedev-194)
Angular grid pruning method      GridPruning ... 4 (adaptive)
Weight generation scheme         WeightScheme... Becke
Basis function cutoff            BFCut       ... 1.0000e-10
Integration weight cutoff        WCut        ... 1.0000e-14
Angular grids for H and He will be reduced by one unit
Partially contracted basis set               ... on
Rotationally invariant grid construction     ... off

Total number of grid points                  ...    84310
Total number of batches                      ...     1324
Average number of points per batch           ...       63
Average number of grid points per atom       ...     6485
UseSFitting                                  ... on

Time for X-Grid setup             =    0.953 sec



 ... the calculation is a CASSCF calculation -I'm leaving here GOOD LUCK!!!



           ************************************************************
           *        Program running with 8 parallel MPI-processes     *
           *              working on a common directory               *
           ************************************************************
-------------------------------------------------------------------------------
                              ORCA-CASSCF
-------------------------------------------------------------------------------

Setting up the integral package       ... done
Setting up the integral package (RI)  ... done
Building the CAS space                ... done (5 configurations for Mult=5)
Building the CAS space                ... done (35 configurations for Mult=3)

 CASSCF (estimated) memory needed     ... 113.4 MB
 NEVPT2 (estimated) memory needed     ... 373.7 MB


SYSTEM-SPECIFIC SETTINGS:
Number of active electrons          ...    6
Number of active orbitals           ...    5
Total number of electrons           ...  252
Total number of orbitals            ...  525
Total number aux. functions         ... 1994

Determined orbital ranges:
   Internal       0 -  122 ( 123 orbitals)
   Active       123 -  127 (   5 orbitals)
   External     128 -  524 ( 397 orbitals)
Number of rotation parameters      ...  51431

CI-STEP:
CI strategy                         ... General CI
Number of multiplicity blocks       ...    2
BLOCK  1 WEIGHT=   0.5000
  Multiplicity                      ...    5
  #(Configurations)                 ...    5
  #(CSFs)                           ...    5
  #(Roots)                          ...    5
    ROOT=0 WEIGHT=    0.100000
    ROOT=1 WEIGHT=    0.100000
    ROOT=2 WEIGHT=    0.100000
    ROOT=3 WEIGHT=    0.100000
    ROOT=4 WEIGHT=    0.100000

BLOCK  2 WEIGHT=   0.5000
  Multiplicity                      ...    3
  #(Configurations)                 ...   35
  #(CSFs)                           ...   45
  #(Roots)                          ...   45
    ROOT=0 WEIGHT=    0.011111
    ROOT=1 WEIGHT=    0.011111
    ROOT=2 WEIGHT=    0.011111
    ROOT=3 WEIGHT=    0.011111
    ROOT=4 WEIGHT=    0.011111
    ROOT=5 WEIGHT=    0.011111
    ROOT=6 WEIGHT=    0.011111
    ROOT=7 WEIGHT=    0.011111
    ROOT=8 WEIGHT=    0.011111
    ROOT=9 WEIGHT=    0.011111
    ROOT=10 WEIGHT=    0.011111
    ROOT=11 WEIGHT=    0.011111
    ROOT=12 WEIGHT=    0.011111
    ROOT=13 WEIGHT=    0.011111
    ROOT=14 WEIGHT=    0.011111
    ROOT=15 WEIGHT=    0.011111
    ROOT=16 WEIGHT=    0.011111
    ROOT=17 WEIGHT=    0.011111
    ROOT=18 WEIGHT=    0.011111
    ROOT=19 WEIGHT=    0.011111
    ROOT=20 WEIGHT=    0.011111
    ROOT=21 WEIGHT=    0.011111
    ROOT=22 WEIGHT=    0.011111
    ROOT=23 WEIGHT=    0.011111
    ROOT=24 WEIGHT=    0.011111
    ROOT=25 WEIGHT=    0.011111
    ROOT=26 WEIGHT=    0.011111
    ROOT=27 WEIGHT=    0.011111
    ROOT=28 WEIGHT=    0.011111
    ROOT=29 WEIGHT=    0.011111
    ROOT=30 WEIGHT=    0.011111
    ROOT=31 WEIGHT=    0.011111
    ROOT=32 WEIGHT=    0.011111
    ROOT=33 WEIGHT=    0.011111
    ROOT=34 WEIGHT=    0.011111
    ROOT=35 WEIGHT=    0.011111
    ROOT=36 WEIGHT=    0.011111
    ROOT=37 WEIGHT=    0.011111
    ROOT=38 WEIGHT=    0.011111
    ROOT=39 WEIGHT=    0.011111
    ROOT=40 WEIGHT=    0.011111
    ROOT=41 WEIGHT=    0.011111
    ROOT=42 WEIGHT=    0.011111
    ROOT=43 WEIGHT=    0.011111
    ROOT=44 WEIGHT=    0.011111

  PrintLevel                        ...    1
  N(GuessMat)                       ...       512
  MaxDim(CI)                        ...        10
  MaxIter(CI)                       ...        64
  Energy Tolerance CI               ...  1.00e-08
  Residual Tolerance CI             ...  1.00e-08
  Shift(CI)                         ...  1.00e-04

INTEGRAL-TRANSFORMATION-STEP:
  Algorithm                         ... RI-MO

ORBITAL-IMPROVEMENT-STEP:
  Algorithm                         ... SuperCI(PT)
  Default Parametrization           ... CAYLEY
  Act-Act rotations                 ... depends on algorithm used

  Note: SuperCI(PT) will ignore FreezeIE, FreezeAct and FreezeGrad. In general Default settings are encouraged.
        In conjunction with ShiftUp, ShiftDn or GradScaling the performance of SuperCI(PT) is less optimal.  

  MaxRot                            ... 2.00e-01 
  Max. no of vectors (DIIS)         ... 15
  DThresh (cut-off) metric          ... 1.00e-06
  Switch step at gradient           ...  3.00e-02 
  Switch step at iteration          ...        50   
  Switch step to                    ... SuperCI(PT)    

SCF-SETTINGS:
  Incremental                       ... off
  RIJCOSX approximation             ... on
  UseFinalGrid                      ... on
  RI-JK approximation               ... off
  AO integral handling              ... DIRECT
  Integral Neglect Thresh           ...  1.00e-10
  Primitive cutoff TCut             ...  1.00e-11
  Energy convergence tolerance      ...  1.00e-07
  Orbital gradient convergence      ...  1.00e-03
  Max. number of iterations         ...        75  

PT2-SETTINGS:
  A PT2 calculation will be performed on top of the CASSCF wave function (PT2 = SC-NEVPT2)   
 CI step strategy                   ... General CI
  D4C handling                      ... on the fly 
  CI truncation for D4C at          ...  1.00e-14
  CI truncation for D3  at          ...  1.00e-14
  Orbitals                          ... canonical for each state 
  Last  frozen  orbital             ... 4
  First deleted orbital             ... 525
  RI Step                           ... store IJV(array) (MC_ONDISK during integral transformation) 

PROPERTIES-SETTINGS:
  Spin orbit coupling               ... true
  GTensor                           ... true
  QDPT diagonal energies            ... NEVPT2 energies 

FINAL ORBITALS:
  Active   Orbitals                 ... natural 
  Internal Orbitals                 ... canonical 
  External Orbitals                 ... canonical 

------------------
CAS-SCF ITERATIONS
------------------


MACRO-ITERATION   1: 
   --- Inactive Energy E0 = -2652.27536696 Eh
CI-ITERATION   0: 
 -2660.978077041   0.000000000000 (    0.00)
 -2660.934779271   0.000000000000
 -2660.926002806   0.000000000000
 -2660.910988332   0.000000000000
 -2660.892534658   0.000000000000
   CI-PROBLEM SOLVED
   DENSITIES MADE
CI-ITERATION   0: 
 -2660.932136235   0.000000000000 (    0.00)
 -2660.927091889   0.000000000000
 -2660.920221479   0.000000000000
 -2660.911557315   0.000000000000
 -2660.907985222   0.000000000000
 -2660.905160089   0.000000000000
 -2660.903066094   0.000000000000
 -2660.897471396   0.000000000000
 -2660.895546046   0.000000000000
 -2660.892349855   0.000000000000
 -2660.890303423   0.000000000000
 -2660.885949738   0.000000000000
 -2660.884141020   0.000000000000
 -2660.883657818   0.000000000000
 -2660.882283063   0.000000000000
 -2660.879482307   0.000000000000
 -2660.872140141   0.000000000000
 -2660.869884044   0.000000000000
 -2660.868409206   0.000000000000
 -2660.863337655   0.000000000000
 -2660.859737086   0.000000000000
 -2660.854916173   0.000000000000
 -2660.854246556   0.000000000000
 -2660.851830918   0.000000000000
 -2660.845994054   0.000000000000
 -2660.843861774   0.000000000000
 -2660.840093977   0.000000000000
 -2660.831180113   0.000000000000
 -2660.827560306   0.000000000000
 -2660.824027422   0.000000000000
 -2660.817983054   0.000000000000
 -2660.814917000   0.000000000000
 -2660.803708819   0.000000000000
 -2660.800479152   0.000000000000
 -2660.795753146   0.000000000000
 -2660.764909776   0.000000000000
 -2660.748054962   0.000000000000
 -2660.737774735   0.000000000000
 -2660.714958843   0.000000000000
 -2660.544472843   0.000000000000
 -2660.524850690   0.000000000000
 -2660.498248423   0.000000000000
 -2660.473395054   0.000000000000
 -2660.463787746   0.000000000000
 -2660.428302747   0.000000000000
   CI-PROBLEM SOLVED
   DENSITIES MADE

                 <<<<<<<<<<<<<<<<<<INITIAL CI STATE CHECK>>>>>>>>>>>>>>>>>>

BLOCK  1 MULT= 5 NROOTS= 5 
ROOT   0:  E=   -2660.9780770407 Eh
      0.61922 [     3]: 12111
      0.24959 [     0]: 11112
      0.12413 [     1]: 11121
      0.00559 [     4]: 21111
ROOT   1:  E=   -2660.9347792707 Eh  1.178 eV   9502.8 cm**-1
      0.63660 [     1]: 11121
      0.20853 [     2]: 11211
      0.15358 [     3]: 12111
ROOT   2:  E=   -2660.9260028061 Eh  1.417 eV  11429.0 cm**-1
      0.71398 [     2]: 11211
      0.22798 [     1]: 11121
      0.05399 [     0]: 11112
      0.00313 [     4]: 21111
ROOT   3:  E=   -2660.9109883324 Eh  1.826 eV  14724.3 cm**-1
      0.66649 [     0]: 11112
      0.19529 [     3]: 12111
      0.07596 [     2]: 11211
      0.05393 [     4]: 21111
      0.00834 [     1]: 11121
ROOT   4:  E=   -2660.8925346579 Eh  2.328 eV  18774.4 cm**-1
      0.93661 [     4]: 21111
      0.03099 [     3]: 12111
      0.02938 [     0]: 11112
      0.00296 [     1]: 11121

BLOCK  2 MULT= 3 NROOTS=45 
ROOT   0:  E=   -2660.9321362350 Eh
      0.23075 [    11]: 11121
      0.11196 [    13]: 11211
      0.09331 [    19]: 12120
      0.07741 [    10]: 11112
      0.06640 [     6]: 10122
      0.06146 [     5]: 02211
      0.05856 [     7]: 10212
      0.05693 [     4]: 02121
      0.05535 [    21]: 12210
      0.04314 [    18]: 12111
      0.02526 [     1]: 01212
      0.02126 [     8]: 10221
      0.01772 [    20]: 12201
      0.01563 [     3]: 02112
      0.01356 [     0]: 01122
      0.01182 [     2]: 01221
      0.00848 [    17]: 12102
      0.00709 [    14]: 11220
      0.00669 [    33]: 22101
      0.00526 [    12]: 11202
      0.00266 [    27]: 21102
ROOT   1:  E=   -2660.9270918893 Eh  0.137 eV   1107.1 cm**-1
      0.17988 [    11]: 11121
      0.11717 [     5]: 02211
      0.10704 [    21]: 12210
      0.10614 [    13]: 11211
      0.10498 [     6]: 10122
      0.05510 [     7]: 10212
      0.05467 [    19]: 12120
      0.04055 [     1]: 01212
      0.03933 [     8]: 10221
      0.02922 [    14]: 11220
      0.02779 [    18]: 12111
      0.02724 [     4]: 02121
      0.02647 [    20]: 12201
      0.02104 [     2]: 01221
      0.01306 [    10]: 11112
      0.01116 [     0]: 01122
      0.00791 [    12]: 11202
      0.00491 [    17]: 12102
      0.00373 [    29]: 21120
      0.00362 [    34]: 22110
      0.00360 [     3]: 02112
      0.00311 [    16]: 12021
      0.00292 [    32]: 22011
ROOT   2:  E=   -2660.9202214791 Eh  0.324 eV   2615.0 cm**-1
      0.21694 [    17]: 12102
      0.19827 [    18]: 12111
      0.15387 [    20]: 12201
      0.12360 [    13]: 11211
      0.04943 [    12]: 11202
      0.04581 [    10]: 11112
      0.03468 [     7]: 10212
      0.02258 [    11]: 11121
      0.02208 [    28]: 21111
      0.02169 [     8]: 10221
      0.02149 [     3]: 02112
      0.01844 [    19]: 12120
      0.01422 [    15]: 12012
      0.01418 [    34]: 22110
      0.00722 [    21]: 12210
      0.00688 [    33]: 22101
      0.00442 [     1]: 01212
      0.00294 [    29]: 21120
      0.00275 [     2]: 01221
      0.00259 [    30]: 21201
ROOT   3:  E=   -2660.9115573149 Eh  0.560 eV   4516.6 cm**-1
      0.38618 [    10]: 11112
      0.19834 [     3]: 02112
      0.09526 [     6]: 10122
      0.06090 [    34]: 22110
      0.04414 [    20]: 12201
      0.01958 [    18]: 12111
      0.01952 [     0]: 01122
      0.01739 [    12]: 11202
      0.01616 [    15]: 12012
      0.01387 [    33]: 22101
      0.01237 [    28]: 21111
      0.01206 [    17]: 12102
      0.01085 [    29]: 21120
      0.01014 [    21]: 12210
      0.01006 [    32]: 22011
      0.00998 [     5]: 02211
      0.00995 [     1]: 01212
      0.00870 [     7]: 10212
      0.00716 [    11]: 11121
      0.00647 [     9]: 11022
      0.00479 [    13]: 11211
      0.00419 [    19]: 12120
      0.00408 [    25]: 21012
      0.00312 [    22]: 20112
      0.00282 [    16]: 12021
      0.00281 [    27]: 21102
      0.00265 [    26]: 21021
      0.00254 [     4]: 02121
ROOT   4:  E=   -2660.9079852222 Eh  0.657 eV   5300.5 cm**-1
      0.24824 [    18]: 12111
      0.13999 [    21]: 12210
      0.11795 [    17]: 12102
      0.10241 [    13]: 11211
      0.06297 [    10]: 11112
      0.05199 [    11]: 11121
      0.04055 [    15]: 12012
      0.03550 [    14]: 11220
      0.03008 [    33]: 22101
      0.02469 [    20]: 12201
      0.02296 [    34]: 22110
      0.02119 [    28]: 21111
      0.01330 [     7]: 10212
      0.01278 [    32]: 22011
      0.00977 [     8]: 10221
      0.00954 [    31]: 21210
      0.00903 [     6]: 10122
      0.00717 [    12]: 11202
      0.00461 [    16]: 12021
      0.00447 [     3]: 02112
      0.00412 [    25]: 21012
      0.00406 [     0]: 01122
      0.00402 [     9]: 11022
      0.00361 [     4]: 02121
      0.00337 [    29]: 21120
      0.00336 [    27]: 21102
ROOT   5:  E=   -2660.9051600887 Eh  0.734 eV   5920.6 cm**-1
      0.19224 [    28]: 21111
      0.19025 [    18]: 12111
      0.13745 [    10]: 11112
      0.11872 [    22]: 20112
      0.07052 [    23]: 20121
      0.04033 [    19]: 12120
      0.03679 [    32]: 22011
      0.02967 [    11]: 11121
      0.02214 [    25]: 21012
      0.01879 [    13]: 11211
      0.01634 [    21]: 12210
      0.01570 [    20]: 12201
      0.01526 [    15]: 12012
      0.01440 [    14]: 11220
      0.01408 [     4]: 02121
      0.01341 [     3]: 02112
      0.01304 [    16]: 12021
      0.01201 [    26]: 21021
      0.00806 [    12]: 11202
      0.00560 [    29]: 21120
      0.00359 [     9]: 11022
ROOT   6:  E=   -2660.9030660944 Eh  0.791 eV   6380.2 cm**-1
      0.44398 [    18]: 12111
      0.11555 [    11]: 11121
      0.08196 [     5]: 02211
      0.08131 [    10]: 11112
      0.03284 [    13]: 11211
      0.03167 [     1]: 01212
      0.02763 [    16]: 12021
      0.02695 [     9]: 11022
      0.02670 [     7]: 10212
      0.02064 [     8]: 10221
      0.01866 [    20]: 12201
      0.01287 [     4]: 02121
      0.01155 [     6]: 10122
      0.01020 [    32]: 22011
      0.00985 [    15]: 12012
      0.00827 [    17]: 12102
      0.00716 [    28]: 21111
      0.00674 [    21]: 12210
      0.00578 [    34]: 22110
      0.00407 [    25]: 21012
      0.00309 [    23]: 20121
ROOT   7:  E=   -2660.8974713958 Eh  0.943 eV   7608.1 cm**-1
      0.44604 [     2]: 01221
      0.09311 [    19]: 12120
      0.07369 [     5]: 02211
      0.06278 [     0]: 01122
      0.03812 [    14]: 11220
      0.02946 [    20]: 12201
      0.02934 [    11]: 11121
      0.02903 [    29]: 21120
      0.02437 [    18]: 12111
      0.02330 [    28]: 21111
      0.01737 [    26]: 21021
      0.01593 [    10]: 11112
      0.01495 [    13]: 11211
      0.01190 [    32]: 22011
      0.01187 [    12]: 11202
      0.01166 [    17]: 12102
      0.00769 [    33]: 22101
      0.00717 [    21]: 12210
      0.00710 [     4]: 02121
      0.00686 [    16]: 12021
      0.00635 [     3]: 02112
      0.00622 [     8]: 10221
      0.00526 [     6]: 10122
      0.00409 [    30]: 21201
      0.00373 [    27]: 21102
      0.00353 [    22]: 20112
      0.00322 [    34]: 22110
      0.00292 [     9]: 11022
ROOT   8:  E=   -2660.8955460463 Eh  0.996 eV   8030.6 cm**-1
      0.23806 [     2]: 01221
      0.11151 [    20]: 12201
      0.10332 [    19]: 12120
      0.08308 [    17]: 12102
      0.05829 [    12]: 11202
      0.05345 [    18]: 12111
      0.04900 [    10]: 11112
      0.04334 [    32]: 22011
      0.04044 [    28]: 21111
      0.02453 [    33]: 22101
      0.02176 [    25]: 21012
      0.01571 [    13]: 11211
      0.01536 [     1]: 01212
      0.01508 [    16]: 12021
      0.01506 [    34]: 22110
      0.01342 [     0]: 01122
      0.01305 [     7]: 10212
      0.01255 [    26]: 21021
      0.01254 [    30]: 21201
      0.01150 [    27]: 21102
      0.01147 [    11]: 11121
      0.00944 [     8]: 10221
      0.00514 [     3]: 02112
      0.00447 [    21]: 12210
      0.00444 [    22]: 20112
      0.00280 [    15]: 12012
ROOT   9:  E=   -2660.8923498546 Eh  1.083 eV   8732.1 cm**-1
      0.17757 [    18]: 12111
      0.10291 [     5]: 02211
      0.09930 [    11]: 11121
      0.07136 [    13]: 11211
      0.06729 [    19]: 12120
      0.06587 [    17]: 12102
      0.04976 [    29]: 21120
      0.04842 [    32]: 22011
      0.04608 [    34]: 22110
      0.03952 [    10]: 11112
      0.03903 [     7]: 10212
      0.03720 [    33]: 22101
      0.02960 [    27]: 21102
      0.02180 [    25]: 21012
      0.01597 [     1]: 01212
      0.01353 [    15]: 12012
      0.01292 [    26]: 21021
      0.00864 [    14]: 11220
      0.00741 [     2]: 01221
      0.00703 [    28]: 21111
      0.00550 [     8]: 10221
      0.00540 [    16]: 12021
      0.00497 [     0]: 01122
      0.00429 [    31]: 21210
      0.00341 [    20]: 12201
      0.00284 [     3]: 02112
      0.00275 [    21]: 12210
      0.00262 [    24]: 20211
      0.00260 [    12]: 11202
ROOT  10:  E=   -2660.8903034228 Eh  1.138 eV   9181.2 cm**-1
      0.22251 [     4]: 02121
      0.10240 [    18]: 12111
      0.09903 [    33]: 22101
      0.09276 [    11]: 11121
      0.05448 [     1]: 01212
      0.05426 [    21]: 12210
      0.03785 [    19]: 12120
      0.03617 [    27]: 21102
      0.03172 [     8]: 10221
      0.03170 [    28]: 21111
      0.03140 [    13]: 11211
      0.02884 [     3]: 02112
      0.02582 [    14]: 11220
      0.02424 [     6]: 10122
      0.02386 [    10]: 11112
      0.01788 [    15]: 12012
      0.01484 [     0]: 01122
      0.01462 [     5]: 02211
      0.01328 [    17]: 12102
      0.01209 [     2]: 01221
      0.00766 [    34]: 22110
      0.00575 [    31]: 21210
      0.00432 [    16]: 12021
      0.00379 [     7]: 10212
      0.00330 [    30]: 21201
ROOT  11:  E=   -2660.8859497379 Eh  1.257 eV  10136.8 cm**-1
      0.21125 [    14]: 11220
      0.09650 [    11]: 11121
      0.07392 [     1]: 01212
      0.06385 [     0]: 01122
      0.06254 [    18]: 12111
      0.06033 [    34]: 22110
      0.04678 [    15]: 12012
      0.04411 [     5]: 02211
      0.04220 [    12]: 11202
      0.04192 [    10]: 11112
      0.03281 [     8]: 10221
      0.03081 [     3]: 02112
      0.02911 [    27]: 21102
      0.02616 [    33]: 22101
      0.02515 [     9]: 11022
      0.02276 [    28]: 21111
      0.01765 [     6]: 10122
      0.01669 [    21]: 12210
      0.01155 [    13]: 11211
      0.00876 [     2]: 01221
      0.00814 [    23]: 20121
      0.00736 [    16]: 12021
      0.00722 [    20]: 12201
      0.00289 [    30]: 21201
      0.00284 [    25]: 21012
ROOT  12:  E=   -2660.8841410200 Eh  1.306 eV  10533.7 cm**-1
      0.10876 [    28]: 21111
      0.10591 [    18]: 12111
      0.10393 [    11]: 11121
      0.08351 [    10]: 11112
      0.07598 [    34]: 22110
      0.07586 [    13]: 11211
      0.07332 [    15]: 12012
      0.06318 [    22]: 20112
      0.05885 [    17]: 12102
      0.04311 [     0]: 01122
      0.04002 [    20]: 12201
      0.01962 [    16]: 12021
      0.01882 [     7]: 10212
      0.01881 [    29]: 21120
      0.01589 [    23]: 20121
      0.01517 [     5]: 02211
      0.01463 [    21]: 12210
      0.01339 [     6]: 10122
      0.01276 [    19]: 12120
      0.00746 [    14]: 11220
      0.00566 [     3]: 02112
      0.00490 [    27]: 21102
      0.00408 [    24]: 20211
      0.00370 [    32]: 22011
      0.00354 [    30]: 21201
      0.00330 [     9]: 11022
ROOT  13:  E=   -2660.8836578180 Eh  1.319 eV  10639.8 cm**-1
      0.22094 [     1]: 01212
      0.12588 [    11]: 11121
      0.09410 [    13]: 11211
      0.06710 [     8]: 10221
      0.06672 [     0]: 01122
      0.06348 [    14]: 11220
      0.06184 [     4]: 02121
      0.05478 [     5]: 02211
      0.04765 [    10]: 11112
      0.03205 [    31]: 21210
      0.02386 [    18]: 12111
      0.02259 [    19]: 12120
      0.02092 [     3]: 02112
      0.02019 [    12]: 11202
      0.00983 [    24]: 20211
      0.00716 [     6]: 10122
      0.00703 [    23]: 20121
      0.00653 [    15]: 12012
      0.00650 [    22]: 20112
      0.00571 [    16]: 12021
      0.00524 [    28]: 21111
      0.00488 [    29]: 21120
      0.00443 [    20]: 12201
      0.00422 [    34]: 22110
      0.00408 [    26]: 21021
      0.00311 [    17]: 12102
      0.00300 [    33]: 22101
ROOT  14:  E=   -2660.8822830633 Eh  1.357 eV  10941.5 cm**-1
      0.11945 [    18]: 12111
      0.10663 [    11]: 11121
      0.10399 [    10]: 11112
      0.09749 [     3]: 02112
      0.08283 [    13]: 11211
      0.08175 [    33]: 22101
      0.06255 [    16]: 12021
      0.05835 [    28]: 21111
      0.05818 [    34]: 22110
      0.04195 [     0]: 01122
      0.03861 [    21]: 12210
      0.03213 [    27]: 21102
      0.01468 [     6]: 10122
      0.01281 [     1]: 01212
      0.01256 [    19]: 12120
      0.01228 [    20]: 12201
      0.00900 [    31]: 21210
      0.00701 [    23]: 20121
      0.00694 [     9]: 11022
      0.00666 [     7]: 10212
      0.00524 [    22]: 20112
      0.00505 [    32]: 22011
      0.00470 [    17]: 12102
      0.00422 [     8]: 10221
      0.00389 [     5]: 02211
      0.00318 [    12]: 11202
      0.00298 [     4]: 02121
ROOT  15:  E=   -2660.8794823073 Eh  1.433 eV  11556.2 cm**-1
      0.15578 [    11]: 11121
      0.13601 [     1]: 01212
      0.11866 [     5]: 02211
      0.09622 [    21]: 12210
      0.08268 [    29]: 21120
      0.07102 [     2]: 01221
      0.05316 [    12]: 11202
      0.03113 [     6]: 10122
      0.02572 [    17]: 12102
      0.02314 [    33]: 22101
      0.02274 [    10]: 11112
      0.02242 [    14]: 11220
      0.02185 [    18]: 12111
      0.01675 [    23]: 20121
      0.01407 [     8]: 10221
      0.01331 [     9]: 11022
      0.01249 [     7]: 10212
      0.01220 [     3]: 02112
      0.01131 [    27]: 21102
      0.00995 [    16]: 12021
      0.00652 [    31]: 21210
      0.00646 [    13]: 11211
      0.00606 [    34]: 22110
      0.00567 [    20]: 12201
      0.00490 [    32]: 22011
      0.00424 [    19]: 12120
      0.00385 [     0]: 01122
      0.00318 [    28]: 21111
      0.00264 [    15]: 12012
ROOT  16:  E=   -2660.8721401412 Eh  1.633 eV  13167.6 cm**-1
      0.28103 [    13]: 11211
      0.15956 [    11]: 11121
      0.06637 [     7]: 10212
      0.05499 [    10]: 11112
      0.05122 [    21]: 12210
      0.04724 [    14]: 11220
      0.04719 [     1]: 01212
      0.02581 [    20]: 12201
      0.02469 [    18]: 12111
      0.02469 [     5]: 02211
      0.02301 [     4]: 02121
      0.02007 [     0]: 01122
      0.01939 [     6]: 10122
      0.01812 [    33]: 22101
      0.01789 [    23]: 20121
      0.01730 [    28]: 21111
      0.01439 [    22]: 20112
      0.01349 [    16]: 12021
      0.01313 [    34]: 22110
      0.01226 [     9]: 11022
      0.01028 [    12]: 11202
      0.00953 [    26]: 21021
      0.00709 [    25]: 21012
      0.00613 [    32]: 22011
      0.00531 [    27]: 21102
      0.00370 [     3]: 02112
      0.00262 [    30]: 21201
ROOT  17:  E=   -2660.8698840439 Eh  1.694 eV  13662.8 cm**-1
      0.17351 [    10]: 11112
      0.17041 [    18]: 12111
      0.12904 [    13]: 11211
      0.10420 [    34]: 22110
      0.06061 [    21]: 12210
      0.05766 [    28]: 21111
      0.05228 [    15]: 12012
      0.04213 [    29]: 21120
      0.03726 [    22]: 20112
      0.03154 [    11]: 11121
      0.02613 [    33]: 22101
      0.01692 [    23]: 20121
      0.01565 [    16]: 12021
      0.01402 [    27]: 21102
      0.01291 [     8]: 10221
      0.01246 [     0]: 01122
      0.00951 [     5]: 02211
      0.00623 [     4]: 02121
      0.00615 [    19]: 12120
      0.00310 [    25]: 21012
      0.00282 [    20]: 12201
      0.00275 [     1]: 01212
      0.00260 [     9]: 11022
ROOT  18:  E=   -2660.8684092060 Eh  1.734 eV  13986.5 cm**-1
      0.38108 [    13]: 11211
      0.09091 [    18]: 12111
      0.06408 [    14]: 11220
      0.06199 [     5]: 02211
      0.05909 [    28]: 21111
      0.05279 [    10]: 11112
      0.04189 [    19]: 12120
      0.03800 [    11]: 11121
      0.03494 [    15]: 12012
      0.02993 [    26]: 21021
      0.02958 [     7]: 10212
      0.01947 [     8]: 10221
      0.01236 [    27]: 21102
      0.01223 [    16]: 12021
      0.00943 [     9]: 11022
      0.00900 [     4]: 02121
      0.00867 [    33]: 22101
      0.00848 [     3]: 02112
      0.00799 [    34]: 22110
      0.00662 [    21]: 12210
      0.00625 [    22]: 20112
      0.00407 [     2]: 01221
      0.00347 [    12]: 11202
ROOT  19:  E=   -2660.8633376551 Eh  1.872 eV  15099.5 cm**-1
      0.22478 [     3]: 02112
      0.12006 [     0]: 01122
      0.08308 [     1]: 01212
      0.07433 [    29]: 21120
      0.07084 [    10]: 11112
      0.06040 [    18]: 12111
      0.05121 [     2]: 01221
      0.04940 [    14]: 11220
      0.04166 [    21]: 12210
      0.03251 [    28]: 21111
      0.03091 [    19]: 12120
      0.02193 [    23]: 20121
      0.01754 [    20]: 12201
      0.01615 [    32]: 22011
      0.01284 [     6]: 10122
      0.01274 [     9]: 11022
      0.01224 [    16]: 12021
      0.01128 [    17]: 12102
      0.01126 [    27]: 21102
      0.00664 [    30]: 21201
      0.00641 [    11]: 11121
      0.00465 [     7]: 10212
      0.00423 [     5]: 02211
      0.00386 [    33]: 22101
      0.00369 [    24]: 20211
      0.00332 [     8]: 10221
      0.00316 [    22]: 20112
ROOT  20:  E=   -2660.8597370863 Eh  1.970 eV  15889.8 cm**-1
      0.14418 [    13]: 11211
      0.13682 [     4]: 02121
      0.09025 [     3]: 02112
      0.06439 [     8]: 10221
      0.06308 [    11]: 11121
      0.06005 [     1]: 01212
      0.04853 [    32]: 22011
      0.04200 [    20]: 12201
      0.04103 [     5]: 02211
      0.03935 [    29]: 21120
      0.03421 [    25]: 21012
      0.03394 [    34]: 22110
      0.03025 [     0]: 01122
      0.02803 [    16]: 12021
      0.02387 [    15]: 12012
      0.01824 [    17]: 12102
      0.01772 [    14]: 11220
      0.01511 [    28]: 21111
      0.01491 [    10]: 11112
      0.01430 [    18]: 12111
      0.01156 [     6]: 10122
      0.00898 [    23]: 20121
      0.00718 [     2]: 01221
      0.00338 [     9]: 11022
      0.00317 [    12]: 11202
ROOT  21:  E=   -2660.8549161734 Eh  2.101 eV  16947.8 cm**-1
      0.13162 [    11]: 11121
      0.10018 [    17]: 12102
      0.07952 [     3]: 02112
      0.07746 [    18]: 12111
      0.06931 [    28]: 21111
      0.06400 [    19]: 12120
      0.06370 [    33]: 22101
      0.05971 [    13]: 11211
      0.05226 [     0]: 01122
      0.03076 [    10]: 11112
      0.03063 [    34]: 22110
      0.03009 [    27]: 21102
      0.02874 [    26]: 21021
      0.02810 [     7]: 10212
      0.02453 [    31]: 21210
      0.02080 [    20]: 12201
      0.02043 [    29]: 21120
      0.01231 [     4]: 02121
      0.01200 [    24]: 20211
      0.01167 [    16]: 12021
      0.00950 [    12]: 11202
      0.00821 [     8]: 10221
      0.00728 [     9]: 11022
      0.00444 [    32]: 22011
      0.00347 [    22]: 20112
      0.00331 [    15]: 12012
      0.00325 [     1]: 01212
      0.00284 [     2]: 01221
ROOT  22:  E=   -2660.8542465561 Eh  2.119 eV  17094.8 cm**-1
      0.15052 [    10]: 11112
      0.13519 [    28]: 21111
      0.09496 [    18]: 12111
      0.08068 [    11]: 11121
      0.06526 [    31]: 21210
      0.04943 [    24]: 20211
      0.03911 [    19]: 12120
      0.03538 [    33]: 22101
      0.03264 [    12]: 11202
      0.03126 [    34]: 22110
      0.03072 [     3]: 02112
      0.03072 [    22]: 20112
      0.03056 [    29]: 21120
      0.02806 [    14]: 11220
      0.02640 [     4]: 02121
      0.02491 [     6]: 10122
      0.02482 [    30]: 21201
      0.01832 [    13]: 11211
      0.01770 [    23]: 20121
      0.01147 [     5]: 02211
      0.00748 [    26]: 21021
      0.00684 [    32]: 22011
      0.00472 [     8]: 10221
      0.00464 [    21]: 12210
      0.00410 [     0]: 01122
      0.00367 [     9]: 11022
      0.00325 [    20]: 12201
      0.00277 [    27]: 21102
ROOT  23:  E=   -2660.8518309178 Eh  2.185 eV  17625.0 cm**-1
      0.19377 [    10]: 11112
      0.12324 [    28]: 21111
      0.10297 [    12]: 11202
      0.06246 [    20]: 12201
      0.05361 [    18]: 12111
      0.05227 [    27]: 21102
      0.04168 [    11]: 11121
      0.03691 [    25]: 21012
      0.03327 [    22]: 20112
      0.03194 [    13]: 11211
      0.03076 [    31]: 21210
      0.02995 [    33]: 22101
      0.02959 [     4]: 02121
      0.02538 [    21]: 12210
      0.02353 [    17]: 12102
      0.02239 [    34]: 22110
      0.02237 [     0]: 01122
      0.01514 [    24]: 20211
      0.01329 [    32]: 22011
      0.01259 [    29]: 21120
      0.00875 [    16]: 12021
      0.00851 [    14]: 11220
      0.00588 [    23]: 20121
      0.00565 [    19]: 12120
      0.00450 [    26]: 21021
      0.00260 [    30]: 21201
ROOT  24:  E=   -2660.8459940539 Eh  2.344 eV  18906.0 cm**-1
      0.14091 [    12]: 11202
      0.10599 [    13]: 11211
      0.07700 [     9]: 11022
      0.07054 [    11]: 11121
      0.06107 [    34]: 22110
      0.05118 [    28]: 21111
      0.04695 [    30]: 21201
      0.04633 [    18]: 12111
      0.04496 [    10]: 11112
      0.04058 [    17]: 12102
      0.03619 [    19]: 12120
      0.03087 [     4]: 02121
      0.02857 [    31]: 21210
      0.02578 [     5]: 02211
      0.02540 [    33]: 22101
      0.02163 [     0]: 01122
      0.02115 [    29]: 21120
      0.01995 [     7]: 10212
      0.01983 [    16]: 12021
      0.01517 [    26]: 21021
      0.01501 [    32]: 22011
      0.01432 [    15]: 12012
      0.01047 [    25]: 21012
      0.00680 [     3]: 02112
      0.00614 [    20]: 12201
      0.00611 [     8]: 10221
      0.00293 [     6]: 10122
ROOT  25:  E=   -2660.8438617739 Eh  2.402 eV  19374.0 cm**-1
      0.23186 [    11]: 11121
      0.18592 [    28]: 21111
      0.07251 [    12]: 11202
      0.06487 [    20]: 12201
      0.04920 [    13]: 11211
      0.04271 [     9]: 11022
      0.04155 [     5]: 02211
      0.03511 [     4]: 02121
      0.03274 [    19]: 12120
      0.03138 [    10]: 11112
      0.02667 [    31]: 21210
      0.02330 [    23]: 20121
      0.02170 [    29]: 21120
      0.02168 [    34]: 22110
      0.01931 [     1]: 01212
      0.01361 [    18]: 12111
      0.01190 [    24]: 20211
      0.00986 [    33]: 22101
      0.00859 [     2]: 01221
      0.00853 [     8]: 10221
      0.00804 [    21]: 12210
      0.00801 [     0]: 01122
      0.00695 [     6]: 10122
      0.00628 [    32]: 22011
      0.00563 [    22]: 20112
      0.00510 [    15]: 12012
      0.00302 [    30]: 21201
ROOT  26:  E=   -2660.8400939768 Eh  2.505 eV  20200.9 cm**-1
      0.17028 [     0]: 01122
      0.15173 [    28]: 21111
      0.10532 [     4]: 02121
      0.08705 [    17]: 12102
      0.06690 [    11]: 11121
      0.05013 [    33]: 22101
      0.04867 [    13]: 11211
      0.03352 [    16]: 12021
      0.03135 [    27]: 21102
      0.03097 [     9]: 11022
      0.02981 [    20]: 12201
      0.02943 [    10]: 11112
      0.02938 [    19]: 12120
      0.02868 [    18]: 12111
      0.02218 [     6]: 10122
      0.01584 [    23]: 20121
      0.01301 [     1]: 01212
      0.00859 [    26]: 21021
      0.00816 [     2]: 01221
      0.00628 [    34]: 22110
      0.00504 [     7]: 10212
      0.00473 [    14]: 11220
      0.00464 [    21]: 12210
      0.00375 [    22]: 20112
      0.00345 [     5]: 02211
      0.00282 [    12]: 11202
      0.00277 [     3]: 02112
      0.00271 [    25]: 21012
ROOT  27:  E=   -2660.8311801134 Eh  2.747 eV  22157.3 cm**-1
      0.20263 [    30]: 21201
      0.16448 [    10]: 11112
      0.07018 [     9]: 11022
      0.06550 [    26]: 21021
      0.06503 [    13]: 11211
      0.06229 [    18]: 12111
      0.05745 [    33]: 22101
      0.05372 [    28]: 21111
      0.04451 [    27]: 21102
      0.03583 [    16]: 12021
      0.03419 [    12]: 11202
      0.01695 [    11]: 11121
      0.01548 [     7]: 10212
      0.01384 [    24]: 20211
      0.01321 [    23]: 20121
      0.01186 [     3]: 02112
      0.01144 [    32]: 22011
      0.01143 [     1]: 01212
      0.00956 [    31]: 21210
      0.00715 [    29]: 21120
      0.00438 [    19]: 12120
      0.00402 [    15]: 12012
      0.00385 [    22]: 20112
      0.00324 [    34]: 22110
      0.00317 [     6]: 10122
      0.00311 [    21]: 12210
      0.00290 [     8]: 10221
      0.00259 [     0]: 01122
ROOT  28:  E=   -2660.8275603062 Eh  2.846 eV  22951.8 cm**-1
      0.16283 [    10]: 11112
      0.09443 [    11]: 11121
      0.08724 [    29]: 21120
      0.08024 [    26]: 21021
      0.07570 [    18]: 12111
      0.06930 [    28]: 21111
      0.05655 [    23]: 20121
      0.05423 [    33]: 22101
      0.05056 [    32]: 22011
      0.04645 [    27]: 21102
      0.04083 [     6]: 10122
      0.02569 [     1]: 01212
      0.02098 [    31]: 21210
      0.01796 [     0]: 01122
      0.01424 [    13]: 11211
      0.01370 [     9]: 11022
      0.01310 [    14]: 11220
      0.01301 [    19]: 12120
      0.01252 [    16]: 12021
      0.00812 [    24]: 20211
      0.00772 [    20]: 12201
      0.00529 [    12]: 11202
      0.00450 [     3]: 02112
      0.00444 [     7]: 10212
      0.00421 [    15]: 12012
      0.00388 [    22]: 20112
      0.00281 [     5]: 02211
      0.00262 [     4]: 02121
ROOT  29:  E=   -2660.8240274222 Eh  2.942 eV  23727.1 cm**-1
      0.19982 [    26]: 21021
      0.17523 [    10]: 11112
      0.13646 [    30]: 21201
      0.10866 [    13]: 11211
      0.07554 [    31]: 21210
      0.07466 [    18]: 12111
      0.04330 [     4]: 02121
      0.03652 [    25]: 21012
      0.02214 [     0]: 01122
      0.02150 [     1]: 01212
      0.02110 [    20]: 12201
      0.01600 [     7]: 10212
      0.01471 [    11]: 11121
      0.00970 [    12]: 11202
      0.00890 [    33]: 22101
      0.00825 [    15]: 12012
      0.00650 [    16]: 12021
      0.00339 [    28]: 21111
      0.00317 [     6]: 10122
      0.00292 [    27]: 21102
      0.00258 [     2]: 01221
ROOT  30:  E=   -2660.8179830537 Eh  3.106 eV  25053.7 cm**-1
      0.20578 [    28]: 21111
      0.13803 [    31]: 21210
      0.12159 [    25]: 21012
      0.05879 [    27]: 21102
      0.05724 [    10]: 11112
      0.05338 [    22]: 20112
      0.04562 [    16]: 12021
      0.04349 [    24]: 20211
      0.03861 [    34]: 22110
      0.03087 [    19]: 12120
      0.02759 [    11]: 11121
      0.02712 [    18]: 12111
      0.02495 [    23]: 20121
      0.02220 [    32]: 22011
      0.02153 [    33]: 22101
      0.01860 [     4]: 02121
      0.01151 [     9]: 11022
      0.00905 [    15]: 12012
      0.00899 [     0]: 01122
      0.00860 [    17]: 12102
      0.00616 [    13]: 11211
      0.00540 [    21]: 12210
      0.00333 [    30]: 21201
ROOT  31:  E=   -2660.8149170001 Eh  3.190 eV  25726.6 cm**-1
      0.29774 [    28]: 21111
      0.09025 [    32]: 22011
      0.07997 [    25]: 21012
      0.07901 [    24]: 20211
      0.07496 [    31]: 21210
      0.07321 [    27]: 21102
      0.06020 [    29]: 21120
      0.03419 [    18]: 12111
      0.02717 [    30]: 21201
      0.02331 [    11]: 11121
      0.02107 [    20]: 12201
      0.02107 [    16]: 12021
      0.01930 [    13]: 11211
      0.01865 [     4]: 02121
      0.01643 [    10]: 11112
      0.01434 [    12]: 11202
      0.01165 [    26]: 21021
      0.00932 [    19]: 12120
      0.00758 [     0]: 01122
      0.00573 [    15]: 12012
      0.00535 [     9]: 11022
ROOT  32:  E=   -2660.8037088194 Eh  3.495 eV  28186.6 cm**-1
      0.24675 [     9]: 11022
      0.24358 [    16]: 12021
      0.10039 [    15]: 12012
      0.04418 [    20]: 12201
      0.04242 [    21]: 12210
      0.04016 [    11]: 11121
      0.03759 [    28]: 21111
      0.03575 [     6]: 10122
      0.03239 [    10]: 11112
      0.02087 [    32]: 22011
      0.01833 [     0]: 01122
      0.01747 [     2]: 01221
      0.01607 [    13]: 11211
      0.01240 [    31]: 21210
      0.01098 [     4]: 02121
      0.01077 [    29]: 21120
      0.00885 [     1]: 01212
      0.00828 [    12]: 11202
      0.00616 [     3]: 02112
      0.00605 [    19]: 12120
      0.00584 [    17]: 12102
      0.00577 [    18]: 12111
      0.00568 [    26]: 21021
      0.00481 [     5]: 02211
      0.00430 [    27]: 21102
      0.00352 [    24]: 20211
      0.00322 [    33]: 22101
      0.00287 [     8]: 10221
ROOT  33:  E=   -2660.8004791517 Eh  3.583 eV  28895.4 cm**-1
      0.19149 [    15]: 12012
      0.16846 [    32]: 22011
      0.08871 [    28]: 21111
      0.07590 [    25]: 21012
      0.05394 [    34]: 22110
      0.04106 [    26]: 21021
      0.04004 [     3]: 02112
      0.03879 [    16]: 12021
      0.03860 [    18]: 12111
      0.03615 [    13]: 11211
      0.02989 [    10]: 11112
      0.02794 [    17]: 12102
      0.02594 [    22]: 20112
      0.02090 [    21]: 12210
      0.01800 [     1]: 01212
      0.01554 [     0]: 01122
      0.01290 [    33]: 22101
      0.01134 [     7]: 10212
      0.01067 [    11]: 11121
      0.00834 [     5]: 02211
      0.00778 [     2]: 01221
      0.00686 [    12]: 11202
      0.00543 [    29]: 21120
      0.00504 [    23]: 20121
      0.00490 [    30]: 21201
      0.00474 [     4]: 02121
      0.00271 [    20]: 12201
ROOT  34:  E=   -2660.7957531465 Eh  3.711 eV  29932.6 cm**-1
      0.24285 [    15]: 12012
      0.14036 [    32]: 22011
      0.10144 [    16]: 12021
      0.06938 [    25]: 21012
      0.05263 [    28]: 21111
      0.05105 [    10]: 11112
      0.03970 [    26]: 21021
      0.03295 [    13]: 11211
      0.02895 [    18]: 12111
      0.02572 [    33]: 22101
      0.02550 [     5]: 02211
      0.02331 [     4]: 02121
      0.02176 [    11]: 11121
      0.02148 [    21]: 12210
      0.02040 [    34]: 22110
      0.01735 [    17]: 12102
      0.01474 [    20]: 12201
      0.00952 [    23]: 20121
      0.00883 [     3]: 02112
      0.00880 [    22]: 20112
      0.00673 [     7]: 10212
      0.00504 [    30]: 21201
      0.00496 [    12]: 11202
      0.00429 [     8]: 10221
      0.00428 [    14]: 11220
      0.00402 [    29]: 21120
      0.00387 [     0]: 01122
      0.00338 [    27]: 21102
      0.00299 [    24]: 20211
ROOT  35:  E=   -2660.7649097760 Eh  4.550 eV  36702.0 cm**-1
      0.17987 [     9]: 11022
      0.09007 [    29]: 21120
      0.06297 [    12]: 11202
      0.06203 [    27]: 21102
      0.05527 [    14]: 11220
      0.04805 [    16]: 12021
      0.04762 [    10]: 11112
      0.04209 [    23]: 20121
      0.04090 [    33]: 22101
      0.03793 [     0]: 01122
      0.03765 [    34]: 22110
      0.02733 [    31]: 21210
      0.02689 [     4]: 02121
      0.02410 [     8]: 10221
      0.02213 [    11]: 11121
      0.02195 [    18]: 12111
      0.02102 [    20]: 12201
      0.02041 [    21]: 12210
      0.02003 [    24]: 20211
      0.01447 [    26]: 21021
      0.01444 [     7]: 10212
      0.01341 [    28]: 21111
      0.01281 [     2]: 01221
      0.01251 [    15]: 12012
      0.00954 [    19]: 12120
      0.00867 [     5]: 02211
      0.00634 [    22]: 20112
      0.00524 [    30]: 21201
      0.00406 [     3]: 02112
      0.00321 [    25]: 21012
      0.00303 [    13]: 11211
ROOT  36:  E=   -2660.7480549622 Eh  5.009 eV  40401.2 cm**-1
      0.21405 [    27]: 21102
      0.21025 [    30]: 21201
      0.08007 [    12]: 11202
      0.07233 [     9]: 11022
      0.06985 [    33]: 22101
      0.05304 [    25]: 21012
      0.04773 [    31]: 21210
      0.02540 [    16]: 12021
      0.02341 [    28]: 21111
      0.02146 [    32]: 22011
      0.01901 [     0]: 01122
      0.01842 [    34]: 22110
      0.01564 [    22]: 20112
      0.01318 [    20]: 12201
      0.01256 [     7]: 10212
      0.01229 [    29]: 21120
      0.01106 [    15]: 12012
      0.01087 [     1]: 01212
      0.01021 [    26]: 21021
      0.00741 [     4]: 02121
      0.00616 [    23]: 20121
      0.00599 [    14]: 11220
      0.00590 [    11]: 11121
      0.00517 [     8]: 10221
      0.00471 [    24]: 20211
      0.00457 [     6]: 10122
      0.00400 [     2]: 01221
      0.00319 [    10]: 11112
      0.00297 [     3]: 02112
      0.00282 [    13]: 11211
      0.00253 [    18]: 12111
ROOT  37:  E=   -2660.7377747350 Eh  5.289 eV  42657.4 cm**-1
      0.35093 [    26]: 21021
      0.11346 [    30]: 21201
      0.09062 [     9]: 11022
      0.06606 [    25]: 21012
      0.06243 [    16]: 12021
      0.03451 [    23]: 20121
      0.03350 [    28]: 21111
      0.03343 [     2]: 01221
      0.02486 [    18]: 12111
      0.01773 [    11]: 11121
      0.01727 [    10]: 11112
      0.01656 [    32]: 22011
      0.01650 [    31]: 21210
      0.01543 [    29]: 21120
      0.01233 [    20]: 12201
      0.01218 [    15]: 12012
      0.01154 [     0]: 01122
      0.01041 [    22]: 20112
      0.00903 [     4]: 02121
      0.00817 [    13]: 11211
      0.00805 [    12]: 11202
      0.00682 [    24]: 20211
      0.00434 [    14]: 11220
      0.00417 [     6]: 10122
      0.00413 [    27]: 21102
      0.00388 [     1]: 01212
      0.00348 [     5]: 02211
      0.00300 [     3]: 02112
      0.00292 [     7]: 10212
ROOT  38:  E=   -2660.7149588432 Eh  5.910 eV  47664.9 cm**-1
      0.30175 [    25]: 21012
      0.14076 [    32]: 22011
      0.13480 [    28]: 21111
      0.08382 [    24]: 20211
      0.07256 [    31]: 21210
      0.06057 [    27]: 21102
      0.05821 [    22]: 20112
      0.04149 [    30]: 21201
      0.02267 [    33]: 22101
      0.02181 [     1]: 01212
      0.01302 [     5]: 02211
      0.00947 [    16]: 12021
      0.00620 [    10]: 11112
      0.00423 [    29]: 21120
      0.00400 [    34]: 22110
      0.00397 [    26]: 21021
      0.00387 [     9]: 11022
      0.00287 [    12]: 11202
      0.00267 [    13]: 11211
ROOT  39:  E=   -2660.5444728431 Eh 10.549 eV  85082.3 cm**-1
      0.49347 [     8]: 10221
      0.20077 [    14]: 11220
      0.18445 [    13]: 11211
      0.03519 [    21]: 12210
      0.02207 [     6]: 10122
      0.01877 [    20]: 12201
      0.01331 [    11]: 11121
      0.00853 [    10]: 11112
      0.00676 [    23]: 20121
      0.00284 [    29]: 21120
ROOT  40:  E=   -2660.5248506899 Eh 11.083 eV  89388.8 cm**-1
      0.25143 [     6]: 10122
      0.22503 [    11]: 11121
      0.15394 [    23]: 20121
      0.09405 [    10]: 11112
      0.06471 [    29]: 21120
      0.06460 [    28]: 21111
      0.05338 [    19]: 12120
      0.04303 [    18]: 12111
      0.01362 [    34]: 22110
      0.01010 [    17]: 12102
      0.00745 [    33]: 22101
      0.00725 [     8]: 10221
      0.00271 [    14]: 11220
ROOT  41:  E=   -2660.4982484227 Eh 11.807 eV  95227.4 cm**-1
      0.43559 [     7]: 10212
      0.30343 [    13]: 11211
      0.08623 [    12]: 11202
      0.05443 [    21]: 12210
      0.02492 [    20]: 12201
      0.01904 [     8]: 10221
      0.01674 [    23]: 20121
      0.01378 [    22]: 20112
      0.00930 [    28]: 21111
      0.00761 [    14]: 11220
      0.00695 [    29]: 21120
      0.00567 [    10]: 11112
      0.00323 [    27]: 21102
ROOT  42:  E=   -2660.4733950536 Eh 12.483 eV 100682.1 cm**-1
      0.27877 [    23]: 20121
      0.14811 [    28]: 21111
      0.11556 [    29]: 21120
      0.10298 [     6]: 10122
      0.07070 [    11]: 11121
      0.06283 [    24]: 20211
      0.03833 [    34]: 22110
      0.03818 [    10]: 11112
      0.02713 [    31]: 21210
      0.01897 [    33]: 22101
      0.01748 [    13]: 11211
      0.01354 [    30]: 21201
      0.01328 [    18]: 12111
      0.01252 [     8]: 10221
      0.01198 [    19]: 12120
      0.00529 [    21]: 12210
      0.00524 [    14]: 11220
      0.00461 [     7]: 10212
      0.00393 [    22]: 20112
      0.00390 [    17]: 12102
      0.00267 [    20]: 12201
ROOT  43:  E=   -2660.4637877464 Eh 12.744 eV 102790.6 cm**-1
      0.39525 [    24]: 20211
      0.15866 [    31]: 21210
      0.09517 [    22]: 20112
      0.08305 [    30]: 21201
      0.06963 [    23]: 20121
      0.06598 [    28]: 21111
      0.02719 [    29]: 21120
      0.01987 [     7]: 10212
      0.01802 [    27]: 21102
      0.01604 [    13]: 11211
      0.01433 [     6]: 10122
      0.00891 [    11]: 11121
      0.00595 [    34]: 22110
      0.00407 [     8]: 10221
      0.00374 [    12]: 11202
      0.00372 [    10]: 11112
ROOT  44:  E=   -2660.4283027465 Eh 13.710 eV 110578.7 cm**-1
      0.34728 [    22]: 20112
      0.24024 [    28]: 21111
      0.14833 [    24]: 20211
      0.06983 [    27]: 21102
      0.06221 [    31]: 21210
      0.04144 [    34]: 22110
      0.03234 [    30]: 21201
      0.01924 [    33]: 22101
      0.00815 [    23]: 20121
      0.00588 [    10]: 11112
      0.00498 [    13]: 11211
      0.00385 [     7]: 10212
      0.00358 [    29]: 21120

                 <<<<<<<<<<<<<<<<<<INITIAL CI STATE CHECK>>>>>>>>>>>>>>>>>>

   E(CAS)= -2660.866873982 Eh DE=    0.000000e+00
   --- Energy gap subspaces: Ext-Act = 0.059   Act-Int = 0.083
   N(occ)=  1.20000 1.20000 1.20000 1.20000 1.20000
   ||g|| =     9.376456e-04 Max(G)=   -3.352071e-04 Rot=178,123
                     ---- THE CAS-SCF GRADIENT HAS CONVERGED ----
                            --- FINALIZING ORBITALS ---
                    ---- DOING ONE FINAL ITERATION FOR PRINTING ----
   --- Forming Natural Orbitals
   --- Canonicalize Internal Space
   --- Canonicalize External Space

MACRO-ITERATION   2: 
   --- Inactive Energy E0 = -2652.27536696 Eh
   --- All densities will be recomputed
CI-ITERATION   0: 
 -2660.978077040   0.000000000000 (    0.00)
 -2660.934779270   0.000000000000
 -2660.926002806   0.000000000000
 -2660.910988332   0.000000000000
 -2660.892534657   0.000000000000
   CI-PROBLEM SOLVED
   DENSITIES MADE
CI-ITERATION   0: 
 -2660.932136235   0.000000000000 (    0.00)
 -2660.927091889   0.000000000000
 -2660.920221479   0.000000000000
 -2660.911557315   0.000000000000
 -2660.907985222   0.000000000000
 -2660.905160088   0.000000000000
 -2660.903066094   0.000000000000
 -2660.897471396   0.000000000000
 -2660.895546046   0.000000000000
 -2660.892349854   0.000000000000
 -2660.890303423   0.000000000000
 -2660.885949738   0.000000000000
 -2660.884141019   0.000000000000
 -2660.883657818   0.000000000000
 -2660.882283063   0.000000000000
 -2660.879482307   0.000000000000
 -2660.872140141   0.000000000000
 -2660.869884043   0.000000000000
 -2660.868409206   0.000000000000
 -2660.863337655   0.000000000000
 -2660.859737086   0.000000000000
 -2660.854916173   0.000000000000
 -2660.854246555   0.000000000000
 -2660.851830917   0.000000000000
 -2660.845994053   0.000000000000
 -2660.843861773   0.000000000000
 -2660.840093976   0.000000000000
 -2660.831180113   0.000000000000
 -2660.827560305   0.000000000000
 -2660.824027421   0.000000000000
 -2660.817983053   0.000000000000
 -2660.814916999   0.000000000000
 -2660.803708819   0.000000000000
 -2660.800479151   0.000000000000
 -2660.795753146   0.000000000000
 -2660.764909775   0.000000000000
 -2660.748054961   0.000000000000
 -2660.737774734   0.000000000000
 -2660.714958842   0.000000000000
 -2660.544472842   0.000000000000
 -2660.524850689   0.000000000000
 -2660.498248422   0.000000000000
 -2660.473395052   0.000000000000
 -2660.463787745   0.000000000000
 -2660.428302745   0.000000000000
   CI-PROBLEM SOLVED
   DENSITIES MADE
   E(CAS)= -2660.866873981 Eh DE=    5.616130e-10
   --- Energy gap subspaces: Ext-Act = 0.072   Act-Int = 0.097
   N(occ)=  1.20000 1.20000 1.20000 1.20000 1.20000
   ||g|| =     9.376456e-04 Max(G)=    2.994971e-04 Rot=178,127
--------------
CASSCF RESULTS
--------------

Final CASSCF energy       : -2660.866873981 Eh  -72405.8687 eV

----------------
ORBITAL ENERGIES
----------------

  NO   OCC          E(Eh)            E(eV) 
   0   2.0000    -220.500134     -6000.1137 
   1   2.0000     -26.339407      -716.7317 
   2   2.0000     -22.275022      -606.1342 
   3   2.0000     -22.270883      -606.0215 
   4   2.0000     -22.259181      -605.7031 
   5   2.0000      -4.718231      -128.3896 
   6   2.0000      -4.716772      -128.3499 
   7   2.0000      -4.715254      -128.3086 
   8   2.0000      -4.711969      -128.2192 
   9   2.0000      -4.711380      -128.2032 
  10   2.0000      -4.709341      -128.1477 
  11   2.0000      -4.707847      -128.1070 
  12   2.0000      -4.704304      -128.0106 
  13   2.0000      -4.700702      -127.9126 
  14   2.0000      -4.699049      -127.8676 
  15   2.0000      -4.697249      -127.8187 
  16   2.0000      -4.693596      -127.7192 
  17   2.0000      -3.393354       -92.3379 
  18   2.0000      -2.759774       -75.0973 
  19   2.0000      -2.756315       -75.0032 
  20   2.0000      -2.754977       -74.9667 
  21   2.0000      -2.754241       -74.9467 
  22   2.0000      -2.754021       -74.9407 
  23   2.0000      -2.753921       -74.9380 
  24   2.0000      -2.752231       -74.8920 
  25   2.0000      -2.751469       -74.8713 
  26   2.0000      -2.751217       -74.8644 
  27   2.0000      -2.750387       -74.8418 
  28   2.0000      -2.749800       -74.8259 
  29   2.0000      -2.748769       -74.7978 
  30   2.0000      -2.747368       -74.7597 
  31   2.0000      -2.747153       -74.7538 
  32   2.0000      -2.746486       -74.7357 
  33   2.0000      -2.745177       -74.7001 
  34   2.0000      -2.744527       -74.6824 
  35   2.0000      -2.744137       -74.6718 
  36   2.0000      -2.743077       -74.6429 
  37   2.0000      -2.742678       -74.6320 
  38   2.0000      -2.742530       -74.6280 
  39   2.0000      -2.741480       -74.5995 
  40   2.0000      -2.740350       -74.5687 
  41   2.0000      -2.738800       -74.5265 
  42   2.0000      -2.737763       -74.4983 
  43   2.0000      -2.736531       -74.4648 
  44   2.0000      -2.735649       -74.4408 
  45   2.0000      -2.734164       -74.4004 
  46   2.0000      -2.734021       -74.3965 
  47   2.0000      -2.732418       -74.3529 
  48   2.0000      -2.732120       -74.3448 
  49   2.0000      -2.731973       -74.3408 
  50   2.0000      -2.731173       -74.3190 
  51   2.0000      -2.729155       -74.2641 
  52   2.0000      -2.727263       -74.2126 
  53   2.0000      -2.725933       -74.1764 
  54   2.0000      -2.159733       -58.7693 
  55   2.0000      -2.156305       -58.6760 
  56   2.0000      -2.146218       -58.4016 
  57   2.0000      -0.556112       -15.1326 
  58   2.0000      -0.555732       -15.1222 
  59   2.0000      -0.550247       -14.9730 
  60   2.0000      -0.545575       -14.8458 
  61   2.0000      -0.542955       -14.7746 
  62   2.0000      -0.535713       -14.5775 
  63   2.0000      -0.533477       -14.5166 
  64   2.0000      -0.531514       -14.4632 
  65   2.0000      -0.529932       -14.4202 
  66   2.0000      -0.527018       -14.3409 
  67   2.0000      -0.525465       -14.2986 
  68   2.0000      -0.523805       -14.2535 
  69   2.0000      -0.522403       -14.2153 
  70   2.0000      -0.520292       -14.1579 
  71   2.0000      -0.517529       -14.0827 
  72   2.0000      -0.515203       -14.0194 
  73   2.0000      -0.511434       -13.9168 
  74   2.0000      -0.508756       -13.8440 
  75   2.0000      -0.504771       -13.7355 
  76   2.0000      -0.502436       -13.6720 
  77   2.0000      -0.499039       -13.5795 
  78   2.0000      -0.496486       -13.5101 
  79   2.0000      -0.495652       -13.4874 
  80   2.0000      -0.493211       -13.4209 
  81   2.0000      -0.492465       -13.4007 
  82   2.0000      -0.485413       -13.2088 
  83   2.0000      -0.482759       -13.1365 
  84   2.0000      -0.481653       -13.1065 
  85   2.0000      -0.477199       -12.9853 
  86   2.0000      -0.473170       -12.8756 
  87   2.0000      -0.470578       -12.8051 
  88   2.0000      -0.468548       -12.7498 
  89   2.0000      -0.465163       -12.6577 
  90   2.0000      -0.463609       -12.6154 
  91   2.0000      -0.460326       -12.5261 
  92   2.0000      -0.459403       -12.5010 
  93   2.0000      -0.454288       -12.3618 
  94   2.0000      -0.453739       -12.3469 
  95   2.0000      -0.452758       -12.3202 
  96   2.0000      -0.450583       -12.2610 
  97   2.0000      -0.448570       -12.2062 
  98   2.0000      -0.445776       -12.1302 
  99   2.0000      -0.442991       -12.0544 
 100   2.0000      -0.442156       -12.0317 
 101   2.0000      -0.437377       -11.9016 
 102   2.0000      -0.436838       -11.8870 
 103   2.0000      -0.434150       -11.8138 
[...]
 3 117  460501.4     21.7   0.000000000   0.00350   0.00303   0.05897   0.00288
 3 118  460507.5     21.7   0.000000000   0.02228   0.01070   0.14888   0.00002
 3 119  461210.6     21.7   0.000000000   0.00884   0.02019   0.07021   0.05919
 3 120  461224.2     21.7   0.000000000   0.00281   0.01050   0.04119   0.03172
 3 121  461227.6     21.7   0.000000000   0.00104   0.00789   0.01623   0.02678
 3 122  463100.3     21.6   0.000000000   0.00000   0.00027   0.00048   0.00017
 3 123  463101.4     21.6   0.000000000   0.00000   0.00017   0.00198   0.00069
 3 124  463103.9     21.6   0.000000000   0.00001   0.00044   0.00294   0.00129
 3 125  463108.8     21.6   0.000000000   0.00001   0.00005   0.00233   0.00031
 3 126  463109.1     21.6   0.000000000   0.00000   0.00007   0.00065   0.00189
 3 127  466904.4     21.4   0.000000000   0.02068   0.01831   0.13602   0.04295
 3 128  466905.1     21.4   0.000000000   0.01835   0.02497   0.12747   0.03849
 3 129  466920.5     21.4   0.000000000   0.02646   0.02582   0.15309   0.04852
 3 130  467260.5     21.4   0.000000000   0.00680   0.00940   0.07352   0.03615
 3 131  467268.8     21.4   0.000000000   0.01551   0.01385   0.11746   0.03902
 3 132  467272.2     21.4   0.000000000   0.00368   0.00269   0.05973   0.01040
 3 133  468191.4     21.4   0.000000000   0.01160   0.01262   0.07347   0.07776
 3 134  468192.0     21.4   0.000000000   0.00262   0.00470   0.04107   0.03026
 3 135  468192.7     21.4   0.000000000   0.00129   0.00409   0.02804   0.02211
 3 136  469111.8     21.3   0.000000000   0.00059   0.00148   0.01651   0.01772
 3 137  469112.7     21.3   0.000000000   0.02133   0.01578   0.08058   0.12080
 3 138  469112.9     21.3   0.000000000   0.02312   0.01484   0.08895   0.12242
 3 139  469711.2     21.3   0.000000000   0.00151   0.00647   0.03813   0.00316
 3 140  469712.0     21.3   0.000000000   0.00003   0.00113   0.00460   0.00312
 3 141  469714.5     21.3   0.000000000   0.01258   0.02646   0.10521   0.02848
 3 142  470963.0     21.2   0.000000000   0.01118   0.02386   0.06641   0.07871
 3 143  470967.7     21.2   0.000000000   0.00104   0.00537   0.02845   0.01431
 3 144  470968.0     21.2   0.000000000   0.01379   0.02892   0.06273   0.09498
 3 145  473055.1     21.1   0.000000000   0.12821   0.04522   0.34715   0.07521
 3 146  473059.1     21.1   0.000000000   0.11206   0.04349   0.32383   0.07281
 3 147  473060.6     21.1   0.000000000   0.01968   0.01714   0.13660   0.02690
 3 148  477373.9     20.9   0.000000000   0.04622   0.00353   0.21456   0.01306
 3 149  477375.6     20.9   0.000000000   0.00821   0.00172   0.09039   0.00565
 3 150  477376.1     20.9   0.000000000   0.06439   0.00459   0.25317   0.01656
 3 151  481485.8     20.8   0.000000000   0.01161   0.01198   0.08899   0.05957
 3 152  481487.0     20.8   0.000000000   0.00393   0.00820   0.05349   0.03157
 3 153  481489.6     20.8   0.000000000   0.00808   0.01080   0.07485   0.04861
 3 154  483211.4     20.7   0.000000000   0.04441   0.04933   0.18148   0.09510
 3 155  483215.1     20.7   0.000000000   0.04632   0.05053   0.18550   0.09673
 3 156  483216.3     20.7   0.000000000   0.05260   0.05250   0.19760   0.10389
 3 157  489129.6     20.4   0.000000000   0.00085   0.00823   0.02739   0.00601
 3 158  489130.9     20.4   0.000000000   0.00062   0.00840   0.02241   0.00721
 3 159  489131.5     20.4   0.000000000   0.00025   0.00634   0.01305   0.00664
 4  5       0.0   261423164.4   0.000000000   0.00000   0.00000   0.00000   0.00000
 4  6  301171.5     33.2   0.000000000   0.00809   0.03294   0.02025   0.08119
 4  7  301171.6     33.2   0.000000000   0.01940   0.05154   0.03181   0.12544
 4  8  301171.8     33.2   0.000000000   0.00022   0.00562   0.00340   0.01348
 4  9  392608.2     25.5   0.000000000   0.00480   0.03644   0.02148   0.05484
 4 10  392608.3     25.5   0.000000000   0.02747   0.08529   0.04897   0.13341
 4 11  392610.3     25.5   0.000000000   0.00829   0.04705   0.02710   0.07311
 4 12  396779.8     25.2   0.000000000   0.00289   0.03513   0.03062   0.02686
 4 13  396781.0     25.2   0.000000000   0.00180   0.02774   0.02492   0.02026
 4 14  396781.3     25.2   0.000000000   0.02056   0.09339   0.08130   0.07230
 4 15  401460.6     24.9   0.000000000   0.00000   0.00010   0.00005   0.00002
 4 16  401460.6     24.9   0.000000000   0.00000   0.00016   0.00050   0.00007
 4 17  401461.8     24.9   0.000000000   0.00000   0.00014   0.00059   0.00002
 4 18  401462.2     24.9   0.000000000   0.00000   0.00020   0.00030   0.00004
 4 19  401462.4     24.9   0.000000000   0.00000   0.00007   0.00012   0.00017
 4 20  406263.9     24.6   0.000000000   0.00225   0.03252   0.00558   0.03411
 4 21  406264.7     24.6   0.000000000   0.00273   0.03549   0.00592   0.03793
 4 22  406264.9     24.6   0.000000000   0.00072   0.01948   0.00393   0.01815
 4 23  426240.4     23.5   0.000000000   0.00058   0.00473   0.00963   0.02147
 4 24  426241.2     23.5   0.000000000   0.01191   0.02067   0.04502   0.09723
 4 25  426241.8     23.5   0.000000000   0.00161   0.00746   0.01686   0.03562
 4 26  428920.0     23.3   0.000000000   0.00511   0.01633   0.01734   0.06738
 4 27  428920.6     23.3   0.000000000   0.00006   0.00119   0.00334   0.00681
 4 28  428922.4     23.3   0.000000000   0.00186   0.00998   0.01017   0.04065
 4 29  429261.8     23.3   0.000000000   0.00007   0.00222   0.00790   0.00230
 4 30  429265.7     23.3   0.000000000   0.00012   0.00421   0.00846   0.00573
 4 31  429268.9     23.3   0.000000000   0.00005   0.00148   0.00410   0.00569
 4 32  431889.7     23.2   0.000000000   0.00615   0.01489   0.07142   0.02883
 4 33  431893.5     23.2   0.000000000   0.01606   0.01722   0.12180   0.03047
 4 34  431916.5     23.2   0.000000000   0.00305   0.00793   0.05316   0.01265
 4 35  432151.6     23.1   0.000000000   0.00058   0.00273   0.02260   0.00793
 4 36  432174.0     23.1   0.000000000   0.00070   0.00041   0.02520   0.00808
 4 37  432178.7     23.1   0.000000000   0.00014   0.00535   0.00882   0.00600
 4 38  432282.9     23.1   0.000000000   0.00008   0.00226   0.00322   0.00807
 4 39  432292.1     23.1   0.000000000   0.00237   0.00573   0.04830   0.00100
 4 40  432298.0     23.1   0.000000000   0.00997   0.00165   0.09849   0.01643
 4 41  432928.3     23.1   0.000000000   0.00006   0.00233   0.00687   0.00171
 4 42  432929.7     23.1   0.000000000   0.00136   0.01066   0.03502   0.00468
 4 43  432931.9     23.1   0.000000000   0.00602   0.02589   0.07290   0.00587
 4 44  434660.2     23.0   0.000000000   0.03062   0.03752   0.09619   0.14128
 4 45  434664.8     23.0   0.000000000   0.00249   0.01154   0.02491   0.04168
 4 46  434667.2     23.0   0.000000000   0.00002   0.00090   0.00364   0.00101
 4 47  435814.7     22.9   0.000000000   0.00503   0.00683   0.03711   0.06002
 4 48  435815.8     22.9   0.000000000   0.00049   0.00112   0.01394   0.01725
 4 49  435817.1     22.9   0.000000000   0.00393   0.00607   0.03352   0.05260
 4 50  437773.1     22.8   0.000000000   0.00016   0.00604   0.00310   0.01065
 4 51  437774.7     22.8   0.000000000   0.00001   0.00174   0.00088   0.00279
 4 52  437775.7     22.8   0.000000000   0.00073   0.01351   0.00764   0.02218
 4 53  439601.1     22.7   0.000000000   0.00072   0.00804   0.02084   0.01499
 4 54  439602.4     22.7   0.000000000   0.00084   0.00690   0.02654   0.00926
 4 55  439618.5     22.7   0.000000000   0.00055   0.00740   0.02049   0.00866
 4 56  440132.1     22.7   0.000000000   0.00082   0.00205   0.00192   0.02858
 4 57  440147.8     22.7   0.000000000   0.00138   0.00685   0.00527   0.03617
 4 58  440152.5     22.7   0.000000000   0.00103   0.00372   0.01423   0.02850
 4 59  440478.6     22.7   0.000000000   0.00013   0.00055   0.01064   0.00397
 4 60  440480.2     22.7   0.000000000   0.00587   0.00270   0.07516   0.01465
 4 61  440481.1     22.7   0.000000000   0.00000   0.00057   0.00157   0.00087
 4 62  441714.8     22.6   0.000000000   0.00791   0.03728   0.06476   0.04819
 4 63  441720.6     22.6   0.000000000   0.00262   0.01648   0.04786   0.00760
 4 64  441733.1     22.6   0.000000000   0.00027   0.00712   0.01331   0.00680
 4 65  442491.2     22.6   0.000000000   0.02812   0.05844   0.01263   0.15665
 4 66  442494.4     22.6   0.000000000   0.00090   0.00620   0.00163   0.02932
 4 67  442496.8     22.6   0.000000000   0.01074   0.03670   0.00706   0.09667
 4 68  442553.8     22.6   0.000000000   0.00342   0.00648   0.01010   0.05722
 4 69  442567.8     22.6   0.000000000   0.01902   0.03232   0.00033   0.13406
 4 70  442569.9     22.6   0.000000000   0.02015   0.01767   0.03205   0.13714
 4 71  444446.8     22.5   0.000000000   0.00114   0.00608   0.02710   0.01929
 4 72  444447.8     22.5   0.000000000   0.00041   0.00094   0.02022   0.00024
 4 73  444451.8     22.5   0.000000000   0.00951   0.01657   0.08262   0.04906
 4 74  446511.1     22.4   0.000000000   0.07733   0.07623   0.23935   0.11929
 4 75  446515.1     22.4   0.000000000   0.01919   0.03549   0.11935   0.06069
 4 76  446516.8     22.4   0.000000000   0.01519   0.03277   0.10641   0.05281
 4 77  448329.8     22.3   0.000000000   0.00006   0.00272   0.00001   0.00733
 4 78  448330.0     22.3   0.000000000   0.00669   0.01738   0.05685   0.05618
 4 79  448334.1     22.3   0.000000000   0.02799   0.02791   0.10100   0.13044
 4 80  448513.8     22.3   0.000000000   0.03688   0.09245   0.16690   0.02186
 4 81  448518.2     22.3   0.000000000   0.00784   0.04391   0.07374   0.02177
 4 82  448519.6     22.3   0.000000000   0.00565   0.03463   0.06661   0.00385
 4 83  451008.0     22.2   0.000000000   0.00014   0.00278   0.00906   0.00694
 4 84  451011.7     22.2   0.000000000   0.00017   0.00244   0.01075   0.00714
 4 85  451017.5     22.2   0.000000000   0.00494   0.01868   0.05931   0.03278
 4 86  451552.6     22.1   0.000000000   0.02606   0.03078   0.15780   0.01453
 4 87  451557.1     22.1   0.000000000   0.00005   0.00131   0.00699   0.00126
 4 88  451559.4     22.1   0.000000000   0.00024   0.00226   0.01526   0.00142
 4 89  452976.7     22.1   0.000000000   0.00000   0.00082   0.00034   0.00021
 4 90  452976.9     22.1   0.000000000   0.00002   0.00080   0.00397   0.00196
 4 91  452985.2     22.1   0.000000000   0.00001   0.00099   0.00332   0.00063
 4 92  452987.9     22.1   0.000000000   0.00002   0.00147   0.00355   0.00063
 4 93  452990.0     22.1   0.000000000   0.00005   0.00157   0.00626   0.00225
 4 94  454747.9     22.0   0.000000000   0.00000   0.00039   0.00033   0.00040
 4 95  454754.9     22.0   0.000000000   0.00009   0.00041   0.00355   0.00887
 4 96  454759.2     22.0   0.000000000   0.00016   0.00055   0.00300   0.01230
 4 97  454785.6     22.0   0.000000000   0.00000   0.00067   0.00090   0.00037
 4 98  454785.7     22.0   0.000000000   0.00000   0.00015   0.00039   0.00130
 4 99  455283.2     22.0   0.000000000   0.00347   0.00231   0.02483   0.05332
 4 100  455283.7     22.0   0.000000000   0.00026   0.00054   0.00053   0.01619
 4 101  455291.3     22.0   0.000000000   0.00009   0.00013   0.00643   0.00676
 4 102  456324.0     21.9   0.000000000   0.00298   0.00769   0.04840   0.02411
 4 103  456324.6     21.9   0.000000000   0.00038   0.00269   0.01589   0.01115
 4 104  456325.6     21.9   0.000000000   0.00013   0.00141   0.00838   0.00792
 4 105  458914.4     21.8   0.000000000   0.00049   0.00226   0.01897   0.01132
 4 106  458915.4     21.8   0.000000000   0.00060   0.00103   0.02150   0.01186
 4 107  458918.5     21.8   0.000000000   0.01012   0.00616   0.08754   0.04923
 4 108  459275.2     21.8   0.000000000   0.00052   0.00166   0.02219   0.00543
 4 109  459276.4     21.8   0.000000000   0.00000   0.00001   0.00198   0.00002
 4 110  459278.6     21.8   0.000000000   0.00007   0.00168   0.00639   0.00502
 4 111  459284.2     21.8   0.000000000   0.00002   0.00054   0.00427   0.00215
 4 112  459284.3     21.8   0.000000000   0.00005   0.00096   0.00643   0.00272
 4 113  460241.2     21.7   0.000000000   0.03231   0.02299   0.17822   0.00453
 4 114  460243.0     21.7   0.000000000   0.00058   0.00090   0.02370   0.00435
 4 115  460251.6     21.7   0.000000000   0.00001   0.00012   0.00030   0.00350
 4 116  460500.2     21.7   0.000000000   0.02180   0.00978   0.14729   0.00312
 4 117  460501.4     21.7   0.000000000   0.00495   0.00905   0.06906   0.01014
 4 118  460507.4     21.7   0.000000000   0.00142   0.00006   0.03760   0.00310
 4 119  461210.6     21.7   0.000000000   0.00022   0.00323   0.00711   0.01261
 4 120  461224.2     21.7   0.000000000   0.00137   0.00983   0.01859   0.03045
 4 121  461227.6     21.7   0.000000000   0.01078   0.02140   0.07928   0.06356
 4 122  463100.3     21.6   0.000000000   0.00000   0.00010   0.00060   0.00124
 4 123  463101.4     21.6   0.000000000   0.00001   0.00043   0.00247   0.00003
 4 124  463103.9     21.6   0.000000000   0.00000   0.00027   0.00101   0.00030
 4 125  463108.8     21.6   0.000000000   0.00001   0.00014   0.00060   0.00222
 4 126  463109.0     21.6   0.000000000   0.00001   0.00004   0.00269   0.00011
 4 127  466904.4     21.4   0.000000000   0.04150   0.03541   0.19165   0.05929
 4 128  466905.0     21.4   0.000000000   0.01906   0.01678   0.12931   0.04537
 4 129  466920.5     21.4   0.000000000   0.00433   0.00947   0.06321   0.01569
 4 130  467260.5     21.4   0.000000000   0.00623   0.00739   0.07450   0.02495
 4 131  467268.8     21.4   0.000000000   0.00056   0.00853   0.02007   0.00926
 4 132  467272.2     21.4   0.000000000   0.01996   0.01275   0.13290   0.04618
 4 133  468191.4     21.4   0.000000000   0.00376   0.00611   0.04862   0.03692
 4 134  468192.0     21.4   0.000000000   0.00538   0.00813   0.04841   0.05448
 4 135  468192.7     21.4   0.000000000   0.00631   0.00963   0.05651   0.05502
 4 136  469111.8     21.3   0.000000000   0.01740   0.01519   0.07335   0.10858
 4 137  469112.7     21.3   0.000000000   0.01679   0.01144   0.07741   0.10327
 4 138  469112.9     21.3   0.000000000   0.01078   0.01060   0.05723   0.08599
 4 139  469711.2     21.3   0.000000000   0.00341   0.01402   0.05190   0.02284
 4 140  469712.0     21.3   0.000000000   0.01012   0.02292   0.09585   0.02020
 4 141  469714.5     21.3   0.000000000   0.00055   0.00433   0.02313   0.00049
 4 142  470963.0     21.2   0.000000000   0.00316   0.01339   0.03266   0.04370
 4 143  470967.7     21.2   0.000000000   0.01601   0.03119   0.06516   0.10389
 4 144  470968.0     21.2   0.000000000   0.00706   0.01685   0.06385   0.05199
 4 145  473055.1     21.1   0.000000000   0.00442   0.00853   0.06430   0.01443
 4 146  473059.1     21.1   0.000000000   0.01772   0.01574   0.13005   0.02361
 4 147  473060.6     21.1   0.000000000   0.23764   0.06252   0.47202   0.10452
 4 148  477373.9     20.9   0.000000000   0.01747   0.00310   0.13190   0.00780
 4 149  477375.5     20.9   0.000000000   0.06124   0.00365   0.24688   0.01673
 4 150  477376.1     20.9   0.000000000   0.04012   0.00381   0.19991   0.01178
 4 151  481485.8     20.8   0.000000000   0.00750   0.01145   0.07307   0.04504
 4 152  481486.9     20.8   0.000000000   0.01576   0.01386   0.10397   0.06897
 4 153  481489.6     20.8   0.000000000   0.00027   0.00225   0.01250   0.01050
 4 154  483211.3     20.7   0.000000000   0.00388   0.01425   0.05401   0.02750
 4 155  483215.1     20.7   0.000000000   0.08955   0.06885   0.25790   0.13528
 4 156  483216.3     20.7   0.000000000   0.04996   0.05288   0.19238   0.10074
 4 157  489129.6     20.4   0.000000000   0.00079   0.00973   0.02480   0.00875
 4 158  489130.9     20.4   0.000000000   0.00092   0.00912   0.02798   0.00719
 4 159  489131.5     20.4   0.000000000   0.00002   0.00046   0.00419   0.00010

------------------------------------------------------------------------------
                           SOC CORRECTED DIPOLE MOMENTS
------------------------------------------------------------------------------
      TX        TY        TZ           |T|
   (Debye)   (Debye)   (Debye)      (Debye)
------------------------------------------------------------------------------
  -6.22243 -14.44035  33.20960     36.74398

--------------
CASSCF TIMINGS
--------------

Total time                       ...     2712.8 sec
Sum of individual times          ...     2717.3 sec (100.2%)

Calculation of AO operators
   F(Core) operator              ...       22.2 sec (  0.8%)
   G(Act) operator               ...       21.5 sec (  0.8%)
   J(AO) operators               ...        0.0 sec (  0.0%)
Calculation of MO transformed quantities
   J(MO) operators               ...        2.5 sec (  0.1%)
   (pq|rs) integrals             ...        0.0 sec (  0.0%)
   AO->MO one electron integrals ...        0.1 sec (  0.0%)
Configuration interaction steps
   CI-setup phase                ...        0.0 sec (  0.0%)
   CI-solution phase             ...        0.1 sec (  0.0%)
   Generation of densities       ...        0.0 sec (  0.0%)
Orbital improvement steps
   Orbital gradient              ...        0.0 sec (  0.0%)
PT2 
   NEVPT2 time                   ...     2650.9 sec ( 97.7%)
Properties                       ...       10.6 sec (  0.4%)
   SOC integral calculation      ...        9.4 sec (  0.3%)
   SSC RMEs (incl. integrals)    ...        0.0 sec (  0.0%)
   SOC RMEs                      ...        0.0 sec (  0.0%)

Maximum memory used throughout the entire CASSCF-calculation: 1126.6 MB

-------------------------   --------------------
FINAL SINGLE POINT ENERGY     -2667.637484267359
-------------------------   --------------------


                            ***************************************
                            *     ORCA property calculations      *
                            ***************************************

                                    ---------------------
                                    Active property flags
                                    ---------------------
   (+) Dipole Moment


------------------------------------------------------------------------------
                       ORCA ELECTRIC PROPERTIES CALCULATION
------------------------------------------------------------------------------

Dipole Moment Calculation                       ... on
Quadrupole Moment Calculation                   ... off
Polarizability Calculation                      ... off
GBWName                                         ... nevpt2.gbw
Electron density                                ... nevpt2.scfp
The origin for moment calculation is the CENTER OF MASS  = (13.554621, 16.538558 14.876130)

-------------
DIPOLE MOMENT
-------------
                                X             Y             Z
Electronic contribution:      2.12484       5.74887     -13.20144
Nuclear contribution   :     -2.44804      -5.68115      13.06540
                        -----------------------------------------
Total Dipole Moment    :     -0.32321       0.06771      -0.13604
                        -----------------------------------------
Magnitude (a.u.)       :      0.35715
Magnitude (Debye)      :      0.90780



--------------------
Rotational spectrum 
--------------------
 
Rotational constants in cm-1:     0.001583     0.001177     0.001076 
Rotational constants in MHz :    47.458984    35.294942    32.260521 

 Dipole components along the rotational axes: 
x,y,z [a.u.] :     0.071858     0.214558    -0.276325 
x,y,z [Debye]:     0.182648     0.545364    -0.702362 

 

Timings for individual modules:

Sum of individual times         ...     2725.856 sec (=  45.431 min)
GTO integral calculation        ...        7.162 sec (=   0.119 min)   0.3 %
SCF iterations                  ...        2.868 sec (=   0.048 min)   0.1 %
CASSCF iterations               ...     2715.827 sec (=  45.264 min)  99.6 %
                             ****ORCA TERMINATED NORMALLY****
TOTAL RUN TIME: 0 days 0 hours 45 minutes 26 seconds 377 msec
