
                                 *****************
                                 * O   R   C   A *
                                 *****************

                                            #,                                       
                                            ###                                      
                                            ####                                     
                                            #####                                    
                                            ######                                   
                                           ########,                                 
                                     ,,################,,,,,                         
                               ,,#################################,,                 
                          ,,##########################################,,             
                       ,#########################################, ''#####,          
                    ,#############################################,,   '####,        
                  ,##################################################,,,,####,       
                ,###########''''           ''''###############################       
              ,#####''   ,,,,##########,,,,          '''####'''          '####       
            ,##' ,,,,###########################,,,                        '##       
           ' ,,###''''                  '''############,,,                           
         ,,##''                                '''############,,,,        ,,,,,,###''
      ,#''                                            '''#######################'''  
     '                                                          ''''####''''         
             ,#######,   #######,   ,#######,      ##                                
            ,#'     '#,  ##    ##  ,#'     '#,    #''#        ######   ,####,        
            ##       ##  ##   ,#'  ##            #'  '#       #        #'  '#        
            ##       ##  #######   ##           ,######,      #####,   #    #        
            '#,     ,#'  ##    ##  '#,     ,#' ,#      #,         ##   #,  ,#        
             '#######'   ##     ##  '#######'  #'      '#     #####' # '####'        



                  #######################################################
                  #                        -***-                        #
                  #          Department of theory and spectroscopy      #
                  #    Directorship and core code : Frank Neese         #
                  #        Max Planck Institute fuer Kohlenforschung    #
                  #                Kaiser Wilhelm Platz 1               #
                  #                 D-45470 Muelheim/Ruhr               #
                  #                      Germany                        #
                  #                                                     #
                  #                  All rights reserved                #
                  #                        -***-                        #
                  #######################################################


                         Program Version 5.0.3 -  RELEASE  -


 With contributions from (in alphabetic order):
   Daniel Aravena         : Magnetic Suceptibility
   Michael Atanasov       : Ab Initio Ligand Field Theory (pilot matlab implementation)
   Alexander A. Auer      : GIAO ZORA, VPT2 properties, NMR spectrum
   Ute Becker             : Parallelization
   Giovanni Bistoni       : ED, misc. LED, open-shell LED, HFLD
   Martin Brehm           : Molecular dynamics
   Dmytro Bykov           : SCF Hessian
   Vijay G. Chilkuri      : MRCI spin determinant printing, contributions to CSF-ICE
   Dipayan Datta          : RHF DLPNO-CCSD density
   Achintya Kumar Dutta   : EOM-CC, STEOM-CC
   Dmitry Ganyushin       : Spin-Orbit,Spin-Spin,Magnetic field MRCI
   Miquel Garcia          : C-PCM and meta-GGA Hessian, CC/C-PCM, Gaussian charge scheme
   Yang Guo               : DLPNO-NEVPT2, F12-NEVPT2, CIM, IAO-localization
   Andreas Hansen         : Spin unrestricted coupled pair/coupled cluster methods
   Benjamin Helmich-Paris : MC-RPA, TRAH-SCF, COSX integrals
   Lee Huntington         : MR-EOM, pCC
   Robert Izsak           : Overlap fitted RIJCOSX, COSX-SCS-MP3, EOM
   Marcus Kettner         : VPT2
   Christian Kollmar      : KDIIS, OOCD, Brueckner-CCSD(T), CCSD density, CASPT2, CASPT2-K
   Simone Kossmann        : Meta GGA functionals, TD-DFT gradient, OOMP2, MP2 Hessian
   Martin Krupicka        : Initial AUTO-CI
   Lucas Lang             : DCDCAS
   Marvin Lechner         : AUTO-CI (C++ implementation), FIC-MRCC
   Dagmar Lenk            : GEPOL surface, SMD
   Dimitrios Liakos       : Extrapolation schemes; Compound Job, initial MDCI parallelization
   Dimitrios Manganas     : Further ROCIS development; embedding schemes
   Dimitrios Pantazis     : SARC Basis sets
   Anastasios Papadopoulos: AUTO-CI, single reference methods and gradients
   Taras Petrenko         : DFT Hessian,TD-DFT gradient, ASA, ECA, R-Raman, ABS, FL, XAS/XES, NRVS
   Peter Pinski           : DLPNO-MP2, DLPNO-MP2 Gradient
   Christoph Reimann      : Effective Core Potentials
   Marius Retegan         : Local ZFS, SOC
   Christoph Riplinger    : Optimizer, TS searches, QM/MM, DLPNO-CCSD(T), (RO)-DLPNO pert. Triples
   Tobias Risthaus        : Range-separated hybrids, TD-DFT gradient, RPA, STAB
   Michael Roemelt        : Original ROCIS implementation
   Masaaki Saitow         : Open-shell DLPNO-CCSD energy and density
   Barbara Sandhoefer     : DKH picture change effects
   Avijit Sen             : IP-ROCIS
   Kantharuban Sivalingam : CASSCF convergence, NEVPT2, FIC-MRCI
   Bernardo de Souza      : ESD, SOC TD-DFT
   Georgi Stoychev        : AutoAux, RI-MP2 NMR, DLPNO-MP2 response
   Willem Van den Heuvel  : Paramagnetic NMR
   Boris Wezisla          : Elementary symmetry handling
   Frank Wennmohs         : Technical directorship


 We gratefully acknowledge several colleagues who have allowed us to
 interface, adapt or use parts of their codes:
   Stefan Grimme, W. Hujo, H. Kruse, P. Pracht,  : VdW corrections, initial TS optimization,
                  C. Bannwarth, S. Ehlert          DFT functionals, gCP, sTDA/sTD-DF
   Ed Valeev, F. Pavosevic, A. Kumar             : LibInt (2-el integral package), F12 methods
   Garnet Chan, S. Sharma, J. Yang, R. Olivares  : DMRG
   Ulf Ekstrom                                   : XCFun DFT Library
   Mihaly Kallay                                 : mrcc  (arbitrary order and MRCC methods)
   Jiri Pittner, Ondrej Demel                    : Mk-CCSD
   Frank Weinhold                                : gennbo (NPA and NBO analysis)
   Christopher J. Cramer and Donald G. Truhlar   : smd solvation model
   Lars Goerigk                                  : TD-DFT with DH, B97 family of functionals
   V. Asgeirsson, H. Jonsson                     : NEB implementation
   FAccTs GmbH                                   : IRC, NEB, NEB-TS, DLPNO-Multilevel, CI-OPT
                                                   MM, QMMM, 2- and 3-layer-ONIOM, Crystal-QMMM,
                                                   LR-CPCM, SF, NACMEs, symmetry and pop. for TD-DFT,
                                                   nearIR, NL-DFT gradient (VV10), updates on ESD,
                                                   ML-optimized integration grids
   S Lehtola, MJT Oliveira, MAL Marques          : LibXC Library
   Liviu Ungur et al                             : ANISO software


 Your calculation uses the libint2 library for the computation of 2-el integrals
 For citations please refer to: http://libint.valeyev.net

 Your ORCA version has been built with support for libXC version: 5.1.0
 For citations please refer to: https://tddft.org/programs/libxc/

 This ORCA versions uses:
   CBLAS   interface :  Fast vector & matrix operations
   LAPACKE interface :  Fast linear algebra routines
   SCALAPACK package :  Parallel linear algebra routines
   Shared memory     :  Shared parallel matrices
   BLAS/LAPACK       :  OpenBLAS 0.3.15  USE64BITINT DYNAMIC_ARCH NO_AFFINITY Sandybridge SINGLE_THREADED
        Core in use  :  Sandybridge
   Copyright (c) 2011-2014, The OpenBLAS Project




***************************************
The coordinates will be read from file: pbe.xyz
***************************************


================================================================================

cite the ECPs for Au [Def2-ECP] as follows:
Ce-Yb(ecp-28): M. Dolg, H. Stoll, H.Preuss, J. Chem. Phys., 1989, 90, 1730-1734.
Y-Cd(ecp-28), Hf-Hg(ecp-46): D. Andrae,U. Haeussermann, M. Dolg, H. Stoll, H. Preuss, Theor. Chim. Acta, 1990, 77, 123-141.
In-Sb(ecp-28), Tl-Bi(ecp-46): B. Metz, H. Stoll, M. Dolg, J. Chem. Phys., 2000, 113, 2563-2569.
Te-Xe(ecp-28), Po-Rn(ecp-46): K. A. Peterson, D. Figgen, E. Goll, H. Stoll, M. Dolg, J. Chem. Phys., 2003, 119, 11113-11123.
Rb(ecp-28), Cs(ecp-46): T. Leininger, A. Nicklass, W. Kuechle, H. Stoll, M. Dolg, A. Bergner, Chem. Phys. Lett., 1996, 255, 274-280.
Sr(ecp-28), Ba(ecp-46): M. Kaupp, P. V. Schleyer, H. Stoll and H. Preuss, J. Chem. Phys., 1991, 94, 1360-1366.
La(ecp-46): M. Dolg, H. Stoll, A. Savin, H. Preuss, Theor. Chim. Acta, 1989, 75, 173-194.
Lu(ecp-28): X. Cao, M. Dolg, J. Chem. Phys., 2001, 115, 7348-7355.

ECP parameters for Au [Def2-ECP] have been obtained from:
TURBOMOLE (7.0.2)

----- Orbital basis set information -----
Your calculation utilizes the basis: def2-TZVP
   F. Weigend and R. Ahlrichs, Phys. Chem. Chem. Phys. 7, 3297 (2005).

----- AuxJ basis set information -----
Your calculation utilizes the auxiliary basis: def2/J
   F. Weigend, Phys. Chem. Chem. Phys. 8, 1057 (2006).

================================================================================
                                        WARNINGS
                       Please study these warnings very carefully!
================================================================================

Using LibXC functional ID 497 : Re-regularized SCAN exchange by Furness et al
[ 1]  J. W. Furness, A. D. Kaplan, J. Ning, J. P. Perdew, and J. Sun, J. Phys. Chem. Lett. 11, 8208 (2020)
[ 2]  J. W. Furness, A. D. Kaplan, J. Ning, J. P. Perdew, and J. Sun, J. Phys. Chem. Lett. 11, 9248 (2020)
Using LibXC functional ID 498 : Re-regularized SCAN correlation by Furness et al
[ 1]  J. W. Furness, A. D. Kaplan, J. Ning, J. P. Perdew, and J. Sun, J. Phys. Chem. Lett. 11, 8208 (2020)
[ 2]  J. W. Furness, A. D. Kaplan, J. Ning, J. P. Perdew, and J. Sun, J. Phys. Chem. Lett. 11, 9248 (2020)
Using LibXC functional ID 497 : Re-regularized SCAN exchange by Furness et al
[ 1]  J. W. Furness, A. D. Kaplan, J. Ning, J. P. Perdew, and J. Sun, J. Phys. Chem. Lett. 11, 8208 (2020)
[ 2]  J. W. Furness, A. D. Kaplan, J. Ning, J. P. Perdew, and J. Sun, J. Phys. Chem. Lett. 11, 9248 (2020)
Using LibXC functional ID 498 : Re-regularized SCAN correlation by Furness et al
[ 1]  J. W. Furness, A. D. Kaplan, J. Ning, J. P. Perdew, and J. Sun, J. Phys. Chem. Lett. 11, 8208 (2020)
[ 2]  J. W. Furness, A. D. Kaplan, J. Ning, J. P. Perdew, and J. Sun, J. Phys. Chem. Lett. 11, 9248 (2020)

WARNING: your system is open-shell and RHF/RKS was chosen
  ===> : WILL SWITCH to UHF/UKS


INFO   : the flag for use of the SHARK integral package has been found!



***************************************
The coordinates will be read from file: pbe.xyz
***************************************


================================================================================

cite the ECPs for Au [Def2-ECP] as follows:
Ce-Yb(ecp-28): M. Dolg, H. Stoll, H.Preuss, J. Chem. Phys., 1989, 90, 1730-1734.
Y-Cd(ecp-28), Hf-Hg(ecp-46): D. Andrae,U. Haeussermann, M. Dolg, H. Stoll, H. Preuss, Theor. Chim. Acta, 1990, 77, 123-141.
In-Sb(ecp-28), Tl-Bi(ecp-46): B. Metz, H. Stoll, M. Dolg, J. Chem. Phys., 2000, 113, 2563-2569.
Te-Xe(ecp-28), Po-Rn(ecp-46): K. A. Peterson, D. Figgen, E. Goll, H. Stoll, M. Dolg, J. Chem. Phys., 2003, 119, 11113-11123.
Rb(ecp-28), Cs(ecp-46): T. Leininger, A. Nicklass, W. Kuechle, H. Stoll, M. Dolg, A. Bergner, Chem. Phys. Lett., 1996, 255, 274-280.
Sr(ecp-28), Ba(ecp-46): M. Kaupp, P. V. Schleyer, H. Stoll and H. Preuss, J. Chem. Phys., 1991, 94, 1360-1366.
La(ecp-46): M. Dolg, H. Stoll, A. Savin, H. Preuss, Theor. Chim. Acta, 1989, 75, 173-194.
Lu(ecp-28): X. Cao, M. Dolg, J. Chem. Phys., 2001, 115, 7348-7355.

ECP parameters for Au [Def2-ECP] have been obtained from:
TURBOMOLE (7.0.2)

----- Orbital basis set information -----
Your calculation utilizes the basis: def2-TZVP
   F. Weigend and R. Ahlrichs, Phys. Chem. Chem. Phys. 7, 3297 (2005).

----- AuxJ basis set information -----
Your calculation utilizes the auxiliary basis: def2/J
   F. Weigend, Phys. Chem. Chem. Phys. 8, 1057 (2006).

================================================================================
                                        WARNINGS
                       Please study these warnings very carefully!
================================================================================

Using LibXC functional ID 497 : Re-regularized SCAN exchange by Furness et al
[ 1]  J. W. Furness, A. D. Kaplan, J. Ning, J. P. Perdew, and J. Sun, J. Phys. Chem. Lett. 11, 8208 (2020)
[ 2]  J. W. Furness, A. D. Kaplan, J. Ning, J. P. Perdew, and J. Sun, J. Phys. Chem. Lett. 11, 9248 (2020)
Using LibXC functional ID 498 : Re-regularized SCAN correlation by Furness et al
[ 1]  J. W. Furness, A. D. Kaplan, J. Ning, J. P. Perdew, and J. Sun, J. Phys. Chem. Lett. 11, 8208 (2020)
[ 2]  J. W. Furness, A. D. Kaplan, J. Ning, J. P. Perdew, and J. Sun, J. Phys. Chem. Lett. 11, 9248 (2020)
Using LibXC functional ID 497 : Re-regularized SCAN exchange by Furness et al
[ 1]  J. W. Furness, A. D. Kaplan, J. Ning, J. P. Perdew, and J. Sun, J. Phys. Chem. Lett. 11, 8208 (2020)
[ 2]  J. W. Furness, A. D. Kaplan, J. Ning, J. P. Perdew, and J. Sun, J. Phys. Chem. Lett. 11, 9248 (2020)
Using LibXC functional ID 498 : Re-regularized SCAN correlation by Furness et al
[ 1]  J. W. Furness, A. D. Kaplan, J. Ning, J. P. Perdew, and J. Sun, J. Phys. Chem. Lett. 11, 8208 (2020)
[ 2]  J. W. Furness, A. D. Kaplan, J. Ning, J. P. Perdew, and J. Sun, J. Phys. Chem. Lett. 11, 9248 (2020)

INFO   : the flag for use of the SHARK integral package has been found!

================================================================================
                                       INPUT FILE
================================================================================
NAME = scan.inp
|  1> !R2SCAN def2-TZVP VERYSLOWCONV
|  2> !KDIIS
|  3> %scf
|  4>   AutoTRAHIter 200
|  5>   maxiter 400
|  6> end
|  7> 
|  8> %pal nprocs 6 end 
|  9> 
| 10> *xyzfile 0 5 pbe.xyz
| 11> 
| 12> $new_job
| 13> 
| 14> !R2SCAN def2-TZVP VERYSLOWCONV
| 15> !KDIIS
| 16> %scf
| 17>   AutoTRAHIter 200
| 18>   maxiter 400
| 19> end
| 20> 
| 21> 
| 22> %pal nprocs 6 end 
| 23> 
| 24> *xyzfile 0 3 pbe.xyz
| 25> 
| 26> 
| 27> 
| 28> 
| 29> 
| 30>                          ****END OF INPUT****
================================================================================


                 $$$$$$$$$$$$$$$$$$$$$$$$$$$$$$$$$$$$$$$$$$$$$$ 
                 $ THERE ARE  2 JOBS TO BE PROCESSED THIS RUN $
                 $$$$$$$$$$$$$$$$$$$$$$$$$$$$$$$$$$$$$$$$$$$$$$ 




                 $$$$$$$$$$$$$$$$  JOB NUMBER  1 $$$$$$$$$$$$$$


                       ****************************
                       * Single Point Calculation *
                       ****************************

---------------------------------
CARTESIAN COORDINATES (ANGSTROEM)
---------------------------------
  Au     7.870552    7.660447    6.616725
  Au     6.530426    5.274785    6.810537
  Au     9.224945    5.225703    7.795816
  Au    11.727857    8.770919    8.831076
  Au     9.400320    9.779146    7.395573
  Au    10.741287    7.212910    6.763118
  Au    10.780754    7.541372   11.146405
  Au     9.616068   10.028993   10.162712
  Au     7.875538    8.129260   11.177177
  Au     9.028726    5.510302   10.657801
  Au     7.250332    3.957279    9.260531
  Au     6.750565    6.778674    9.121643
  Fe     9.277243    7.632082    8.957268

----------------------------
CARTESIAN COORDINATES (A.U.)
----------------------------
  NO LB      ZA    FRAG     MASS         X           Y           Z
   0 Au   19.0000*   0   196.966   14.873187   14.476147   12.503799
   1 Au   19.0000*   0   196.966   12.340718    9.967900   12.870050
   2 Au   19.0000*   0   196.966   17.432619    9.875148   14.731957
   3 Au   19.0000*   0   196.966   22.162438   16.574635   16.688315
   4 Au   19.0000*   0   196.966   17.764029   18.479909   13.975607
   5 Au   19.0000*   0   196.966   20.298091   13.630425   12.780440
   6 Au   19.0000*   0   196.966   20.372672   14.251129   21.063653
   7 Au   19.0000*   0   196.966   18.171735   18.952050   19.204742
   8 Au   19.0000*   0   196.966   14.882610   15.362075   21.121803
   9 Au   19.0000*   0   196.966   17.061819   10.412962   20.140326
  10 Au   19.0000*   0   196.966   13.701141    7.478173   17.499868
  11 Au   19.0000*   0   196.966   12.756718   12.809837   17.237407
  12 Fe   26.0000    0    55.850   17.531448   14.422545   16.926783
* core charge reduced due to ECP

--------------------------------
INTERNAL COORDINATES (ANGSTROEM)
--------------------------------
 Au     0   0   0     0.000000000000     0.00000000     0.00000000
 Au     1   0   0     2.743151373889     0.00000000     0.00000000
 Au     2   1   0     2.869426957636    65.18943253     0.00000000
 Au     3   2   1     4.461489535566   126.36250316    16.74595279
 Au     1   2   3     2.726844431498   158.37433171   311.46447193
 Au     3   2   1     2.704579966916   112.50742889   338.32126183
 Au     4   3   2     2.787389403022    69.61108275   103.81568928
 Au     5   1   2     2.786759204966   113.37226399   342.78343689
 Au     8   5   1     2.769037690096   104.69116322   353.17903830
 Au     7   4   3     2.726459912179   113.45883488   354.12020215
 Au    10   7   4     2.743525332396   158.35793331   342.75908174
 Au     9   8   5     2.704601142263   109.00249764     1.65142079
 Fe     7   4   3     2.657272702793    59.52814980   324.55200457

---------------------------
INTERNAL COORDINATES (A.U.)
---------------------------
 Au     0   0   0     0.000000000000     0.00000000     0.00000000
 Au     1   0   0     5.183804840541     0.00000000     0.00000000
 Au     2   1   0     5.422431111222    65.18943253     0.00000000
 Au     3   2   1     8.430993371576   126.36250316    16.74595279
 Au     1   2   3     5.152989185339   158.37433171   311.46447193
 Au     3   2   1     5.110915444761   112.50742889   338.32126183
 Au     4   3   2     5.267402600306    69.61108275   103.81568928
 Au     5   1   2     5.266211698571   113.37226399   342.78343689
 Au     8   5   1     5.232722888788   104.69116322   353.17903830
 Au     7   4   3     5.152262549134   113.45883488   354.12020215
 Au    10   7   4     5.184511519704   158.35793331   342.75908174
 Au     9   8   5     5.110955460368   109.00249764     1.65142079
 Fe     7   4   3     5.021517671423    59.52814980   324.55200457

---------------------
BASIS SET INFORMATION
---------------------
There are 2 groups of distinct atoms

 Group   1 Type Au  : 8s7p6d1f contracted to 6s4p3d1f pattern {311111/4111/411/1}
 Group   2 Type Fe  : 17s11p7d1f contracted to 6s4p4d1f pattern {842111/6311/4111/1}

Atom   0Au   basis set group =>   1
Atom   1Au   basis set group =>   1
Atom   2Au   basis set group =>   1
Atom   3Au   basis set group =>   1
Atom   4Au   basis set group =>   1
Atom   5Au   basis set group =>   1
Atom   6Au   basis set group =>   1
Atom   7Au   basis set group =>   1
Atom   8Au   basis set group =>   1
Atom   9Au   basis set group =>   1
Atom  10Au   basis set group =>   1
Atom  11Au   basis set group =>   1
Atom  12Fe   basis set group =>   2
---------------------------------
AUXILIARY/J BASIS SET INFORMATION
---------------------------------
There are 2 groups of distinct atoms

 Group   1 Type Au  : 11s5p5d3f3g contracted to 8s5p5d2f3g pattern {41111111/11111/11111/21/111}
 Group   2 Type Fe  : 19s5p5d3f3g contracted to 8s5p5d2f3g pattern {121111111/11111/11111/21/111}

Atom   0Au   basis set group =>   1
Atom   1Au   basis set group =>   1
Atom   2Au   basis set group =>   1
Atom   3Au   basis set group =>   1
Atom   4Au   basis set group =>   1
Atom   5Au   basis set group =>   1
Atom   6Au   basis set group =>   1
Atom   7Au   basis set group =>   1
Atom   8Au   basis set group =>   1
Atom   9Au   basis set group =>   1
Atom  10Au   basis set group =>   1
Atom  11Au   basis set group =>   1
Atom  12Fe   basis set group =>   2
-------------------------
ECP PARAMETER INFORMATION
-------------------------

 Group 1, Type Au ECP Def2-ECP (replacing 60 core electrons, lmax=3)

Atom   0Au   ECP group =>   1
Atom   1Au   ECP group =>   1
Atom   2Au   ECP group =>   1
Atom   3Au   ECP group =>   1
Atom   4Au   ECP group =>   1
Atom   5Au   ECP group =>   1
Atom   6Au   ECP group =>   1
Atom   7Au   ECP group =>   1
Atom   8Au   ECP group =>   1
Atom   9Au   ECP group =>   1
Atom  10Au   ECP group =>   1
Atom  11Au   ECP group =>   1



           ************************************************************
           *        Program running with 6 parallel MPI-processes     *
           *              working on a common directory               *
           ************************************************************
------------------------------------------------------------------------------
                           ORCA GTO INTEGRAL CALCULATION
                           -- RI-GTO INTEGRALS CHOSEN --
------------------------------------------------------------------------------
------------------------------------------------------------------------------
                   ___                                                        
                  /   \      - P O W E R E D   B Y -                         
                 /     \                                                     
                 |  |  |   _    _      __       _____    __    __             
                 |  |  |  | |  | |    /  \     |  _  \  |  |  /  |          
                  \  \/   | |  | |   /    \    | | | |  |  | /  /          
                 / \  \   | |__| |  /  /\  \   | |_| |  |  |/  /          
                |  |  |   |  __  | /  /__\  \  |    /   |      \           
                |  |  |   | |  | | |   __   |  |    \   |  |\   \          
                \     /   | |  | | |  |  |  |  | |\  \  |  | \   \       
                 \___/    |_|  |_| |__|  |__|  |_| \__\ |__|  \__/        
                                                                              
                      - O R C A' S   B I G   F R I E N D -                    
                                      &                                       
                       - I N T E G R A L  F E E D E R -                       
                                                                              
 v1 FN, 2020, v2 2021                                                         
------------------------------------------------------------------------------


Reading SHARK input file scan.SHARKINP.tmp ... ok
----------------------
SHARK INTEGRAL PACKAGE
----------------------

Number of atoms                             ...     13
Number of basis functions                   ...    525
Number of shells                            ...    183
Maximum angular momentum                    ...      3
Integral batch strategy                     ... SHARK/LIBINT Hybrid
RI-J (if used) integral strategy            ... SPLIT-RIJ (Revised 2003 algorithm where possible)
Printlevel                                  ...      1
Contraction scheme used                     ... SEGMENTED contraction
Coulomb Range Separation                    ... NOT USED
Exchange Range Separation                   ... NOT USED
Finite Nucleus Model                        ... NOT USED
Auxiliary Coulomb fitting basis             ... AVAILABLE
   # of basis functions in Aux-J            ...   1157
   # of shells in Aux-J                     ...    299
   Maximum angular momentum in Aux-J        ...      4
Auxiliary J/K fitting basis                 ... NOT available
Auxiliary Correlation fitting basis         ... NOT available
Auxiliary 'external' fitting basis          ... NOT available
Integral threshold                          ...     1.000000e-10
Primitive cut-off                           ...     1.000000e-11
Primitive pair pre-selection threshold      ...     1.000000e-11

Calculating pre-screening integrals         ... done (  0.2 sec) Dimension = 183
Organizing shell pair data                  ... done (  0.4 sec)
Shell pair information
Total number of shell pairs                 ...     16836
Shell pairs after pre-screening             ...     13718
Total number of primitive shell pairs       ...     45389
Primitive shell pairs kept                  ...     27015
          la=0 lb=0:   2154 shell pairs
          la=1 lb=0:   3150 shell pairs
          la=1 lb=1:   1167 shell pairs
          la=2 lb=0:   2730 shell pairs
          la=2 lb=1:   1910 shell pairs
          la=2 lb=2:    789 shell pairs
          la=3 lb=0:    718 shell pairs
          la=3 lb=1:    550 shell pairs
          la=3 lb=2:    474 shell pairs
          la=3 lb=3:     76 shell pairs

Calculating one electron integrals          ... done (  0.0 sec)
Calculating ECP integrals                   ... done (  8.0 sec)
Calculating RI/J V-Matrix + Cholesky decomp.... done (  0.1 sec)
Calculating Nuclear repulsion               ... done (  0.0 sec) ENN=   4410.484509629082 Eh

SHARK setup successfully completed in   9.1 seconds

Maximum memory used throughout the entire GTOINT-calculation: 30.7 MB


           ************************************************************
           *        Program running with 6 parallel MPI-processes     *
           *              working on a common directory               *
           ************************************************************
-------------------------------------------------------------------------------
                                 ORCA SCF
-------------------------------------------------------------------------------

------------
SCF SETTINGS
------------
Hamiltonian:
 Density Functional     Method          .... DFT(GTOs)
  Functional kind                       .... Exchange
  Functional name                       .... Re-regularized SCAN exchange by Furness et al
  Functional family                     .... MGGA
  Functional refs                              
    [ 0] J. W. Furness, A. D. Kaplan, J. Ning, J. P. Perdew, and J. Sun, J. Phys. Chem. Lett. 11, 8208 (2020)
    [ 1] J. W. Furness, A. D. Kaplan, J. Ning, J. P. Perdew, and J. Sun, J. Phys. Chem. Lett. 11, 9248 (2020)
  Functional external parameters         .... 8
 Parameter  0 :         c1 parameter
 Parameter  1 :         c2 parameter
 Parameter  2 :          d parameter
 Parameter  3 :         k1 parameter
 Parameter  4 :       taur parameter
 Parameter  5 :     alphar parameter
 Parameter  6 :        eta parameter
 Parameter  7 :        dp2 parameter
  Functional kind                       .... Correlation
  Functional name                       .... Re-regularized SCAN correlation by Furness et al
  Functional family                     .... MGGA
  Functional refs                              
    [ 0] J. W. Furness, A. D. Kaplan, J. Ning, J. P. Perdew, and J. Sun, J. Phys. Chem. Lett. 11, 8208 (2020)
    [ 1] J. W. Furness, A. D. Kaplan, J. Ning, J. P. Perdew, and J. Sun, J. Phys. Chem. Lett. 11, 9248 (2020)
  Functional external parameters         .... 0
 Gradients option       PostSCFGGA      .... off
   Density functional embedding theory  .... OFF
   NL short-range parameter             .... 12.300000
 RI-approximation to the Coulomb term is turned on
   Number of AuxJ basis functions       .... 1157


General Settings:
 Integral files         IntName         .... scan
 Hartree-Fock type      HFTyp           .... UHF
 Total Charge           Charge          ....    0
 Multiplicity           Mult            ....    5
 Number of Electrons    NEL             ....  254
 Basis Dimension        Dim             ....  525
 Nuclear Repulsion      ENuc            ....   4410.4845096291 Eh

Convergence Acceleration:
 DIIS                   CNVDIIS         .... off
 Trust-Rad. Augm. Hess. CNVTRAH         .... auto
   Auto Start mean grad. ratio tolernc. ....  1.125000
   Auto Start start iteration           ....   200
   Auto Start num. interpolation iter.  ....    10
   Max. Number of Micro iterations      ....    16
   Max. Number of Macro iterations      .... Maxiter - #DIIS iter
   Number of Davidson start vectors     ....     2
   Converg. threshold I  (grad. norm)   ....   5.000e-05
   Converg. threshold II (energy diff.) ....   1.000e-06
   Grad. Scal. Fac. for Micro threshold ....   0.100
   Minimum threshold for Micro iter.    ....   0.010
   NR start threshold (gradient norm)   ....   0.001
   Initial trust radius                 ....   0.400
   Minimum AH scaling param. (alpha)    ....   1.000
   Maximum AH scaling param. (alpha)    .... 1000.000
   Orbital update algorithm             .... Taylor
   White noise on init. David. guess    .... on
   Maximum white noise                  ....   0.010
   Quad. conv. algorithm                .... NR
 SOSCF                  CNVSOSCF        .... off
 Level Shifting         CNVShift        .... off
 Zerner damping         CNVZerner       .... off
 Static damping         CNVDamp         .... off
 Fernandez-Rico         CNVRico         .... off

SCF Procedure:
 Maximum # iterations   MaxIter         ....   400
 SCF integral mode      SCFMode         .... Direct
   Integral package                     .... SHARK and LIBINT hybrid scheme
 Reset frequency        DirectResetFreq ....    20
 Integral Threshold     Thresh          ....  1.000e-10 Eh
 Primitive CutOff       TCut            ....  1.000e-11 Eh

Convergence Tolerance:
 Convergence Check Mode ConvCheckMode   .... All-Criteria
 Convergence forced     ConvForced      .... 0
 Energy Change          TolE            ....  1.000e-06 Eh
 Max Density Change     TolMaxP         ....  1.000e-05
 RMS Density Change     TolRMSP         ....  1.000e-06


Diagonalization of the overlap matrix:
Smallest eigenvalue                        ... 3.918e-04
Time for diagonalization                   ...    0.075 sec
Threshold for overlap eigenvalues          ... 1.000e-08
Number of eigenvalues below threshold      ... 0
Time for construction of square roots      ...    0.041 sec
Total time needed                          ...    0.118 sec

Time for model grid setup =    0.507 sec

------------------------------
INITIAL GUESS: MODEL POTENTIAL
------------------------------
Loading Hartree-Fock densities                     ... done
  calling /home/ehlert/src/miniconda3/envs/orca500/Programs/ORCA501/orca scan_atom79.inp > scan_atom79.out in order to generate an atomic fitting density for atom 0 (Au with ECP) on-the-fly... 
    atom 0 (Au), assumed electronic state with S=2: 1s2 2s2 2p6 3s2 3p6 4s2 3d10 4p6 5s2 4d10 5p6 6s1 4f14 5d10           ... done
Calculating cut-offs                               ... done
Initializing the effective Hamiltonian             ... done
Setting up the integral package (SHARK)            ... done
Starting the Coulomb interaction                   ... done (   0.4 sec)
Reading the grid                                   ... done
Mapping shells                                     ... done
Starting the XC term evaluation                    ... done (   0.4 sec)
  promolecular density results
     # of electrons  =    974.013092614
     EX              =  -4443.981384027
     EC              =    -59.278020544
     EX+EC           =  -4503.259404571
Transforming the Hamiltonian                       ... done (   0.0 sec)
Diagonalizing the Hamiltonian                      ... done (   0.1 sec)
Back transforming the eigenvectors                 ... done (   0.0 sec)
Now organizing SCF variables                       ... done
                      ------------------
                      INITIAL GUESS DONE (   2.3 sec)
                      ------------------
-------------------
DFT GRID GENERATION
-------------------

General Integration Accuracy     IntAcc      ... 4.388
Radial Grid Type                 RadialGrid  ... OptM3 with GC (2021)
Angular Grid (max. ang.)         AngularGrid ... 4 (Lebedev-302)
Angular grid pruning method      GridPruning ... 4 (adaptive)
Weight generation scheme         WeightScheme... Becke
Basis function cutoff            BFCut       ... 1.0000e-10
Integration weight cutoff        WCut        ... 1.0000e-14
Angular grids for H and He will be reduced by one unit
Partially contracted basis set               ... off
Rotationally invariant grid construction     ... off

Total number of grid points                  ...   144655
Total number of batches                      ...     2267
Average number of points per batch           ...       63
Average number of grid points per atom       ...    11127
Time for grid setup =    1.621 sec

--------------
SCF ITERATIONS
--------------
ITER       Energy         Delta-E        Max-DP      RMS-DP      [F,P]   Gradient Norm
               ***  Starting incremental Fock matrix formation  ***
                             ****Resetting KDIIS****
                             ****Turning on KDIIS(Cayley)****
  0  -2890.3054395420   0.000000000000 0.34425030  0.00208142  0.4078648   0.263265264
  1  -2892.4291271275  -2.123687585480 0.67904405  0.00258036  0.3651504   0.176406225
  2  -2893.2119513043  -0.782824176785 0.11089998  0.00156111  0.2888848   0.128212735
  3  -2893.4929836247  -0.281032320420 0.15026245  0.00151299  0.1684375   0.076662481
  4  -2893.5836571365  -0.090673511826 0.09133764  0.00043709  0.0707328   0.025541344
  5  -2893.6389944677  -0.055337331190 0.27615212  0.00092957  0.0374946   0.013022253
  6  -2893.6850848117  -0.046090344033 0.11359557  0.00125077  0.0480392   0.014838646
  7  -2893.7380296757  -0.052944863954 0.07405005  0.00039531  0.0180778   0.009761232
  8  -2893.7505822026  -0.012552526962 0.03418270  0.00023864  0.0178632   0.009787883
  9  -2893.7610791015  -0.010496898861 0.02013453  0.00021319  0.0160632   0.005517111
 10  -2893.7699882062  -0.008909104716 0.04938441  0.00034142  0.0125425   0.004206532
 11  -2893.7821111144  -0.012122908176 0.02549575  0.00029329  0.0123378   0.003648640
 12  -2893.7921322026  -0.010021088186 0.01125721  0.00017381  0.0121077   0.002446899
 13  -2893.7966374680  -0.004505265450 0.02299723  0.00020491  0.0112892   0.002952156
 14  -2893.8016201241  -0.004982656024 0.01304752  0.00012053  0.0103647   0.002252285
 15  -2893.8040594884  -0.002439364376 0.01053148  0.00016281  0.0102044   0.001866136
 16  -2893.8073159314  -0.003256442946 0.00817374  0.00014118  0.0088293   0.001432847
 17  -2893.8097267587  -0.002410827334 0.01208832  0.00013778  0.0071322   0.001500170
 18  -2893.8114114879  -0.001684729173 0.01572608  0.00011678  0.0058048   0.001895374
 19  -2893.8127950469  -0.001383559063 0.01406363  0.00014903  0.0047567   0.001233203
               *** Restarting incremental Fock matrix formation ***
                             ****Resetting KDIIS****
 20  -2893.8138785603  -0.001083513359 0.00089286  0.00001324  0.0031603   0.001592399
 21  -2893.8140578711  -0.000179310796 0.00101003  0.00001275  0.0029728   0.001072413
 22  -2893.8141609348  -0.000103063699 0.00213172  0.00002582  0.0028769   0.000891627
 23  -2893.8143545321  -0.000193597319 0.01010808  0.00011826  0.0028562   0.000660084
 24  -2893.8148723230  -0.000517790854 0.00993930  0.00013117  0.0022337   0.000850685
 25  -2893.8152998410  -0.000427518037 0.00365317  0.00002533  0.0011213   0.000384423
 26  -2893.8153546369  -0.000054795863 0.00314073  0.00003736  0.0012025   0.000571734
 27  -2893.8154520727  -0.000097435816 0.00416308  0.00004093  0.0009044   0.000215348
 28  -2893.8155361862  -0.000084113529 0.00232930  0.00002188  0.0009580   0.000263004
 29  -2893.8156054163  -0.000069230122 0.00150372  0.00001360  0.0010007   0.000171510
 30  -2893.8156482960  -0.000042879689 0.00044894  0.00000643  0.0010278   0.000172122
                          ***Energy convergence achieved***
 31  -2893.8156485765  -0.000000280460 0.00018232  0.00000161  0.0010300   0.000177840
 32  -2893.8156527314  -0.000004154957 0.00055419  0.00000507  0.0010309   0.000175343
 33  -2893.8156643092  -0.000011577769 0.00069665  0.00000643  0.0010353   0.000179719
 34  -2893.8156735170  -0.000009207756 0.00086024  0.00000889  0.0010441   0.000185329
 35  -2893.8156984043  -0.000024887346 0.00096331  0.00001235  0.0010665   0.000198533
 36  -2893.8156921103   0.000006293995 0.00036284  0.00000311  0.0010683   0.000194782
 37  -2893.8157004764  -0.000008366099 0.00087535  0.00000842  0.0010733   0.000193951
 38  -2893.8157223650  -0.000021888613 0.00076148  0.00000710  0.0011007   0.000199627
 39  -2893.8157468767  -0.000024511638 0.00069895  0.00000748  0.0011042   0.000218288
               *** Restarting incremental Fock matrix formation ***
                             ****Resetting KDIIS****
 40  -2893.8157655457  -0.000018668982 0.00013415  0.00000213  0.0011142   0.000239629
 41  -2893.8157702863  -0.000004740637 0.00036550  0.00000391  0.0011211   0.000201195
 42  -2893.8157837106  -0.000013424338 0.00061237  0.00000650  0.0011382   0.000194808
 43  -2893.8158055965  -0.000021885917 0.01656019  0.00016296  0.0011680   0.000194570
 44  -2893.8153924393   0.000413157210 0.00223107  0.00003201  0.0007067   0.000268475
 45  -2893.8153505226   0.000041916708 0.00484886  0.00002389  0.0006401   0.000167625
 46  -2893.8153480838   0.000002438875 0.00112282  0.00001053  0.0006016   0.000151352
 47  -2893.8153454447   0.000002639004 0.00033020  0.00000500  0.0006051   0.000249234
 48  -2893.8153588237  -0.000013378985 0.00229563  0.00003034  0.0005896   0.000128985
 49  -2893.8153821975  -0.000023373813 0.00075884  0.00000851  0.0005502   0.000108561
 50  -2893.8153934435  -0.000011245913 0.00056923  0.00000647  0.0005611   0.000107025
 51  -2893.8154008137  -0.000007370217 0.00036631  0.00000466  0.0005711   0.000107646
 52  -2893.8154075066  -0.000006692921 0.00070090  0.00000814  0.0005834   0.000092846
 53  -2893.8154188849  -0.000011378320 0.00028938  0.00000346  0.0005921   0.000089832
 54  -2893.8154206376  -0.000001752638 0.00019815  0.00000275  0.0006031   0.000089782
                          ***Energy convergence achieved***
 55  -2893.8154200692   0.000000568312 0.00012026  0.00000175  0.0005949   0.000090654
 56  -2893.8154210417  -0.000000972416 0.00040186  0.00000392  0.0005915   0.000091541
 57  -2893.8154264229  -0.000005381282 0.00055342  0.00000562  0.0005998   0.000092363
 58  -2893.8154340252  -0.000007602221 0.00031561  0.00000357  0.0006181   0.000098942
 59  -2893.8154360107  -0.000001985564 0.00076509  0.00000871  0.0006290   0.000091913
               *** Restarting incremental Fock matrix formation ***
                             ****Resetting KDIIS****
                           ***RMSP convergence achieved***
 60  -2893.8154306175   0.000005393234 0.00010259  0.00000097  0.0006009   0.000096832
                          ***Energy convergence achieved***
 61  -2893.8154313243  -0.000000706830 0.00021611  0.00000206  0.0006037   0.000092609
 62  -2893.8154342906  -0.000002966274 0.00032607  0.00000307  0.0006090   0.000091445
 63  -2893.8154388301  -0.000004539534 0.00313702  0.00003138  0.0006171   0.000091835
 64  -2893.8153947257   0.000044104404 0.00173986  0.00001830  0.0005389   0.000105996
 65  -2893.8153719427   0.000022782981 0.00345326  0.00001368  0.0004879   0.000087255
 66  -2893.8153652406   0.000006702106 0.00081890  0.00001005  0.0004738   0.000092144
 67  -2893.8153530227   0.000012217928 0.00066538  0.00000758  0.0004382   0.000095201
 68  -2893.8153663912  -0.000013368466 0.00267140  0.00003489  0.0004662   0.000130495
 69  -2893.8153385315   0.000027859718 0.00085624  0.00001203  0.0004107   0.000082203
 70  -2893.8153418880  -0.000003356562 0.00057015  0.00000581  0.0004144   0.000079971
 71  -2893.8153468636  -0.000004975617 0.00070073  0.00000679  0.0004001   0.000082292
 72  -2893.8153540118  -0.000007148153 0.00145655  0.00001310  0.0004088   0.000076911
 73  -2893.8153673873  -0.000013375540 0.00060519  0.00000628  0.0003829   0.000083875
 74  -2893.8153763139  -0.000008926595 0.00037480  0.00000503  0.0004169   0.000083627
 75  -2893.8153724770   0.000003836931 0.00047976  0.00000431  0.0003825   0.000079428
 76  -2893.8153789900  -0.000006513044 0.00039491  0.00000349  0.0003901   0.000069123
 77  -2893.8153832132  -0.000004223141 0.00013934  0.00000162  0.0003906   0.000067549
 78  -2893.8153846610  -0.000001447863 0.00070195  0.00000660  0.0003865   0.000066693
 79  -2893.8153920964  -0.000007435382 0.00033393  0.00000347  0.0003788   0.000067040
               *** Restarting incremental Fock matrix formation ***
                             ****Resetting KDIIS****
                           ***RMSP convergence achieved***
 80  -2893.8153881170   0.000003979458 0.00006628  0.00000065  0.0003739   0.000069048
                          ***Energy convergence achieved***
 81  -2893.8153889731  -0.000000856115 0.00015191  0.00000140  0.0003759   0.000067528
 82  -2893.8153904793  -0.000001506189 0.00019156  0.00000179  0.0003747   0.000067005
 83  -2893.8153922458  -0.000001766504 0.00159278  0.00001397  0.0003713   0.000067337
 84  -2893.8153766034   0.000015642328 0.00073732  0.00000688  0.0003935   0.000071113
 85  -2893.8153687769   0.000007826519 0.00060817  0.00000523  0.0003991   0.000065691
 86  -2893.8153641901   0.000004586802 0.00037332  0.00000484  0.0003965   0.000065124
 87  -2893.8153617883   0.000002401865 0.00103231  0.00001492  0.0004141   0.000070210
 88  -2893.8153732058  -0.000011417541 0.00173436  0.00001617  0.0004221   0.000110059
 89  -2893.8153518294   0.000021376417 0.00052593  0.00000810  0.0003758   0.000092525
 90  -2893.8153601967  -0.000008367295 0.00085838  0.00001192  0.0003979   0.000079345
 91  -2893.8153677889  -0.000007592193 0.00046009  0.00000452  0.0003909   0.000074721
 92  -2893.8153716917  -0.000003902796 0.00038753  0.00000354  0.0003913   0.000068811
                          ***Energy convergence achieved***
 93  -2893.8153723290  -0.000000637309 0.00116329  0.00001584  0.0003558   0.000077460
 94  -2893.8153863717  -0.000014042740 0.00022305  0.00000294  0.0003563   0.000060485
 95  -2893.8153897792  -0.000003407528 0.00090311  0.00000883  0.0004012   0.000099668
 96  -2893.8153945379  -0.000004758679 0.00033632  0.00000157  0.0003500   0.000066785
 97  -2893.8153957366  -0.000001198658 0.00022573  0.00000228  0.0003506   0.000056181
 98  -2893.8153976581  -0.000001921522 0.00062624  0.00000607  0.0003455   0.000052753
 99  -2893.8154039179  -0.000006259761 0.00009754  0.00000106  0.0003462   0.000053174
               *** Restarting incremental Fock matrix formation ***
                             ****Resetting KDIIS****
                           ***RMSP convergence achieved***
100  -2893.8154028306   0.000001087257 0.00004341  0.00000043  0.0003399   0.000049959
                          ***Energy convergence achieved***
101  -2893.8154030510  -0.000000220430 0.00009119  0.00000095  0.0003380   0.000049557
102  -2893.8154040001  -0.000000949073 0.00013912  0.00000145  0.0003371   0.000049442
103  -2893.8154054605  -0.000001460376 0.00052284  0.00000481  0.0003362   0.000049460
104  -2893.8154028400   0.000002620528 0.00029813  0.00000380  0.0003396   0.000049715
105  -2893.8153996520   0.000003187926 0.00065516  0.00000519  0.0003445   0.000049923
                          ***Energy convergence achieved***
106  -2893.8153999065  -0.000000254463 0.00017778  0.00000207  0.0003355   0.000050966
107  -2893.8154003293  -0.000000422786 0.00037302  0.00000556  0.0003522   0.000055222
108  -2893.8153982024   0.000002126897 0.00063214  0.00000871  0.0003503   0.000058587
109  -2893.8153940360   0.000004166337 0.00117517  0.00000906  0.0003424   0.000049051
110  -2893.8153982566  -0.000004220540 0.00030845  0.00000230  0.0003456   0.000049036
                          ***Energy convergence achieved***
111  -2893.8153992325  -0.000000975868 0.00089413  0.00000617  0.0003286   0.000053323
112  -2893.8154024087  -0.000003176239 0.00077368  0.00000447  0.0003231   0.000045620
113  -2893.8154071178  -0.000004709108 0.00074096  0.00000416  0.0003226   0.000044370
114  -2893.8154100954  -0.000002977624 0.00063446  0.00000375  0.0003126   0.000042662
115  -2893.8154132593  -0.000003163846 0.00033522  0.00000273  0.0003058   0.000041651
116  -2893.8154148570  -0.000001597753 0.00097056  0.00000558  0.0002982   0.000043370
117  -2893.8154199913  -0.000005134266 0.00022422  0.00000200  0.0002920   0.000041705
118  -2893.8154211029  -0.000001111639 0.00027378  0.00000175  0.0002903   0.000041268
119  -2893.8154227121  -0.000001609203 0.00042248  0.00000261  0.0002882   0.000041267
               *** Restarting incremental Fock matrix formation ***
                             ****Resetting KDIIS****
                           ***RMSP convergence achieved***
120  -2893.8154205719   0.000002140190 0.00005231  0.00000035  0.0002906   0.000041155
                          ***Energy convergence achieved***
121  -2893.8154206632  -0.000000091239 0.00011462  0.00000078  0.0002896   0.000040856

            ***Energy convergence in two consecutive cycles with***
                    ***'reasonable' density convergence***
                       *** signaling convergence ***

                    *** KDIIS BlockDiag ( 0.179 sec) ***

               *****************************************************
               *                     SUCCESS                       *
               *           SCF CONVERGED AFTER 122 CYCLES          *
               *****************************************************


----------------
TOTAL SCF ENERGY
----------------

Total Energy       :        -2893.81542118 Eh          -78744.72091 eV

Components:
Nuclear Repulsion  :         4410.48450963 Eh          120015.38497 eV
Electronic Energy  :        -7304.29993081 Eh         -198760.10589 eV
One Electron Energy:       -13423.42076118 Eh         -365269.84887 eV
Two Electron Energy:         6119.12083037 Eh          166509.74299 eV

Virial components:
Potential Energy   :        -4706.11283724 Eh         -128059.84074 eV
Kinetic Energy     :         1812.29741606 Eh           49315.11982 eV
Virial Ratio       :            2.59676629


DFT components:
N(Alpha)           :      128.999995505837 electrons
N(Beta)            :      124.999995856309 electrons
N(Total)           :      253.999991362146 electrons
E(X)               :     -200.208974424196 Eh       
E(C)               :      -10.562815301894 Eh       
E(XC)              :     -210.771789726091 Eh       
DFET-embed. en.    :        0.000000000000 Eh       

---------------
SCF CONVERGENCE
---------------

  Last Energy change         ...   -5.1343e-07  Tolerance :   1.0000e-06
  Last MAX-Density change    ...    8.3522e-05  Tolerance :   1.0000e-05
  Last RMS-Density change    ...    6.4663e-07  Tolerance :   1.0000e-06

             **** THE GBW FILE WAS UPDATED (scan.gbw) ****
             **** DENSITY scan.scfp WAS UPDATED ****
             **** ENERGY FILE WAS UPDATED (scan.en.tmp) ****
----------------------
UHF SPIN CONTAMINATION
----------------------

Warning: in a DFT calculation there is little theoretical justification to 
         calculate <S**2> as in Hartree-Fock theory. We will do it anyways
         but you should keep in mind that the values have only limited relevance

Expectation value of <S**2>     :     6.085102
Ideal value S*(S+1) for S=2.0   :     6.000000
Deviation                       :     0.085102

             **** THE GBW FILE WAS UPDATED (scan.gbw) ****
             **** DENSITY scan.scfp WAS UPDATED ****
----------------
ORBITAL ENERGIES
----------------
                 SPIN UP ORBITALS
  NO   OCC          E(Eh)            E(eV) 
   0   1.0000    -255.639129     -6956.2943 
   1   1.0000     -29.939732      -814.7015 
   2   1.0000     -25.784768      -701.6392 
   3   1.0000     -25.766605      -701.1450 
   4   1.0000     -25.757948      -700.9094 
   5   1.0000      -4.128952      -112.3545 
   6   1.0000      -4.128192      -112.3338 
   7   1.0000      -4.121823      -112.1605 
   8   1.0000      -4.121143      -112.1420 
   9   1.0000      -4.117786      -112.0507 
  10   1.0000      -4.117753      -112.0498 
  11   1.0000      -4.116932      -112.0274 
  12   1.0000      -4.116922      -112.0271 
  13   1.0000      -4.114385      -111.9581 
  14   1.0000      -4.114138      -111.9514 
  15   1.0000      -4.113983      -111.9472 
  16   1.0000      -4.113756      -111.9410 
  17   1.0000      -3.520833       -95.8067 
  18   1.0000      -2.320408       -63.1415 
  19   1.0000      -2.319200       -63.1086 
  20   1.0000      -2.317578       -63.0645 
  21   1.0000      -2.315357       -63.0041 
  22   1.0000      -2.314613       -62.9838 
  23   1.0000      -2.311982       -62.9122 
  24   1.0000      -2.310655       -62.8761 
  25   1.0000      -2.310170       -62.8629 
  26   1.0000      -2.309806       -62.8530 
  27   1.0000      -2.308666       -62.8220 
  28   1.0000      -2.307965       -62.8029 
  29   1.0000      -2.307081       -62.7789 
  30   1.0000      -2.306732       -62.7694 
  31   1.0000      -2.306429       -62.7611 
  32   1.0000      -2.306136       -62.7531 
  33   1.0000      -2.305234       -62.7286 
  34   1.0000      -2.304533       -62.7095 
  35   1.0000      -2.303951       -62.6937 
  36   1.0000      -2.303796       -62.6895 
  37   1.0000      -2.303582       -62.6837 
  38   1.0000      -2.303525       -62.6821 
  39   1.0000      -2.301910       -62.6382 
  40   1.0000      -2.301652       -62.6311 
  41   1.0000      -2.301529       -62.6278 
  42   1.0000      -2.301259       -62.6204 
  43   1.0000      -2.299881       -62.5829 
  44   1.0000      -2.299310       -62.5674 
  45   1.0000      -2.298952       -62.5577 
  46   1.0000      -2.298607       -62.5483 
  47   1.0000      -2.298530       -62.5462 
  48   1.0000      -2.297578       -62.5203 
  49   1.0000      -2.297400       -62.5154 
  50   1.0000      -2.297276       -62.5120 
  51   1.0000      -2.296948       -62.5031 
  52   1.0000      -2.296890       -62.5015 
  53   1.0000      -2.296110       -62.4803 
  54   1.0000      -2.295766       -62.4710 
  55   1.0000      -2.279482       -62.0278 
  56   1.0000      -2.259632       -61.4877 
  57   1.0000      -0.439294       -11.9538 
  58   1.0000      -0.403883       -10.9902 
  59   1.0000      -0.395497       -10.7620 
  60   1.0000      -0.395492       -10.7619 
  61   1.0000      -0.387077       -10.5329 
  62   1.0000      -0.384892       -10.4735 
  63   1.0000      -0.377561       -10.2740 
  64   1.0000      -0.376203       -10.2370 
  65   1.0000      -0.374098       -10.1797 
  66   1.0000      -0.365847        -9.9552 
  67   1.0000      -0.360891        -9.8203 
  68   1.0000      -0.359034        -9.7698 
  69   1.0000      -0.355285        -9.6678 
  70   1.0000      -0.353762        -9.6263 
  71   1.0000      -0.351300        -9.5594 
  72   1.0000      -0.349006        -9.4969 
  73   1.0000      -0.348413        -9.4808 
  74   1.0000      -0.346506        -9.4289 
  75   1.0000      -0.341421        -9.2905 
  76   1.0000      -0.339672        -9.2429 
  77   1.0000      -0.336578        -9.1588 
  78   1.0000      -0.336278        -9.1506 
  79   1.0000      -0.334249        -9.0954 
  80   1.0000      -0.333077        -9.0635 
  81   1.0000      -0.332066        -9.0360 
  82   1.0000      -0.328689        -8.9441 
  83   1.0000      -0.328012        -8.9256 
  84   1.0000      -0.322422        -8.7735 
  85   1.0000      -0.318915        -8.6781 
  86   1.0000      -0.316899        -8.6233 
  87   1.0000      -0.307464        -8.3665 
  88   1.0000      -0.304500        -8.2859 
  89   1.0000      -0.303687        -8.2637 
  90   1.0000      -0.300588        -8.1794 
  91   1.0000      -0.298317        -8.1176 
  92   1.0000      -0.298119        -8.1122 
  93   1.0000      -0.293432        -7.9847 
  94   1.0000      -0.293301        -7.9811 
  95   1.0000      -0.288631        -7.8541 
  96   1.0000      -0.286705        -7.8016 
  97   1.0000      -0.286246        -7.7892 
  98   1.0000      -0.286062        -7.7841 
  99   1.0000      -0.285408        -7.7663 
 100   1.0000      -0.282771        -7.6946 
 101   1.0000      -0.281874        -7.6702 
 102   1.0000      -0.281388        -7.6569 
 103   1.0000      -0.279607        -7.6085 
 104   1.0000      -0.278218        -7.5707 
 105   1.0000      -0.277513        -7.5515 
 106   1.0000      -0.273634        -7.4460 
 107   1.0000      -0.271750        -7.3947 
 108   1.0000      -0.270783        -7.3684 
 109   1.0000      -0.268947        -7.3184 
 110   1.0000      -0.267957        -7.2915 
 111   1.0000      -0.266460        -7.2507 
 112   1.0000      -0.265896        -7.2354 
 113   1.0000      -0.265574        -7.2266 
 114   1.0000      -0.262966        -7.1557 
 115   1.0000      -0.261438        -7.1141 
 116   1.0000      -0.261152        -7.1063 
 117   1.0000      -0.258358        -7.0303 
 118   1.0000      -0.257188        -6.9984 
 119   1.0000      -0.254766        -6.9325 
 120   1.0000      -0.254339        -6.9209 
 121   1.0000      -0.253055        -6.8860 
 122   1.0000      -0.251238        -6.8365 
 123   1.0000      -0.250612        -6.8195 
 124   1.0000      -0.242300        -6.5933 
 125   1.0000      -0.230119        -6.2619 
 126   1.0000      -0.216962        -5.9038 
 127   1.0000      -0.206865        -5.6291 
 128   1.0000      -0.177828        -4.8389 
 129   0.0000      -0.181594        -4.9414 
 130   0.0000      -0.153055        -4.1648 
 131   0.0000      -0.127271        -3.4632 
 132   0.0000      -0.118553        -3.2260 
 133   0.0000      -0.112444        -3.0597 
 134   0.0000      -0.105046        -2.8584 
 135   0.0000      -0.079173        -2.1544 
 136   0.0000      -0.057699        -1.5701 
 137   0.0000      -0.055351        -1.5062 
 138   0.0000      -0.048097        -1.3088 
 139   0.0000      -0.038621        -1.0509 
 140   0.0000      -0.028048        -0.7632 
 141   0.0000      -0.019333        -0.5261 
 142   0.0000      -0.017297        -0.4707 
 143   0.0000      -0.016180        -0.4403 
 144   0.0000       0.000867         0.0236 
 145   0.0000       0.007941         0.2161 
 146   0.0000       0.012599         0.3428 
 147   0.0000       0.038943         1.0597 
 148   0.0000       0.048871         1.3299 
 149   0.0000       0.051236         1.3942 
 150   0.0000       0.054703         1.4885 
 151   0.0000       0.058570         1.5938 
 152   0.0000       0.059993         1.6325 
 153   0.0000       0.066297         1.8040 
 154   0.0000       0.071118         1.9352 
 155   0.0000       0.075369         2.0509 
 156   0.0000       0.076835         2.0908 
 157   0.0000       0.083610         2.2751 
 158   0.0000       0.086086         2.3425 
 159   0.0000       0.091437         2.4881 
 160   0.0000       0.100905         2.7458 
 161   0.0000       0.101178         2.7532 
 162   0.0000       0.107476         2.9246 
 163   0.0000       0.115804         3.1512 
 164   0.0000       0.116439         3.1685 
 165   0.0000       0.122692         3.3386 
 166   0.0000       0.135235         3.6799 
 167   0.0000       0.135947         3.6993 
 168   0.0000       0.144010         3.9187 
 169   0.0000       0.157309         4.2806 
 170   0.0000       0.161038         4.3821 
 171   0.0000       0.164812         4.4848 
 172   0.0000       0.175431         4.7737 
 173   0.0000       0.181863         4.9487 
 174   0.0000       0.188146         5.1197 
 175   0.0000       0.190985         5.1970 
 176   0.0000       0.195054         5.3077 
 177   0.0000       0.198039         5.3889 
 178   0.0000       0.202042         5.4978 
 179   0.0000       0.213795         5.8177 
 180   0.0000       0.223945         6.0938 
 181   0.0000       0.224500         6.1089 
 182   0.0000       0.226238         6.1562 
 183   0.0000       0.229842         6.2543 
 184   0.0000       0.233733         6.3602 
 185   0.0000       0.247313         6.7297 
 186   0.0000       0.252894         6.8816 
 187   0.0000       0.253322         6.8933 
 188   0.0000       0.258860         7.0439 
 189   0.0000       0.262677         7.1478 
 190   0.0000       0.268740         7.3128 
 191   0.0000       0.269332         7.3289 
 192   0.0000       0.273604         7.4451 
 193   0.0000       0.278535         7.5793 
 194   0.0000       0.283228         7.7070 
 195   0.0000       0.284976         7.7546 
 196   0.0000       0.286019         7.7830 
 197   0.0000       0.292518         7.9598 
 198   0.0000       0.295976         8.0539 
 199   0.0000       0.307220         8.3599 
 200   0.0000       0.312559         8.5052 
 201   0.0000       0.316569         8.6143 
 202   0.0000       0.325553         8.8587 
 203   0.0000       0.327784         8.9195 
 204   0.0000       0.335790         9.1373 
 205   0.0000       0.348220         9.4755 
 206   0.0000       0.349856         9.5201 
 207   0.0000       0.355729         9.6799 
 208   0.0000       0.357932         9.7398 
 209   0.0000       0.362192         9.8557 
 210   0.0000       0.362777         9.8717 
 211   0.0000       0.365991         9.9591 
 212   0.0000       0.370761        10.0889 
 213   0.0000       0.372242        10.1292 
 214   0.0000       0.379433        10.3249 
 215   0.0000       0.397233        10.8093 
 216   0.0000       0.402222        10.9450 
 217   0.0000       0.414365        11.2754 
 218   0.0000       0.417533        11.3616 
 219   0.0000       0.419783        11.4229 
 220   0.0000       0.432380        11.7657 
 221   0.0000       0.434331        11.8188 
 222   0.0000       0.436269        11.8715 
 223   0.0000       0.438685        11.9372 
 224   0.0000       0.440019        11.9735 
 225   0.0000       0.461873        12.5682 
 226   0.0000       0.465554        12.6684 
 227   0.0000       0.470302        12.7976 
 228   0.0000       0.472523        12.8580 
 229   0.0000       0.479686        13.0529 
 230   0.0000       0.481148        13.0927 
 231   0.0000       0.489844        13.3293 
 232   0.0000       0.497988        13.5509 
 233   0.0000       0.501851        13.6561 
 234   0.0000       0.502863        13.6836 
 235   0.0000       0.511511        13.9189 
 236   0.0000       0.515420        14.0253 
 237   0.0000       0.519023        14.1233 
 238   0.0000       0.521537        14.1917 
 239   0.0000       0.524014        14.2592 
 240   0.0000       0.527039        14.3415 
 241   0.0000       0.528557        14.3828 
 242   0.0000       0.531672        14.4675 
 243   0.0000       0.538320        14.6484 
 244   0.0000       0.540959        14.7203 
 245   0.0000       0.546634        14.8747 
 246   0.0000       0.551919        15.0185 
 247   0.0000       0.561777        15.2867 
 248   0.0000       0.568427        15.4677 
 249   0.0000       0.583468        15.8770 
 250   0.0000       0.593588        16.1524 
 251   0.0000       0.605444        16.4750 
 252   0.0000       0.658931        17.9304 
 253   0.0000       0.661844        18.0097 
 254   0.0000       0.687569        18.7097 
 255   0.0000       0.692188        18.8354 
 256   0.0000       0.705082        19.1863 
 257   0.0000       0.709436        19.3047 
 258   0.0000       0.710310        19.3285 
 259   0.0000       0.713860        19.4251 
 260   0.0000       0.720106        19.5951 
 261   0.0000       0.733229        19.9522 
 262   0.0000       0.736561        20.0428 
 263   0.0000       0.738079        20.0842 
 264   0.0000       0.769513        20.9395 
 265   0.0000       0.773015        21.0348 
 266   0.0000       0.801793        21.8179 
 267   0.0000       0.807875        21.9834 
 268   0.0000       0.811880        22.0924 
 269   0.0000       0.812346        22.1051 
 270   0.0000       0.819497        22.2996 
 271   0.0000       0.822659        22.3857 
 272   0.0000       0.839817        22.8526 
 273   0.0000       0.856246        23.2996 
 274   0.0000       0.869719        23.6663 
 275   0.0000       0.875694        23.8288 
 276   0.0000       0.882773        24.0215 
 277   0.0000       0.925339        25.1798 
 278   0.0000       0.957046        26.0426 
 279   0.0000       0.957197        26.0467 
 280   0.0000       0.966346        26.2956 
 281   0.0000       0.974128        26.5074 
 282   0.0000       0.987594        26.8738 
 283   0.0000       0.988126        26.8883 
 284   0.0000       1.014453        27.6047 
 285   0.0000       1.015071        27.6215 
 286   0.0000       1.048654        28.5353 
 287   0.0000       1.107556        30.1381 
 288   0.0000       1.152573        31.3631 
 289   0.0000       1.165357        31.7110 
 290   0.0000       1.217963        33.1425 
 291   0.0000       1.238450        33.6999 
 292   0.0000       1.240561        33.7574 
 293   0.0000       1.263900        34.3925 
 294   0.0000       1.285371        34.9767 
 295   0.0000       1.291465        35.1425 
 296   0.0000       1.296129        35.2695 
 297   0.0000       1.315743        35.8032 
 298   0.0000       1.322910        35.9982 
 299   0.0000       1.326006        36.0825 
 300   0.0000       1.339168        36.4406 
 301   0.0000       1.345742        36.6195 
 302   0.0000       1.351488        36.7759 
 303   0.0000       1.372819        37.3563 
 304   0.0000       1.376996        37.4700 
 305   0.0000       1.385231        37.6940 
 306   0.0000       1.387623        37.7591 
 307   0.0000       1.407308        38.2948 
 308   0.0000       1.408959        38.3397 
 309   0.0000       1.427257        38.8376 
 310   0.0000       1.427806        38.8526 
 311   0.0000       1.434872        39.0449 
 312   0.0000       1.454907        39.5900 
 313   0.0000       1.461075        39.7579 
 314   0.0000       1.465737        39.8847 
 315   0.0000       1.469582        39.9894 
 316   0.0000       1.477098        40.1939 
 317   0.0000       1.480466        40.2855 
 318   0.0000       1.481691        40.3189 
 319   0.0000       1.485331        40.4179 
 320   0.0000       1.489210        40.5235 
 321   0.0000       1.491915        40.5971 
 322   0.0000       1.495773        40.7021 
 323   0.0000       1.502141        40.8753 
 324   0.0000       1.504574        40.9415 
 325   0.0000       1.507388        41.0181 
 326   0.0000       1.509433        41.0738 
 327   0.0000       1.511095        41.1190 
 328   0.0000       1.522748        41.4361 
 329   0.0000       1.525221        41.5034 
 330   0.0000       1.528843        41.6019 
 331   0.0000       1.533109        41.7180 
 332   0.0000       1.534669        41.7605 
 333   0.0000       1.535646        41.7870 
 334   0.0000       1.537306        41.8322 
 335   0.0000       1.540078        41.9076 
 336   0.0000       1.541044        41.9340 
 337   0.0000       1.544965        42.0406 
 338   0.0000       1.545900        42.0661 
 339   0.0000       1.548597        42.1395 
 340   0.0000       1.548744        42.1435 
 341   0.0000       1.550392        42.1883 
 342   0.0000       1.550837        42.2004 
 343   0.0000       1.553303        42.2675 
 344   0.0000       1.557324        42.3769 
 345   0.0000       1.560239        42.4563 
 346   0.0000       1.560441        42.4618 
 347   0.0000       1.561496        42.4905 
 348   0.0000       1.563524        42.5456 
 349   0.0000       1.566013        42.6134 
 350   0.0000       1.567347        42.6497 
 351   0.0000       1.567725        42.6600 
 352   0.0000       1.568374        42.6776 
 353   0.0000       1.569356        42.7043 
 354   0.0000       1.573155        42.8077 
 355   0.0000       1.573687        42.8222 
 356   0.0000       1.575232        42.8642 
 357   0.0000       1.578416        42.9509 
 358   0.0000       1.580860        43.0174 
 359   0.0000       1.581489        43.0345 
 360   0.0000       1.582494        43.0619 
 361   0.0000       1.583118        43.0788 
 362   0.0000       1.586462        43.1698 
 363   0.0000       1.587508        43.1983 
 364   0.0000       1.587778        43.2056 
 365   0.0000       1.588880        43.2356 
 366   0.0000       1.589823        43.2613 
 367   0.0000       1.594081        43.3772 
 368   0.0000       1.595438        43.4141 
 369   0.0000       1.596413        43.4406 
 370   0.0000       1.597827        43.4791 
 371   0.0000       1.598217        43.4897 
 372   0.0000       1.600773        43.5592 
 373   0.0000       1.603389        43.6304 
 374   0.0000       1.607447        43.7408 
 375   0.0000       1.609648        43.8008 
 376   0.0000       1.612587        43.8807 
 377   0.0000       1.614849        43.9423 
 378   0.0000       1.618522        44.0422 
 379   0.0000       1.619823        44.0776 
 380   0.0000       1.624484        44.2045 
 381   0.0000       1.626642        44.2632 
 382   0.0000       1.628997        44.3273 
 383   0.0000       1.630347        44.3640 
 384   0.0000       1.637292        44.5530 
 385   0.0000       1.638240        44.5788 
 386   0.0000       1.641427        44.6655 
 387   0.0000       1.644980        44.7622 
 388   0.0000       1.646998        44.8171 
 389   0.0000       1.649351        44.8811 
 390   0.0000       1.657178        45.0941 
 391   0.0000       1.657968        45.1156 
 392   0.0000       1.663369        45.2626 
 393   0.0000       1.667650        45.3791 
 394   0.0000       1.667747        45.3817 
 395   0.0000       1.668557        45.4037 
 396   0.0000       1.670507        45.4568 
 397   0.0000       1.675288        45.5869 
 398   0.0000       1.676215        45.6121 
 399   0.0000       1.681170        45.7470 
 400   0.0000       1.685771        45.8722 
 401   0.0000       1.690705        46.0064 
 402   0.0000       1.698352        46.2145 
 403   0.0000       1.699520        46.2463 
 404   0.0000       1.702326        46.3226 
 405   0.0000       1.705260        46.4025 
 406   0.0000       1.711930        46.5840 
 407   0.0000       1.722881        46.8820 
 408   0.0000       1.725719        46.9592 
 409   0.0000       1.745903        47.5084 
 410   0.0000       1.769340        48.1462 
 411   0.0000       1.770252        48.1710 
 412   0.0000       1.785345        48.5817 
 413   0.0000       1.786361        48.6094 
 414   0.0000       1.791798        48.7573 
 415   0.0000       1.808922        49.2233 
 416   0.0000       1.814564        49.3768 
 417   0.0000       1.822608        49.5957 
 418   0.0000       1.822705        49.5983 
 419   0.0000       1.831068        49.8259 
 420   0.0000       1.845372        50.2151 
 421   0.0000       1.852810        50.4175 
 422   0.0000       1.861101        50.6431 
 423   0.0000       1.874642        51.0116 
 424   0.0000       1.879073        51.1322 
 425   0.0000       1.880059        51.1590 
 426   0.0000       1.891191        51.4619 
 427   0.0000       1.902579        51.7718 
 428   0.0000       1.914501        52.0962 
 429   0.0000       1.931187        52.5503 
 430   0.0000       1.993296        54.2403 
 431   0.0000       1.995413        54.2979 
 432   0.0000       1.998862        54.3918 
 433   0.0000       2.006245        54.5927 
 434   0.0000       2.084192        56.7138 
 435   0.0000       2.111091        57.4457 
 436   0.0000       2.175228        59.1910 
 437   0.0000       2.230781        60.7026 
 438   0.0000       2.265992        61.6608 
 439   0.0000       2.332652        63.4747 
 440   0.0000       2.356753        64.1305 
 441   0.0000       2.423954        65.9592 
 442   0.0000       2.482890        67.5629 
 443   0.0000       2.501990        68.0826 
 444   0.0000       2.527932        68.7885 
 445   0.0000       2.543473        69.2114 
 446   0.0000       2.581938        70.2581 
 447   0.0000       2.583739        70.3071 
 448   0.0000       2.609532        71.0090 
 449   0.0000       2.643084        71.9220 
 450   0.0000       2.690871        73.2223 
 451   0.0000       2.726405        74.1893 
 452   0.0000       3.296819        89.7110 
 453   0.0000       3.621014        98.5328 
 454   0.0000       3.774441       102.7077 
 455   0.0000       3.788503       103.0904 
 456   0.0000       3.796466       103.3071 
 457   0.0000       3.805165       103.5438 
 458   0.0000       3.977951       108.2456 
 459   0.0000       3.982828       108.3783 
 460   0.0000       3.986857       108.4879 
 461   0.0000       3.992413       108.6391 
 462   0.0000       4.000744       108.8658 
 463   0.0000       4.016232       109.2872 
 464   0.0000       4.027111       109.5833 
 465   0.0000      24.113126       656.1515 
 466   0.0000      24.175900       657.8597 
 467   0.0000      24.448458       665.2764 
 468   0.0000      24.584541       668.9794 
 469   0.0000      24.673618       671.4033 
 470   0.0000      24.705381       672.2676 
 471   0.0000      24.955979       679.0867 
 472   0.0000      25.083197       682.5485 
 473   0.0000      25.310413       688.7313 
 474   0.0000      25.549782       695.2449 
 475   0.0000      25.578139       696.0165 
 476   0.0000      25.711237       699.6383 
 477   0.0000      25.745675       700.5754 
 478   0.0000      25.856029       703.5783 
 479   0.0000      26.214157       713.3235 
 480   0.0000      26.246279       714.1976 
 481   0.0000      26.312116       715.9891 
 482   0.0000      26.346560       716.9264 
 483   0.0000      26.571114       723.0368 
 484   0.0000      26.590561       723.5660 
 485   0.0000      26.735652       727.5141 
 486   0.0000      26.979691       734.1547 
 487   0.0000      27.131537       738.2867 
 488   0.0000      27.142702       738.5905 
 489   0.0000      27.276205       742.2233 
 490   0.0000      27.302228       742.9314 
 491   0.0000      27.503279       748.4023 
 492   0.0000      28.010660       762.2088 
 493   0.0000      28.322456       770.6932 
 494   0.0000      28.526506       776.2457 
 495   0.0000      28.532104       776.3980 
 496   0.0000      28.778489       783.1025 
 497   0.0000      28.932590       787.2958 
 498   0.0000      30.760764       837.0429 
 499   0.0000      30.876492       840.1921 
 500   0.0000      31.356553       853.2552 
 501   0.0000      44.344823      1206.6840 
 502   0.0000      44.468132      1210.0394 
 503   0.0000      44.508383      1211.1347 
 504   0.0000      44.511699      1211.2249 
 505   0.0000      44.570159      1212.8157 
 506   0.0000      44.613476      1213.9944 
 507   0.0000      44.615484      1214.0490 
 508   0.0000      44.625402      1214.3189 
 509   0.0000      44.635155      1214.5843 
 510   0.0000      44.642910      1214.7953 
 511   0.0000      44.689630      1216.0667 
 512   0.0000      44.760907      1218.0062 
 513   0.0000     205.234437      5584.7130 
 514   0.0000     205.283873      5586.0582 
 515   0.0000     205.298839      5586.4654 
 516   0.0000     205.302151      5586.5555 
 517   0.0000     205.328626      5587.2760 
 518   0.0000     205.345505      5587.7353 
 519   0.0000     205.346907      5587.7734 
 520   0.0000     205.349111      5587.8334 
 521   0.0000     205.350783      5587.8789 
 522   0.0000     205.358071      5588.0772 
 523   0.0000     205.376967      5588.5914 
 524   0.0000     205.395987      5589.1089 

                 SPIN DOWN ORBITALS
  NO   OCC          E(Eh)            E(eV) 
   0   1.0000    -255.638129     -6956.2671 
   1   1.0000     -29.860202      -812.5374 
   2   1.0000     -25.716082      -699.7702 
   3   1.0000     -25.707417      -699.5344 
   4   1.0000     -25.703860      -699.4376 
   5   1.0000      -4.127419      -112.3128 
   6   1.0000      -4.126610      -112.2908 
   7   1.0000      -4.120881      -112.1349 
   8   1.0000      -4.120174      -112.1156 
   9   1.0000      -4.116691      -112.0209 
  10   1.0000      -4.116653      -112.0198 
  11   1.0000      -4.115812      -111.9969 
  12   1.0000      -4.115796      -111.9965 
  13   1.0000      -4.113775      -111.9415 
  14   1.0000      -4.113530      -111.9349 
  15   1.0000      -4.113073      -111.9224 
  16   1.0000      -4.112776      -111.9143 
  17   1.0000      -3.345700       -91.0411 
  18   1.0000      -2.317458       -63.0612 
  19   1.0000      -2.316684       -63.0402 
  20   1.0000      -2.313817       -62.9622 
  21   1.0000      -2.312735       -62.9327 
  22   1.0000      -2.311015       -62.8859 
  23   1.0000      -2.309411       -62.8423 
  24   1.0000      -2.308547       -62.8188 
  25   1.0000      -2.308386       -62.8144 
  26   1.0000      -2.307647       -62.7943 
  27   1.0000      -2.307040       -62.7777 
  28   1.0000      -2.305651       -62.7400 
  29   1.0000      -2.305524       -62.7365 
  30   1.0000      -2.305029       -62.7230 
  31   1.0000      -2.304751       -62.7155 
  32   1.0000      -2.304317       -62.7037 
  33   1.0000      -2.303660       -62.6858 
  34   1.0000      -2.302408       -62.6517 
  35   1.0000      -2.302232       -62.6469 
  36   1.0000      -2.302034       -62.6415 
  37   1.0000      -2.301876       -62.6372 
  38   1.0000      -2.301311       -62.6219 
  39   1.0000      -2.301052       -62.6148 
  40   1.0000      -2.299522       -62.5732 
  41   1.0000      -2.299371       -62.5691 
  42   1.0000      -2.299129       -62.5625 
  43   1.0000      -2.298278       -62.5393 
  44   1.0000      -2.298052       -62.5332 
  45   1.0000      -2.297876       -62.5284 
  46   1.0000      -2.297819       -62.5268 
  47   1.0000      -2.297333       -62.5136 
  48   1.0000      -2.297163       -62.5090 
  49   1.0000      -2.297007       -62.5047 
  50   1.0000      -2.296226       -62.4835 
  51   1.0000      -2.296190       -62.4825 
  52   1.0000      -2.294991       -62.4499 
  53   1.0000      -2.294611       -62.4395 
  54   1.0000      -2.122800       -57.7643 
  55   1.0000      -2.112422       -57.4819 
  56   1.0000      -2.104046       -57.2540 
  57   1.0000      -0.434298       -11.8179 
  58   1.0000      -0.402218       -10.9449 
  59   1.0000      -0.386883       -10.5276 
  60   1.0000      -0.383425       -10.4335 
  61   1.0000      -0.380499       -10.3539 
  62   1.0000      -0.375154       -10.2085 
  63   1.0000      -0.370931       -10.0936 
  64   1.0000      -0.369878       -10.0649 
  65   1.0000      -0.362799        -9.8723 
  66   1.0000      -0.359040        -9.7700 
  67   1.0000      -0.357564        -9.7298 
  68   1.0000      -0.356805        -9.7092 
  69   1.0000      -0.352336        -9.5875 
  70   1.0000      -0.348550        -9.4845 
  71   1.0000      -0.347563        -9.4577 
  72   1.0000      -0.345861        -9.4113 
  73   1.0000      -0.342648        -9.3239 
  74   1.0000      -0.338411        -9.2086 
  75   1.0000      -0.336900        -9.1675 
  76   1.0000      -0.335938        -9.1413 
  77   1.0000      -0.333771        -9.0824 
  78   1.0000      -0.331243        -9.0136 
  79   1.0000      -0.329507        -8.9663 
  80   1.0000      -0.327728        -8.9179 
  81   1.0000      -0.325513        -8.8577 
  82   1.0000      -0.323857        -8.8126 
  83   1.0000      -0.322711        -8.7814 
  84   1.0000      -0.318657        -8.6711 
  85   1.0000      -0.307537        -8.3685 
  86   1.0000      -0.303483        -8.2582 
  87   1.0000      -0.302654        -8.2356 
  88   1.0000      -0.300881        -8.1874 
  89   1.0000      -0.299668        -8.1544 
  90   1.0000      -0.296427        -8.0662 
  91   1.0000      -0.295356        -8.0370 
  92   1.0000      -0.293632        -7.9901 
  93   1.0000      -0.289396        -7.8749 
  94   1.0000      -0.287757        -7.8303 
  95   1.0000      -0.285768        -7.7762 
  96   1.0000      -0.284400        -7.7389 
  97   1.0000      -0.284256        -7.7350 
  98   1.0000      -0.283189        -7.7060 
  99   1.0000      -0.281686        -7.6651 
 100   1.0000      -0.280558        -7.6344 
 101   1.0000      -0.279432        -7.6037 
 102   1.0000      -0.278642        -7.5822 
 103   1.0000      -0.276359        -7.5201 
 104   1.0000      -0.275194        -7.4884 
 105   1.0000      -0.270500        -7.3607 
 106   1.0000      -0.269855        -7.3431 
 107   1.0000      -0.267722        -7.2851 
 108   1.0000      -0.265979        -7.2376 
 109   1.0000      -0.265256        -7.2180 
 110   1.0000      -0.264933        -7.2092 
 111   1.0000      -0.261424        -7.1137 
 112   1.0000      -0.261345        -7.1116 
 113   1.0000      -0.257966        -7.0196 
 114   1.0000      -0.256727        -6.9859 
 115   1.0000      -0.254665        -6.9298 
 116   1.0000      -0.253106        -6.8874 
 117   1.0000      -0.251952        -6.8560 
 118   1.0000      -0.250016        -6.8033 
 119   1.0000      -0.241810        -6.5800 
 120   1.0000      -0.228269        -6.2115 
 121   1.0000      -0.220327        -5.9954 
 122   1.0000      -0.211382        -5.7520 
 123   1.0000      -0.189782        -5.1642 
 124   1.0000      -0.185227        -5.0403 
 125   0.0000      -0.193349        -5.2613 
 126   0.0000      -0.166428        -4.5287 
 127   0.0000      -0.154792        -4.2121 
 128   0.0000      -0.137971        -3.7544 
 129   0.0000      -0.137201        -3.7334 
 130   0.0000      -0.117970        -3.2101 
 131   0.0000      -0.116995        -3.1836 
 132   0.0000      -0.111712        -3.0398 
 133   0.0000      -0.109944        -2.9917 
 134   0.0000      -0.097309        -2.6479 
 135   0.0000      -0.075091        -2.0433 
 136   0.0000      -0.055440        -1.5086 
 137   0.0000      -0.051060        -1.3894 
 138   0.0000      -0.043957        -1.1961 
 139   0.0000      -0.034936        -0.9507 
 140   0.0000      -0.026123        -0.7108 
 141   0.0000      -0.015987        -0.4350 
 142   0.0000      -0.015200        -0.4136 
 143   0.0000      -0.011522        -0.3135 
 144   0.0000       0.005401         0.1470 
 145   0.0000       0.012560         0.3418 
 146   0.0000       0.019197         0.5224 
 147   0.0000       0.039636         1.0786 
 148   0.0000       0.051076         1.3899 
 149   0.0000       0.055390         1.5073 
 150   0.0000       0.055717         1.5161 
 151   0.0000       0.061420         1.6713 
 152   0.0000       0.062606         1.7036 
 153   0.0000       0.070058         1.9064 
 154   0.0000       0.071654         1.9498 
 155   0.0000       0.077144         2.0992 
 156   0.0000       0.078702         2.1416 
 157   0.0000       0.084426         2.2973 
 158   0.0000       0.086579         2.3559 
 159   0.0000       0.091755         2.4968 
 160   0.0000       0.102010         2.7758 
 161   0.0000       0.102872         2.7993 
 162   0.0000       0.109107         2.9690 
 163   0.0000       0.116355         3.1662 
 164   0.0000       0.117949         3.2095 
 165   0.0000       0.125134         3.4051 
 166   0.0000       0.136628         3.7178 
 167   0.0000       0.138076         3.7572 
 168   0.0000       0.145392         3.9563 
 169   0.0000       0.158697         4.3184 
 170   0.0000       0.166231         4.5234 
[...]
      pz      :     2.091744  p :     6.530216
      px      :     2.200405
      py      :     2.238067
      dz2     :     1.965090  d :     9.882120
      dxz     :     1.966467
      dyz     :     1.984678
      dx2y2   :     1.983578
      dxy     :     1.982307
      f0      :     0.000809  f :     0.006130
      f+1     :     0.000874
      f-1     :     0.000798
      f+2     :     0.000503
      f-2     :     0.000872
      f+3     :     0.001483
      f-3     :     0.000791
  1 Aus       :     2.690480  s :     2.690480
      pz      :     2.126118  p :     6.345223
      px      :     2.084007
      py      :     2.135099
      dz2     :     1.987349  d :     9.906766
      dxz     :     1.989226
      dyz     :     1.962052
      dx2y2   :     1.981874
      dxy     :     1.986265
      f0      :     0.000581  f :     0.004392
      f+1     :     0.000511
      f-1     :     0.000960
      f+2     :     0.000631
      f-2     :     0.000478
      f+3     :     0.000765
      f-3     :     0.000465
  2 Aus       :     2.515849  s :     2.515849
      pz      :     2.197377  p :     6.590950
      px      :     2.228147
      py      :     2.165426
      dz2     :     1.990685  d :     9.900104
      dxz     :     1.994739
      dyz     :     1.956747
      dx2y2   :     1.979172
      dxy     :     1.978761
      f0      :     0.001123  f :     0.006567
      f+1     :     0.000617
      f-1     :     0.000710
      f+2     :     0.000918
      f-2     :     0.001195
      f+3     :     0.001080
      f-3     :     0.000924
  3 Aus       :     2.599824  s :     2.599824
      pz      :     2.211572  p :     6.461427
      px      :     2.109936
      py      :     2.139919
      dz2     :     1.962096  d :     9.887322
      dxz     :     1.998920
      dyz     :     1.975214
      dx2y2   :     1.972846
      dxy     :     1.978247
      f0      :     0.000670  f :     0.005248
      f+1     :     0.000763
      f-1     :     0.000749
      f+2     :     0.000721
      f-2     :     0.001095
      f+3     :     0.000501
      f-3     :     0.000748
  4 Aus       :     2.639115  s :     2.639115
      pz      :     2.154672  p :     6.429168
      px      :     2.144247
      py      :     2.130249
      dz2     :     1.990435  d :     9.859237
      dxz     :     1.978909
      dyz     :     1.940236
      dx2y2   :     1.973464
      dxy     :     1.976193
      f0      :     0.001048  f :     0.004923
      f+1     :     0.000484
      f-1     :     0.000750
      f+2     :     0.000563
      f-2     :     0.000630
      f+3     :     0.000844
      f-3     :     0.000604
  5 Aus       :     2.592083  s :     2.592083
      pz      :     2.085358  p :     6.419845
      px      :     2.146679
      py      :     2.187808
      dz2     :     1.972064  d :     9.878090
      dxz     :     1.955614
      dyz     :     1.989584
      dx2y2   :     1.980471
      dxy     :     1.980356
      f0      :     0.000564  f :     0.005318
      f+1     :     0.000759
      f-1     :     0.000854
      f+2     :     0.000617
      f-2     :     0.000980
      f+3     :     0.000921
      f-3     :     0.000623
  6 Aus       :     2.639561  s :     2.639561
      pz      :     2.097398  p :     6.428657
      px      :     2.151317
      py      :     2.179942
      dz2     :     1.971734  d :     9.859168
      dxz     :     1.950138
      dyz     :     1.988054
      dx2y2   :     1.980322
      dxy     :     1.968921
      f0      :     0.000693  f :     0.004913
      f+1     :     0.000766
      f-1     :     0.000684
      f+2     :     0.000513
      f-2     :     0.000767
      f+3     :     0.000854
      f-3     :     0.000636
  7 Aus       :     2.599494  s :     2.599494
      pz      :     2.179878  p :     6.461454
      px      :     2.163214
      py      :     2.118363
      dz2     :     1.985910  d :     9.887290
      dxz     :     1.976942
      dyz     :     1.965562
      dx2y2   :     1.966482
      dxy     :     1.992394
      f0      :     0.001079  f :     0.005256
      f+1     :     0.000549
      f-1     :     0.000697
      f+2     :     0.000600
      f-2     :     0.000844
      f+3     :     0.000789
      f-3     :     0.000696
  8 Aus       :     2.592054  s :     2.592054
      pz      :     2.079412  p :     6.419927
      px      :     2.173348
      py      :     2.167167
      dz2     :     1.971468  d :     9.878121
      dxz     :     1.959209
      dyz     :     1.978454
      dx2y2   :     1.986803
      dxy     :     1.982187
      f0      :     0.000669  f :     0.005325
      f+1     :     0.000823
      f-1     :     0.000792
      f+2     :     0.000590
      f-2     :     0.001011
      f+3     :     0.000816
      f-3     :     0.000624
  9 Aus       :     2.562096  s :     2.562096
      pz      :     2.130138  p :     6.530289
      px      :     2.190319
      py      :     2.209833
      dz2     :     1.985984  d :     9.881942
      dxz     :     1.989587
      dyz     :     1.945559
      dx2y2   :     1.978769
      dxy     :     1.982042
      f0      :     0.001071  f :     0.006129
      f+1     :     0.000605
      f-1     :     0.000807
      f+2     :     0.000546
      f-2     :     0.001045
      f+3     :     0.001117
      f-3     :     0.000938
 10 Aus       :     2.690047  s :     2.690047
      pz      :     2.145547  p :     6.345439
      px      :     2.103529
      py      :     2.096363
      dz2     :     1.982087  d :     9.906901
      dxz     :     1.958218
      dyz     :     1.999848
      dx2y2   :     1.987470
      dxy     :     1.979278
      f0      :     0.000498  f :     0.004391
      f+1     :     0.000489
      f-1     :     0.000693
      f+2     :     0.000530
      f-2     :     0.000873
      f+3     :     0.000555
      f-3     :     0.000754
 11 Aus       :     2.515716  s :     2.515716
      pz      :     2.262338  p :     6.591175
      px      :     2.107871
      py      :     2.220966
      dz2     :     1.982889  d :     9.900209
      dxz     :     1.988341
      dyz     :     1.978689
      dx2y2   :     1.965868
      dxy     :     1.984422
      f0      :     0.000844  f :     0.006575
      f+1     :     0.000913
      f-1     :     0.001478
      f+2     :     0.000860
      f-2     :     0.001070
      f+3     :     0.000599
      f-3     :     0.000811
 12 Fes       :     6.288371  s :     6.288371
      pz      :     4.223116  p :    12.641126
      px      :     4.207013
      py      :     4.210998
      dz2     :     1.808590  d :     7.625312
      dxz     :     1.467973
      dyz     :     1.442025
      dx2y2   :     1.507575
      dxy     :     1.399149
      f0      :     0.000085  f :     0.000629
      f+1     :     0.000137
      f-1     :     0.000070
      f+2     :     0.000121
      f-2     :     0.000062
      f+3     :     0.000062
      f-3     :     0.000093

SPIN
  0 Aus       :    -0.053138  s :    -0.053138
      pz      :    -0.007256  p :    -0.028836
      px      :    -0.004009
      py      :    -0.017570
      dz2     :     0.004481  d :    -0.009875
      dxz     :     0.005351
      dyz     :     0.001640
      dx2y2   :    -0.007620
      dxy     :    -0.013728
      f0      :    -0.000019  f :     0.000040
      f+1     :     0.000073
      f-1     :     0.000016
      f+2     :     0.000003
      f-2     :    -0.000003
      f+3     :    -0.000016
      f-3     :    -0.000014
  1 Aus       :     0.025972  s :     0.025972
      pz      :     0.003814  p :    -0.007976
      px      :    -0.006601
      py      :    -0.005189
      dz2     :    -0.005254  d :    -0.022092
      dxz     :    -0.001719
      dyz     :    -0.006627
      dx2y2   :    -0.009520
      dxy     :     0.001029
      f0      :    -0.000008  f :    -0.000072
      f+1     :    -0.000005
      f-1     :    -0.000028
      f+2     :    -0.000015
      f-2     :     0.000004
      f+3     :    -0.000018
      f-3     :    -0.000002
  2 Aus       :    -0.066541  s :    -0.066541
      pz      :    -0.012021  p :    -0.020982
      px      :    -0.012376
      py      :     0.003414
      dz2     :    -0.004495  d :     0.020570
      dxz     :    -0.001657
      dyz     :     0.009832
      dx2y2   :     0.010427
      dxy     :     0.006464
      f0      :    -0.000007  f :     0.000132
      f+1     :    -0.000015
      f-1     :     0.000010
      f+2     :     0.000056
      f-2     :     0.000015
      f+3     :     0.000034
      f-3     :     0.000038
  3 Aus       :    -0.073577  s :    -0.073577
      pz      :    -0.013749  p :    -0.031902
      px      :    -0.012732
      py      :    -0.005421
      dz2     :     0.002214  d :    -0.004572
      dxz     :    -0.001758
      dyz     :    -0.017106
      dx2y2   :     0.008379
      dxy     :     0.003699
      f0      :    -0.000002  f :     0.000007
      f+1     :     0.000019
      f-1     :     0.000014
      f+2     :    -0.000051
      f-2     :    -0.000030
      f+3     :     0.000018
      f-3     :     0.000040
  4 Aus       :    -0.044647  s :    -0.044647
      pz      :    -0.016286  p :    -0.045103
      px      :    -0.026389
      py      :    -0.002428
      dz2     :    -0.011898  d :    -0.004580
      dxz     :     0.001075
      dyz     :     0.017525
      dx2y2   :     0.001535
      dxy     :    -0.012818
      f0      :     0.000005  f :     0.000113
      f+1     :    -0.000009
      f-1     :     0.000022
      f+2     :     0.000082
      f-2     :     0.000023
      f+3     :    -0.000015
      f-3     :     0.000005
  5 Aus       :    -0.059247  s :    -0.059247
      pz      :    -0.003252  p :    -0.072981
      px      :    -0.032801
      py      :    -0.036928
      dz2     :     0.005339  d :    -0.020772
      dxz     :     0.001068
      dyz     :    -0.008485
      dx2y2   :    -0.002766
      dxy     :    -0.015927
      f0      :     0.000027  f :     0.000012
      f+1     :     0.000076
      f-1     :    -0.000020
      f+2     :    -0.000004
      f-2     :    -0.000028
      f+3     :    -0.000026
      f-3     :    -0.000014
  6 Aus       :    -0.044540  s :    -0.044540
      pz      :    -0.008375  p :    -0.044904
      px      :    -0.011969
      py      :    -0.024560
      dz2     :     0.001831  d :    -0.004437
      dxz     :     0.011400
      dyz     :     0.002742
      dx2y2   :    -0.004241
      dxy     :    -0.016169
      f0      :    -0.000013  f :     0.000114
      f+1     :     0.000111
      f-1     :     0.000004
      f+2     :     0.000022
      f-2     :     0.000004
      f+3     :    -0.000002
      f-3     :    -0.000011
  7 Aus       :    -0.073579  s :    -0.073579
      pz      :    -0.013027  p :    -0.031805
      px      :    -0.015974
      py      :    -0.002804
      dz2     :    -0.003776  d :    -0.004367
      dxz     :    -0.009312
      dyz     :     0.007154
      dx2y2   :     0.007327
      dxy     :    -0.005761
      f0      :     0.000020  f :     0.000007
      f+1     :    -0.000035
      f-1     :    -0.000008
      f+2     :     0.000024
      f-2     :    -0.000014
      f+3     :     0.000000
      f-3     :     0.000020
  8 Aus       :    -0.059010  s :    -0.059010
      pz      :    -0.005462  p :    -0.072913
      px      :    -0.031361
      py      :    -0.036089
      dz2     :     0.001495  d :    -0.021039
      dxz     :     0.000766
      dyz     :    -0.006141
      dx2y2   :    -0.001221
      dxy     :    -0.015937
      f0      :     0.000006  f :     0.000010
      f+1     :     0.000073
      f-1     :    -0.000019
      f+2     :    -0.000000
      f-2     :    -0.000019
      f+3     :    -0.000019
      f-3     :    -0.000010
  9 Aus       :    -0.053095  s :    -0.053095
      pz      :    -0.016439  p :    -0.028844
      px      :    -0.017442
      py      :     0.005037
      dz2     :    -0.007906  d :    -0.009642
      dxz     :    -0.001941
      dyz     :     0.013563
      dx2y2   :    -0.001144
      dxy     :    -0.012214
      f0      :    -0.000011  f :     0.000041
      f+1     :    -0.000030
      f-1     :     0.000034
      f+2     :     0.000069
      f-2     :     0.000018
      f+3     :    -0.000018
      f-3     :    -0.000022
 10 Aus       :     0.026505  s :     0.026505
      pz      :     0.005285  p :    -0.008057
      px      :    -0.011450
      py      :    -0.001892
      dz2     :    -0.002049  d :    -0.022118
      dxz     :    -0.005439
      dyz     :    -0.000785
      dx2y2   :    -0.007910
      dxy     :    -0.005934
      f0      :    -0.000011  f :    -0.000072
      f+1     :     0.000009
      f-1     :    -0.000012
      f+2     :    -0.000013
      f-2     :    -0.000014
      f+3     :    -0.000004
      f-3     :    -0.000027
 11 Aus       :    -0.066366  s :    -0.066366
      pz      :    -0.013103  p :    -0.021045
      px      :    -0.001640
      py      :    -0.006302
      dz2     :     0.004346  d :     0.020423
      dxz     :     0.003188
      dyz     :    -0.013858
      dx2y2   :     0.021736
      dxy     :     0.005011
      f0      :    -0.000008  f :     0.000132
      f+1     :     0.000023
      f-1     :     0.000016
      f+2     :     0.000000
      f-2     :    -0.000032
      f+3     :     0.000079
      f-3     :     0.000053
 12 Fes       :     0.009919  s :     0.009919
      pz      :     0.005715  p :     0.016086
      px      :     0.004924
      py      :     0.005447
      dz2     :     0.325181  d :     3.012604
      dxz     :     0.677286
      dyz     :     0.696459
      dx2y2   :     0.607133
      dxy     :     0.706545
      f0      :     0.000005  f :     0.000036
      f+1     :     0.000005
      f-1     :     0.000004
      f+2     :     0.000003
      f-2     :     0.000002
      f+3     :     0.000010
      f-3     :     0.000008


                      *****************************
                      * MAYER POPULATION ANALYSIS *
                      *****************************

  NA   - Mulliken gross atomic population
  ZA   - Total nuclear charge
  QA   - Mulliken gross atomic charge
  VA   - Mayer's total valence
  BVA  - Mayer's bonded valence
  FA   - Mayer's free valence

  ATOM       NA         ZA         QA         VA         BVA        FA
  0 Au    18.9775    19.0000     0.0225     1.8278     1.8082     0.0196
  1 Au    18.7380    19.0000     0.2620     1.4749     1.4721     0.0028
  2 Au    18.9809    19.0000     0.0191     1.9465     1.9196     0.0268
  3 Au    18.7607    19.0000     0.2393     1.5119     1.4822     0.0296
  4 Au    18.7635    19.0000     0.2365     1.4963     1.4837     0.0126
  5 Au    18.6983    19.0000     0.3017     1.5019     1.4821     0.0197
  6 Au    18.7637    19.0000     0.2363     1.4958     1.4833     0.0125
  7 Au    18.7604    19.0000     0.2396     1.5119     1.4823     0.0296
  8 Au    18.6982    19.0000     0.3018     1.5019     1.4823     0.0196
  9 Au    18.9772    19.0000     0.0228     1.8280     1.8084     0.0196
 10 Au    18.7378    19.0000     0.2622     1.4748     1.4719     0.0029
 11 Au    18.9815    19.0000     0.0185     1.9470     1.9203     0.0267
 12 Fe    28.1624    26.0000    -2.1624     7.8185     5.2990     2.5195

  Mayer bond orders larger than 0.100000
B(  0-Au,  1-Au) :   0.3843 B(  0-Au,  2-Au) :   0.1122 B(  0-Au,  4-Au) :   0.2794 
B(  0-Au,  5-Au) :   0.1133 B(  0-Au, 11-Au) :   0.1725 B(  0-Au, 12-Fe) :   0.5284 
B(  1-Au,  2-Au) :   0.2279 B(  1-Au, 10-Au) :   0.1798 B(  1-Au, 11-Au) :   0.3342 
B(  1-Au, 12-Fe) :   0.1069 B(  2-Au,  5-Au) :   0.3418 B(  2-Au,  9-Au) :   0.1725 
B(  2-Au, 10-Au) :   0.3338 B(  2-Au, 12-Fe) :   0.5162 B(  3-Au,  4-Au) :   0.1236 
B(  3-Au,  5-Au) :   0.2050 B(  3-Au,  6-Au) :   0.2172 B(  3-Au,  7-Au) :   0.2022 
B(  3-Au, 12-Fe) :   0.4860 B(  4-Au,  6-Au) :   0.1127 B(  4-Au,  7-Au) :   0.2173 
B(  4-Au, 12-Fe) :   0.4990 B(  5-Au, 12-Fe) :   0.5129 B(  6-Au,  7-Au) :   0.1224 
B(  6-Au,  9-Au) :   0.2795 B(  6-Au, 12-Fe) :   0.4993 B(  7-Au,  8-Au) :   0.2053 
B(  7-Au, 12-Fe) :   0.4871 B(  8-Au,  9-Au) :   0.1134 B(  8-Au, 11-Au) :   0.3422 
B(  8-Au, 12-Fe) :   0.5121 B(  9-Au, 10-Au) :   0.3842 B(  9-Au, 11-Au) :   0.1120 
B(  9-Au, 12-Fe) :   0.5288 B( 10-Au, 11-Au) :   0.2284 B( 10-Au, 12-Fe) :   0.1068 
B( 11-Au, 12-Fe) :   0.5155 

-------
TIMINGS
-------

Total SCF time: 0 days 0 hours 3 min 7 sec 

Total time                  ....     187.222 sec
Sum of individual times     ....     184.750 sec  ( 98.7%)

Fock matrix formation       ....     174.564 sec  ( 93.2%)
  Split-RI-J                ....      32.564 sec  ( 18.7% of F)
  XC integration            ....     141.008 sec  ( 80.8% of F)
    Basis function eval.    ....       8.968 sec  (  6.4% of XC)
    Density eval.           ....      69.312 sec  ( 49.2% of XC)
    XC-Functional eval.     ....       4.870 sec  (  3.5% of XC)
    XC-Potential eval.      ....      51.613 sec  ( 36.6% of XC)
Diagonalization             ....       7.746 sec  (  4.1%)
Density matrix formation    ....       0.336 sec  (  0.2%)
Population analysis         ....       0.195 sec  (  0.1%)
Initial guess               ....       0.287 sec  (  0.2%)
Orbital Transformation      ....       0.000 sec  (  0.0%)
Orbital Orthonormalization  ....       0.251 sec  (  0.1%)
DIIS solution               ....       0.000 sec  (  0.0%)
Grid generation             ....       1.621 sec  (  0.9%)

Maximum memory used throughout the entire SCF-calculation: 82.5 MB

-------------------------   --------------------
FINAL SINGLE POINT ENERGY     -2893.835257760685
-------------------------   --------------------


                            ***************************************
                            *     ORCA property calculations      *
                            ***************************************

                                    ---------------------
                                    Active property flags
                                    ---------------------
   (+) Dipole Moment


------------------------------------------------------------------------------
                       ORCA ELECTRIC PROPERTIES CALCULATION
------------------------------------------------------------------------------

Dipole Moment Calculation                       ... on
Quadrupole Moment Calculation                   ... off
Polarizability Calculation                      ... off
GBWName                                         ... scan_job2.gbw
Electron density                                ... scan_job2.scfp
The origin for moment calculation is the CENTER OF MASS  = (16.834614, 13.543308 16.657852)

-------------
DIPOLE MOMENT
-------------
                                X             Y             Z
Electronic contribution:    -14.35152     -18.10717      -5.53761
Nuclear contribution   :     14.36351      18.12331       5.54335
                        -----------------------------------------
Total Dipole Moment    :      0.01199       0.01614       0.00574
                        -----------------------------------------
Magnitude (a.u.)       :      0.02091
Magnitude (Debye)      :      0.05315



--------------------
Rotational spectrum 
--------------------
 
Rotational constants in cm-1:     0.001744     0.001196     0.001001 
Rotational constants in MHz :    52.269040    35.858322    30.016440 

 Dipole components along the rotational axes: 
x,y,z [a.u.] :     0.020881     0.000844     0.000677 
x,y,z [Debye]:     0.053075     0.002144     0.001722 

 

Timings for individual modules:

Sum of individual times         ...      197.053 sec (=   3.284 min)
GTO integral calculation        ...        9.606 sec (=   0.160 min)   4.9 %
SCF iterations                  ...      187.447 sec (=   3.124 min)  95.1 %



                             ****ORCA TERMINATED NORMALLY****
TOTAL RUN TIME: 0 days 0 hours 12 minutes 29 seconds 922 msec
