
                                 *****************
                                 * O   R   C   A *
                                 *****************

                                            #,                                       
                                            ###                                      
                                            ####                                     
                                            #####                                    
                                            ######                                   
                                           ########,                                 
                                     ,,################,,,,,                         
                               ,,#################################,,                 
                          ,,##########################################,,             
                       ,#########################################, ''#####,          
                    ,#############################################,,   '####,        
                  ,##################################################,,,,####,       
                ,###########''''           ''''###############################       
              ,#####''   ,,,,##########,,,,          '''####'''          '####       
            ,##' ,,,,###########################,,,                        '##       
           ' ,,###''''                  '''############,,,                           
         ,,##''                                '''############,,,,        ,,,,,,###''
      ,#''                                            '''#######################'''  
     '                                                          ''''####''''         
             ,#######,   #######,   ,#######,      ##                                
            ,#'     '#,  ##    ##  ,#'     '#,    #''#        ######   ,####,        
            ##       ##  ##   ,#'  ##            #'  '#       #        #'  '#        
            ##       ##  #######   ##           ,######,      #####,   #    #        
            '#,     ,#'  ##    ##  '#,     ,#' ,#      #,         ##   #,  ,#        
             '#######'   ##     ##  '#######'  #'      '#     #####' # '####'        



                  #######################################################
                  #                        -***-                        #
                  #          Department of theory and spectroscopy      #
                  #    Directorship and core code : Frank Neese         #
                  #        Max Planck Institute fuer Kohlenforschung    #
                  #                Kaiser Wilhelm Platz 1               #
                  #                 D-45470 Muelheim/Ruhr               #
                  #                      Germany                        #
                  #                                                     #
                  #                  All rights reserved                #
                  #                        -***-                        #
                  #######################################################


                         Program Version 5.0.3 -  RELEASE  -


 With contributions from (in alphabetic order):
   Daniel Aravena         : Magnetic Suceptibility
   Michael Atanasov       : Ab Initio Ligand Field Theory (pilot matlab implementation)
   Alexander A. Auer      : GIAO ZORA, VPT2 properties, NMR spectrum
   Ute Becker             : Parallelization
   Giovanni Bistoni       : ED, misc. LED, open-shell LED, HFLD
   Martin Brehm           : Molecular dynamics
   Dmytro Bykov           : SCF Hessian
   Vijay G. Chilkuri      : MRCI spin determinant printing, contributions to CSF-ICE
   Dipayan Datta          : RHF DLPNO-CCSD density
   Achintya Kumar Dutta   : EOM-CC, STEOM-CC
   Dmitry Ganyushin       : Spin-Orbit,Spin-Spin,Magnetic field MRCI
   Miquel Garcia          : C-PCM and meta-GGA Hessian, CC/C-PCM, Gaussian charge scheme
   Yang Guo               : DLPNO-NEVPT2, F12-NEVPT2, CIM, IAO-localization
   Andreas Hansen         : Spin unrestricted coupled pair/coupled cluster methods
   Benjamin Helmich-Paris : MC-RPA, TRAH-SCF, COSX integrals
   Lee Huntington         : MR-EOM, pCC
   Robert Izsak           : Overlap fitted RIJCOSX, COSX-SCS-MP3, EOM
   Marcus Kettner         : VPT2
   Christian Kollmar      : KDIIS, OOCD, Brueckner-CCSD(T), CCSD density, CASPT2, CASPT2-K
   Simone Kossmann        : Meta GGA functionals, TD-DFT gradient, OOMP2, MP2 Hessian
   Martin Krupicka        : Initial AUTO-CI
   Lucas Lang             : DCDCAS
   Marvin Lechner         : AUTO-CI (C++ implementation), FIC-MRCC
   Dagmar Lenk            : GEPOL surface, SMD
   Dimitrios Liakos       : Extrapolation schemes; Compound Job, initial MDCI parallelization
   Dimitrios Manganas     : Further ROCIS development; embedding schemes
   Dimitrios Pantazis     : SARC Basis sets
   Anastasios Papadopoulos: AUTO-CI, single reference methods and gradients
   Taras Petrenko         : DFT Hessian,TD-DFT gradient, ASA, ECA, R-Raman, ABS, FL, XAS/XES, NRVS
   Peter Pinski           : DLPNO-MP2, DLPNO-MP2 Gradient
   Christoph Reimann      : Effective Core Potentials
   Marius Retegan         : Local ZFS, SOC
   Christoph Riplinger    : Optimizer, TS searches, QM/MM, DLPNO-CCSD(T), (RO)-DLPNO pert. Triples
   Tobias Risthaus        : Range-separated hybrids, TD-DFT gradient, RPA, STAB
   Michael Roemelt        : Original ROCIS implementation
   Masaaki Saitow         : Open-shell DLPNO-CCSD energy and density
   Barbara Sandhoefer     : DKH picture change effects
   Avijit Sen             : IP-ROCIS
   Kantharuban Sivalingam : CASSCF convergence, NEVPT2, FIC-MRCI
   Bernardo de Souza      : ESD, SOC TD-DFT
   Georgi Stoychev        : AutoAux, RI-MP2 NMR, DLPNO-MP2 response
   Willem Van den Heuvel  : Paramagnetic NMR
   Boris Wezisla          : Elementary symmetry handling
   Frank Wennmohs         : Technical directorship


 We gratefully acknowledge several colleagues who have allowed us to
 interface, adapt or use parts of their codes:
   Stefan Grimme, W. Hujo, H. Kruse, P. Pracht,  : VdW corrections, initial TS optimization,
                  C. Bannwarth, S. Ehlert          DFT functionals, gCP, sTDA/sTD-DF
   Ed Valeev, F. Pavosevic, A. Kumar             : LibInt (2-el integral package), F12 methods
   Garnet Chan, S. Sharma, J. Yang, R. Olivares  : DMRG
   Ulf Ekstrom                                   : XCFun DFT Library
   Mihaly Kallay                                 : mrcc  (arbitrary order and MRCC methods)
   Jiri Pittner, Ondrej Demel                    : Mk-CCSD
   Frank Weinhold                                : gennbo (NPA and NBO analysis)
   Christopher J. Cramer and Donald G. Truhlar   : smd solvation model
   Lars Goerigk                                  : TD-DFT with DH, B97 family of functionals
   V. Asgeirsson, H. Jonsson                     : NEB implementation
   FAccTs GmbH                                   : IRC, NEB, NEB-TS, DLPNO-Multilevel, CI-OPT
                                                   MM, QMMM, 2- and 3-layer-ONIOM, Crystal-QMMM,
                                                   LR-CPCM, SF, NACMEs, symmetry and pop. for TD-DFT,
                                                   nearIR, NL-DFT gradient (VV10), updates on ESD,
                                                   ML-optimized integration grids
   S Lehtola, MJT Oliveira, MAL Marques          : LibXC Library
   Liviu Ungur et al                             : ANISO software


 Your calculation uses the libint2 library for the computation of 2-el integrals
 For citations please refer to: http://libint.valeyev.net

 Your ORCA version has been built with support for libXC version: 5.1.0
 For citations please refer to: https://tddft.org/programs/libxc/

 This ORCA versions uses:
   CBLAS   interface :  Fast vector & matrix operations
   LAPACKE interface :  Fast linear algebra routines
   SCALAPACK package :  Parallel linear algebra routines
   Shared memory     :  Shared parallel matrices
   BLAS/LAPACK       :  OpenBLAS 0.3.15  USE64BITINT DYNAMIC_ARCH NO_AFFINITY Haswell SINGLE_THREADED
        Core in use  :  Haswell
   Copyright (c) 2011-2014, The OpenBLAS Project




***************************************
The coordinates will be read from file: pbe.xyz
***************************************


================================================================================

cite the ECPs for Au [Def2-ECP] as follows:
Ce-Yb(ecp-28): M. Dolg, H. Stoll, H.Preuss, J. Chem. Phys., 1989, 90, 1730-1734.
Y-Cd(ecp-28), Hf-Hg(ecp-46): D. Andrae,U. Haeussermann, M. Dolg, H. Stoll, H. Preuss, Theor. Chim. Acta, 1990, 77, 123-141.
In-Sb(ecp-28), Tl-Bi(ecp-46): B. Metz, H. Stoll, M. Dolg, J. Chem. Phys., 2000, 113, 2563-2569.
Te-Xe(ecp-28), Po-Rn(ecp-46): K. A. Peterson, D. Figgen, E. Goll, H. Stoll, M. Dolg, J. Chem. Phys., 2003, 119, 11113-11123.
Rb(ecp-28), Cs(ecp-46): T. Leininger, A. Nicklass, W. Kuechle, H. Stoll, M. Dolg, A. Bergner, Chem. Phys. Lett., 1996, 255, 274-280.
Sr(ecp-28), Ba(ecp-46): M. Kaupp, P. V. Schleyer, H. Stoll and H. Preuss, J. Chem. Phys., 1991, 94, 1360-1366.
La(ecp-46): M. Dolg, H. Stoll, A. Savin, H. Preuss, Theor. Chim. Acta, 1989, 75, 173-194.
Lu(ecp-28): X. Cao, M. Dolg, J. Chem. Phys., 2001, 115, 7348-7355.

ECP parameters for Au [Def2-ECP] have been obtained from:
TURBOMOLE (7.0.2)

----- Orbital basis set information -----
Your calculation utilizes the basis: def2-TZVP
   F. Weigend and R. Ahlrichs, Phys. Chem. Chem. Phys. 7, 3297 (2005).

----- AuxJ basis set information -----
Your calculation utilizes the auxiliary basis: def2/J
   F. Weigend, Phys. Chem. Chem. Phys. 8, 1057 (2006).

----- AuxC basis set information -----
Your calculation utilizes the auxiliary basis: def2-TZVP/C
  H-La, Hf-Rn : A. Hellweg, C. Hattig, S. Hofener and W. Klopper, Theor. Chem. Acc. 117, 587 (2007).
        Ce-Lu : J. Chmela and M. E. Harding, Mol. Phys. (2018).

================================================================================
                                        WARNINGS
                       Please study these warnings very carefully!
================================================================================


WARNING: your system is open-shell and RHF/RKS was chosen
  ===> : WILL SWITCH to UHF/UKS


WARNING: No MP2 level density has been requested!
         To caclulate MP2 level properties use
         %mp2 Density relaxed end
         or
         %mp2 Density unrelaxed end
         Otherwise for double-hybrid DFT only the energy is correct!

WARNING: The frozen-core approximation is turned on by default for 
         the MP2 part of double-hybrid DFT.

INFO   : the flag for use of the SHARK integral package has been found!



***************************************
The coordinates will be read from file: pbe.xyz
***************************************


================================================================================

cite the ECPs for Au [Def2-ECP] as follows:
Ce-Yb(ecp-28): M. Dolg, H. Stoll, H.Preuss, J. Chem. Phys., 1989, 90, 1730-1734.
Y-Cd(ecp-28), Hf-Hg(ecp-46): D. Andrae,U. Haeussermann, M. Dolg, H. Stoll, H. Preuss, Theor. Chim. Acta, 1990, 77, 123-141.
In-Sb(ecp-28), Tl-Bi(ecp-46): B. Metz, H. Stoll, M. Dolg, J. Chem. Phys., 2000, 113, 2563-2569.
Te-Xe(ecp-28), Po-Rn(ecp-46): K. A. Peterson, D. Figgen, E. Goll, H. Stoll, M. Dolg, J. Chem. Phys., 2003, 119, 11113-11123.
Rb(ecp-28), Cs(ecp-46): T. Leininger, A. Nicklass, W. Kuechle, H. Stoll, M. Dolg, A. Bergner, Chem. Phys. Lett., 1996, 255, 274-280.
Sr(ecp-28), Ba(ecp-46): M. Kaupp, P. V. Schleyer, H. Stoll and H. Preuss, J. Chem. Phys., 1991, 94, 1360-1366.
La(ecp-46): M. Dolg, H. Stoll, A. Savin, H. Preuss, Theor. Chim. Acta, 1989, 75, 173-194.
Lu(ecp-28): X. Cao, M. Dolg, J. Chem. Phys., 2001, 115, 7348-7355.

ECP parameters for Au [Def2-ECP] have been obtained from:
TURBOMOLE (7.0.2)

----- Orbital basis set information -----
Your calculation utilizes the basis: def2-TZVP
   F. Weigend and R. Ahlrichs, Phys. Chem. Chem. Phys. 7, 3297 (2005).

----- AuxJ basis set information -----
Your calculation utilizes the auxiliary basis: def2/J
   F. Weigend, Phys. Chem. Chem. Phys. 8, 1057 (2006).

----- AuxC basis set information -----
Your calculation utilizes the auxiliary basis: def2-TZVP/C
  H-La, Hf-Rn : A. Hellweg, C. Hattig, S. Hofener and W. Klopper, Theor. Chem. Acc. 117, 587 (2007).
        Ce-Lu : J. Chmela and M. E. Harding, Mol. Phys. (2018).

================================================================================
                                        WARNINGS
                       Please study these warnings very carefully!
================================================================================


WARNING: No MP2 level density has been requested!
         To caclulate MP2 level properties use
         %mp2 Density relaxed end
         or
         %mp2 Density unrelaxed end
         Otherwise for double-hybrid DFT only the energy is correct!

WARNING: The frozen-core approximation is turned on by default for 
         the MP2 part of double-hybrid DFT.

INFO   : the flag for use of the SHARK integral package has been found!

================================================================================
                                       INPUT FILE
================================================================================
NAME = b2plyp.inp
|  1> !RI-B2PLYP def2-TZVP def2-TZVP/C
|  2> !RIJCOSX VERYSLOWCONV
|  3> 
|  4> %scf
|  5>   AutoTRAHIter 200
|  6>   maxiter 400
|  7> end
|  8> 
|  9> 
| 10> %pal nprocs 6 end 
| 11> 
| 12> *xyzfile 0 5 pbe.xyz
| 13> 
| 14> $new_job
| 15> 
| 16> !RI-B2PLYP def2-TZVP def2-TZVP/C
| 17> !RIJCOSX VERYSLOWCONV
| 18> 
| 19> %scf
| 20>   AutoTRAHIter 200
| 21>   maxiter 400
| 22> end
| 23> 
| 24> 
| 25> %pal nprocs 6 end 
| 26> 
| 27> *xyzfile 0 3 pbe.xyz
| 28> 
| 29> 
| 30> 
| 31> 
| 32> 
| 33>                          ****END OF INPUT****
================================================================================


                 $$$$$$$$$$$$$$$$$$$$$$$$$$$$$$$$$$$$$$$$$$$$$$ 
                 $ THERE ARE  2 JOBS TO BE PROCESSED THIS RUN $
                 $$$$$$$$$$$$$$$$$$$$$$$$$$$$$$$$$$$$$$$$$$$$$$ 




                 $$$$$$$$$$$$$$$$  JOB NUMBER  1 $$$$$$$$$$$$$$


                       ****************************
                       * Single Point Calculation *
                       ****************************

---------------------------------
CARTESIAN COORDINATES (ANGSTROEM)
---------------------------------
  Au     5.833928    7.533483    6.396372
  Au    11.706410    4.768450    7.171446
  Au     7.569939    5.678485    5.220674
  Au     9.064966    4.049150    6.908227
  Au    10.114002    6.758393    6.225575
  Au     6.895252    4.161562    8.481402
  Au     5.544647    6.596798    8.979679
  Au     7.943040    6.715585   10.360621
  Au    10.034318    5.655405    9.147782
  Au     8.389132    8.764757    6.530337
  Cr     7.892093    6.462183    7.722071

----------------------------
CARTESIAN COORDINATES (A.U.)
----------------------------
  NO LB      ZA    FRAG     MASS         X           Y           Z
   0 Au   19.0000*   0   196.966   11.024526   14.236220   12.087392
   1 Au   19.0000*   0   196.966   22.121909    9.011065   13.552069
   2 Au   19.0000*   0   196.966   14.305112   10.730781    9.865643
   3 Au   19.0000*   0   196.966   17.130304    7.651784   13.054657
   4 Au   19.0000*   0   196.966   19.112694   12.771512   11.764633
   5 Au   19.0000*   0   196.966   13.030138    7.864213   16.027528
   6 Au   19.0000*   0   196.966   10.477865   12.466141   16.969134
   7 Au   19.0000*   0   196.966   15.010171   12.690616   19.578736
   8 Au   19.0000*   0   196.966   18.962112   10.687167   17.286803
   9 Au   19.0000*   0   196.966   15.853161   16.562991   12.340548
  10 Cr   24.0000    0    52.000   14.913893   12.211755   14.592599
* core charge reduced due to ECP

--------------------------------
INTERNAL COORDINATES (ANGSTROEM)
--------------------------------
 Au     0   0   0     0.000000000000     0.00000000     0.00000000
 Au     1   0   0     6.536986499189     0.00000000     0.00000000
 Au     1   2   0     2.799468171115    38.04112568     0.00000000
 Au     2   1   3     2.750255144569    40.22398880   303.43061438
 Au     2   1   3     2.718511798268    28.70598134    92.20501107
 Au     4   2   1     2.682382713556   135.21717534   286.98719997
 Au     1   2   3     2.763066141653    80.78191666   126.18342625
 Au     7   1   2     2.770090725546   111.15558237    34.24612067
 Au     8   7   1     2.639772520566   116.08162336   309.69698686
 Au     5   2   1     2.663372988007   152.99529018    61.10008194
 Cr     6   4   2     2.619757435413    63.83402718    66.27292713

---------------------------
INTERNAL COORDINATES (A.U.)
---------------------------
 Au     0   0   0     0.000000000000     0.00000000     0.00000000
 Au     1   0   0    12.353114224608     0.00000000     0.00000000
 Au     1   2   0     5.290228164037    38.04112568     0.00000000
 Au     2   1   3     5.197229021644    40.22398880   303.43061438
 Au     2   1   3     5.137242790561    28.70598134    92.20501107
 Au     4   2   1     5.068968714985   135.21717534   286.98719997
 Au     1   2   3     5.221438297635    80.78191666   126.18342625
 Au     7   1   2     5.234712837397   111.15558237    34.24612067
 Au     8   7   1     4.988447119721   116.08162336   309.69698686
 Au     5   2   1     5.033045539817   152.99529018    61.10008194
 Cr     6   4   2     4.950624090235    63.83402718    66.27292713

---------------------
BASIS SET INFORMATION
---------------------
There are 2 groups of distinct atoms

 Group   1 Type Au  : 8s7p6d1f contracted to 6s4p3d1f pattern {311111/4111/411/1}
 Group   2 Type Cr  : 17s11p7d1f contracted to 6s4p4d1f pattern {842111/6311/4111/1}

Atom   0Au   basis set group =>   1
Atom   1Au   basis set group =>   1
Atom   2Au   basis set group =>   1
Atom   3Au   basis set group =>   1
Atom   4Au   basis set group =>   1
Atom   5Au   basis set group =>   1
Atom   6Au   basis set group =>   1
Atom   7Au   basis set group =>   1
Atom   8Au   basis set group =>   1
Atom   9Au   basis set group =>   1
Atom  10Cr   basis set group =>   2
---------------------------------
AUXILIARY/J BASIS SET INFORMATION
---------------------------------
There are 2 groups of distinct atoms

 Group   1 Type Au  : 11s5p5d3f3g contracted to 8s5p5d2f3g pattern {41111111/11111/11111/21/111}
 Group   2 Type Cr  : 19s5p5d3f3g contracted to 8s5p5d2f3g pattern {121111111/11111/11111/21/111}

Atom   0Au   basis set group =>   1
Atom   1Au   basis set group =>   1
Atom   2Au   basis set group =>   1
Atom   3Au   basis set group =>   1
Atom   4Au   basis set group =>   1
Atom   5Au   basis set group =>   1
Atom   6Au   basis set group =>   1
Atom   7Au   basis set group =>   1
Atom   8Au   basis set group =>   1
Atom   9Au   basis set group =>   1
Atom  10Cr   basis set group =>   2
---------------------------------
AUXILIARY/C BASIS SET INFORMATION
---------------------------------
There are 2 groups of distinct atoms

 Group   1 Type Au  : 8s8p7d5f3g2h contracted to 8s8p7d5f3g2h pattern {11111111/11111111/1111111/11111/111/11}
 Group   2 Type Cr  : 11s9p8d6f5g2h contracted to 9s8p8d6f5g2h pattern {311111111/21111111/11111111/111111/11111/11}

Atom   0Au   basis set group =>   1
Atom   1Au   basis set group =>   1
Atom   2Au   basis set group =>   1
Atom   3Au   basis set group =>   1
Atom   4Au   basis set group =>   1
Atom   5Au   basis set group =>   1
Atom   6Au   basis set group =>   1
Atom   7Au   basis set group =>   1
Atom   8Au   basis set group =>   1
Atom   9Au   basis set group =>   1
Atom  10Cr   basis set group =>   2
-------------------------
ECP PARAMETER INFORMATION
-------------------------

 Group 1, Type Au ECP Def2-ECP (replacing 60 core electrons, lmax=3)

Atom   0Au   ECP group =>   1
Atom   1Au   ECP group =>   1
Atom   2Au   ECP group =>   1
Atom   3Au   ECP group =>   1
Atom   4Au   ECP group =>   1
Atom   5Au   ECP group =>   1
Atom   6Au   ECP group =>   1
Atom   7Au   ECP group =>   1
Atom   8Au   ECP group =>   1
Atom   9Au   ECP group =>   1



           ************************************************************
           *        Program running with 6 parallel MPI-processes     *
           *              working on a common directory               *
           ************************************************************
------------------------------------------------------------------------------
                           ORCA GTO INTEGRAL CALCULATION
                           -- RI-GTO INTEGRALS CHOSEN --
------------------------------------------------------------------------------
------------------------------------------------------------------------------
                   ___                                                        
                  /   \      - P O W E R E D   B Y -                         
                 /     \                                                     
                 |  |  |   _    _      __       _____    __    __             
                 |  |  |  | |  | |    /  \     |  _  \  |  |  /  |          
                  \  \/   | |  | |   /    \    | | | |  |  | /  /          
                 / \  \   | |__| |  /  /\  \   | |_| |  |  |/  /          
                |  |  |   |  __  | /  /__\  \  |    /   |      \           
                |  |  |   | |  | | |   __   |  |    \   |  |\   \          
                \     /   | |  | | |  |  |  |  | |\  \  |  | \   \       
                 \___/    |_|  |_| |__|  |__|  |_| \__\ |__|  \__/        
                                                                              
                      - O R C A' S   B I G   F R I E N D -                    
                                      &                                       
                       - I N T E G R A L  F E E D E R -                       
                                                                              
 v1 FN, 2020, v2 2021                                                         
------------------------------------------------------------------------------


Reading SHARK input file b2plyp.SHARKINP.tmp ... ok
----------------------
SHARK INTEGRAL PACKAGE
----------------------

Number of atoms                             ...     11
Number of basis functions                   ...    445
Number of shells                            ...    155
Maximum angular momentum                    ...      3
Integral batch strategy                     ... SHARK/LIBINT Hybrid
RI-J (if used) integral strategy            ... SPLIT-RIJ (Revised 2003 algorithm where possible)
Printlevel                                  ...      1
Contraction scheme used                     ... SEGMENTED contraction
Coulomb Range Separation                    ... NOT USED
Exchange Range Separation                   ... NOT USED
Finite Nucleus Model                        ... NOT USED
Auxiliary Coulomb fitting basis             ... AVAILABLE
   # of basis functions in Aux-J            ...    979
   # of shells in Aux-J                     ...    253
   Maximum angular momentum in Aux-J        ...      4
Auxiliary J/K fitting basis                 ... NOT available
Auxiliary Correlation fitting basis         ... AVAILABLE
   # of basis functions in Aux-C            ...   1692
   # of shells in Aux-C                     ...    368
   Maximum angular momentum in Aux-C        ...      5
Auxiliary 'external' fitting basis          ... NOT available
Integral threshold                          ...     1.000000e-10
Primitive cut-off                           ...     1.000000e-11
Primitive pair pre-selection threshold      ...     1.000000e-11

Calculating pre-screening integrals         ... done (  0.1 sec) Dimension = 155
Organizing shell pair data                  ... done (  0.2 sec)
Shell pair information
Total number of shell pairs                 ...     12090
Shell pairs after pre-screening             ...     10035
Total number of primitive shell pairs       ...     33105
Primitive shell pairs kept                  ...     20331
          la=0 lb=0:   1563 shell pairs
          la=1 lb=0:   2277 shell pairs
          la=1 lb=1:    866 shell pairs
          la=2 lb=0:   1985 shell pairs
          la=2 lb=1:   1398 shell pairs
          la=2 lb=2:    575 shell pairs
          la=3 lb=0:    549 shell pairs
          la=3 lb=1:    412 shell pairs
          la=3 lb=2:    352 shell pairs
          la=3 lb=3:     58 shell pairs

Calculating one electron integrals          ... done (  0.0 sec)
Calculating ECP integrals                   ... done (  6.6 sec)
Calculating RI/J V-Matrix + Cholesky decomp.... done (  0.2 sec)
Calculating RI/C V-Matrix + Cholesky decomp.... done (  0.6 sec)
Calculating Nuclear repulsion               ... done (  0.0 sec) ENN=   3165.453832225093 Eh

SHARK setup successfully completed in   8.0 seconds

Maximum memory used throughout the entire GTOINT-calculation: 30.2 MB


           ************************************************************
           *        Program running with 6 parallel MPI-processes     *
           *              working on a common directory               *
           ************************************************************
-------------------------------------------------------------------------------
                                 ORCA SCF
-------------------------------------------------------------------------------

------------
SCF SETTINGS
------------
Hamiltonian:
 Density Functional     Method          .... DFT(GTOs)
 Exchange Functional    Exchange        .... B88
   X-Alpha parameter    XAlpha          ....  0.666667
   Becke's b parameter  XBeta           ....  0.004200
 Correlation Functional Correlation     .... LYP
 LDA part of GGA corr.  LDAOpt          .... VWN-3
 Gradients option       PostSCFGGA      .... off
 Hybrid DFT is turned on
   Fraction HF Exchange ScalHFX         ....  0.530000
   Scaling of DF-GGA-X  ScalDFX         ....  0.470000
   Scaling of DF-GGA-C  ScalDFC         ....  0.730000
   Scaling of DF-LDA-C  ScalLDAC        ....  0.730000
   Perturbative correction              ....  0.270000
   Density functional embedding theory  .... OFF
   NL short-range parameter             ....  7.800000
 RI-approximation to the Coulomb term is turned on
   Number of AuxJ basis functions       .... 979
   RIJ-COSX (HFX calculated with COS-X)).... on


General Settings:
 Integral files         IntName         .... b2plyp
 Hartree-Fock type      HFTyp           .... UHF
 Total Charge           Charge          ....    0
 Multiplicity           Mult            ....    5
 Number of Electrons    NEL             ....  214
 Basis Dimension        Dim             ....  445
 Nuclear Repulsion      ENuc            ....   3165.4538322251 Eh

Convergence Acceleration:
 DIIS                   CNVDIIS         .... on
   Start iteration      DIISMaxIt       ....     0
   Startup error        DIISStart       ....  0.200000
   # of expansion vecs  DIISMaxEq       ....     5
   Bias factor          DIISBfac        ....   1.050
   Max. coefficient     DIISMaxC        ....  10.000
 Trust-Rad. Augm. Hess. CNVTRAH         .... auto
   Auto Start mean grad. ratio tolernc. ....  1.125000
   Auto Start start iteration           ....   200
   Auto Start num. interpolation iter.  ....    10
   Max. Number of Micro iterations      ....    16
   Max. Number of Macro iterations      .... Maxiter - #DIIS iter
   Number of Davidson start vectors     ....     2
   Converg. threshold I  (grad. norm)   ....   5.000e-05
   Converg. threshold II (energy diff.) ....   1.000e-06
   Grad. Scal. Fac. for Micro threshold ....   0.100
   Minimum threshold for Micro iter.    ....   0.010
   NR start threshold (gradient norm)   ....   0.001
   Initial trust radius                 ....   0.400
   Minimum AH scaling param. (alpha)    ....   1.000
   Maximum AH scaling param. (alpha)    .... 1000.000
   Orbital update algorithm             .... Taylor
   White noise on init. David. guess    .... on
   Maximum white noise                  ....   0.010
   Quad. conv. algorithm                .... NR
 SOSCF                  CNVSOSCF        .... off
 Level Shifting         CNVShift        .... on
   Level shift para.    LevelShift      ....    0.2500
   Turn off err/grad.   ShiftErr        ....    0.0000
 Zerner damping         CNVZerner       .... off
 Static damping         CNVDamp         .... on
   Fraction old density DampFac         ....    0.9200
   Max. Damping (<1)    DampMax         ....    0.9800
   Min. Damping (>=0)   DampMin         ....    0.0000
   Turn off err/grad.   DampErr         ....    0.0030
 Fernandez-Rico         CNVRico         .... off

SCF Procedure:
 Maximum # iterations   MaxIter         ....   400
 SCF integral mode      SCFMode         .... Direct
   Integral package                     .... SHARK and LIBINT hybrid scheme
 Reset frequency        DirectResetFreq ....    20
 Integral Threshold     Thresh          ....  1.000e-10 Eh
 Primitive CutOff       TCut            ....  1.000e-11 Eh

Convergence Tolerance:
 Convergence Check Mode ConvCheckMode   .... Total+1el-Energy
 Convergence forced     ConvForced      .... 0
 Energy Change          TolE            ....  1.000e-06 Eh
 1-El. energy change                    ....  1.000e-03 Eh
 DIIS Error             TolErr          ....  1.000e-06


Diagonalization of the overlap matrix:
Smallest eigenvalue                        ... 2.294e-04
Time for diagonalization                   ...    0.054 sec
Threshold for overlap eigenvalues          ... 1.000e-08
Number of eigenvalues below threshold      ... 0
Time for construction of square roots      ...    0.062 sec
Total time needed                          ...    0.118 sec

Time for model grid setup =    0.504 sec

------------------------------
INITIAL GUESS: MODEL POTENTIAL
------------------------------
Loading Hartree-Fock densities                     ... done
  calling /media/Programs/ORCA501/orca b2plyp_atom79.inp > b2plyp_atom79.out in order to generate an atomic fitting density for atom 0 (Au with ECP) on-the-fly... 
    atom 0 (Au), assumed electronic state with S=2: 1s2 2s2 2p6 3s2 3p6 4s2 3d10 4p6 5s2 4d10 5p6 6s1 4f14 5d10           ... done
Calculating cut-offs                               ... done
Initializing the effective Hamiltonian             ... done
Setting up the integral package (SHARK)            ... done
Starting the Coulomb interaction                   ... done (   0.4 sec)
Reading the grid                                   ... done
Mapping shells                                     ... done
Starting the XC term evaluation                    ... done (   0.3 sec)
  promolecular density results
     # of electrons  =    814.011658503
     EX              =  -3721.191988535
     EC              =    -16.496192636
     EX+EC           =  -3737.688181171
Transforming the Hamiltonian                       ... done (   0.1 sec)
Diagonalizing the Hamiltonian                      ... done (   0.1 sec)
Back transforming the eigenvectors                 ... done (   0.0 sec)
Now organizing SCF variables                       ... done
                      ------------------
                      INITIAL GUESS DONE (   2.2 sec)
                      ------------------
-------------------
DFT GRID GENERATION
-------------------

General Integration Accuracy     IntAcc      ... 4.388
Radial Grid Type                 RadialGrid  ... OptM3 with GC (2021)
Angular Grid (max. ang.)         AngularGrid ... 4 (Lebedev-302)
Angular grid pruning method      GridPruning ... 4 (adaptive)
Weight generation scheme         WeightScheme... Becke
Basis function cutoff            BFCut       ... 1.0000e-10
Integration weight cutoff        WCut        ... 1.0000e-14
Angular grids for H and He will be reduced by one unit
Partially contracted basis set               ... off
Rotationally invariant grid construction     ... off

Total number of grid points                  ...   123318
Total number of batches                      ...     1932
Average number of points per batch           ...       63
Average number of grid points per atom       ...    11211
Time for grid setup =    1.609 sec

--------------------
COSX GRID GENERATION
--------------------

GRIDX 1
-------
General Integration Accuracy     IntAcc      ... 3.816
Radial Grid Type                 RadialGrid  ... OptM3 with GC (2021)
Angular Grid (max. ang.)         AngularGrid ... 1 (Lebedev-50)
Angular grid pruning method      GridPruning ... 4 (adaptive)
Weight generation scheme         WeightScheme... Becke
Basis function cutoff            BFCut       ... 1.0000e-10
Integration weight cutoff        WCut        ... 1.0000e-14
Angular grids for H and He will be reduced by one unit
Partially contracted basis set               ... on
Rotationally invariant grid construction     ... off

Total number of grid points                  ...    13083
Total number of batches                      ...      210
Average number of points per batch           ...       62
Average number of grid points per atom       ...     1189
UseSFitting                                  ... on

GRIDX 2
-------
General Integration Accuracy     IntAcc      ... 4.020
Radial Grid Type                 RadialGrid  ... OptM3 with GC (2021)
Angular Grid (max. ang.)         AngularGrid ... 2 (Lebedev-110)
Angular grid pruning method      GridPruning ... 4 (adaptive)
Weight generation scheme         WeightScheme... Becke
Basis function cutoff            BFCut       ... 1.0000e-10
Integration weight cutoff        WCut        ... 1.0000e-14
Angular grids for H and He will be reduced by one unit
Partially contracted basis set               ... on
Rotationally invariant grid construction     ... off

Total number of grid points                  ...    39392
Total number of batches                      ...      621
Average number of points per batch           ...       63
Average number of grid points per atom       ...     3581
UseSFitting                                  ... on

GRIDX 3
-------
General Integration Accuracy     IntAcc      ... 4.338
Radial Grid Type                 RadialGrid  ... OptM3 with GC (2021)
Angular Grid (max. ang.)         AngularGrid ... 3 (Lebedev-194)
Angular grid pruning method      GridPruning ... 4 (adaptive)
Weight generation scheme         WeightScheme... Becke
Basis function cutoff            BFCut       ... 1.0000e-10
Integration weight cutoff        WCut        ... 1.0000e-14
Angular grids for H and He will be reduced by one unit
Partially contracted basis set               ... on
Rotationally invariant grid construction     ... off

Total number of grid points                  ...    72517
Total number of batches                      ...     1137
Average number of points per batch           ...       63
Average number of grid points per atom       ...     6592
UseSFitting                                  ... on

Time for X-Grid setup             =    1.395 sec

--------------
SCF ITERATIONS
--------------
ITER       Energy         Delta-E        Max-DP      RMS-DP      [F,P]     Damp
               ***  Starting incremental Fock matrix formation  ***
  0  -2397.0062572058   0.000000000000 0.07694478  0.00056723  0.2724910 0.9200
  1  -2397.2903737997  -0.284116593868 0.06112461  0.00055025  0.2509975 0.9200
                               ***Turning on DIIS***
  2  -2397.4519589626  -0.161585162936 0.05684542  0.00044997  0.2309543 0.9200
  3  -2397.5229612483  -0.071002285729 0.04594147  0.00030159  0.2125199 0.9200
  4  -2397.5803404573  -0.057379208922 0.04976404  0.00027019  0.1955425 0.9200
  5  -2397.6354293990  -0.055088941690 0.04827865  0.00025812  0.1799023 0.9200
  6  -2397.6826349593  -0.047205560378 0.05086809  0.00024514  0.1655227 0.9200
  7  -2397.7296990819  -0.047064122540 0.05070547  0.00024288  0.1523202 0.9200
  8  -2397.7811300256  -0.051430943724 0.04818738  0.00023064  0.1401999 0.9200
  9  -2397.8276813958  -0.046551370216 0.04479082  0.00020508  0.1290251 0.9200
 10  -2397.8707820929  -0.043100697095 0.03830494  0.00018753  0.1187132 0.9200
 11  -2397.9097481242  -0.038966031308 0.03686467  0.00017668  0.1092090 0.9200
 12  -2397.9465606269  -0.036812502718 0.03640510  0.00016900  0.1004662 0.9200
 13  -2397.9821771073  -0.035616480418 0.03364599  0.00015899  0.0924373 0.9200
 14  -2398.0154841824  -0.033307075075 0.02922208  0.00014385  0.0850599 0.9200
 15  -2398.0464633731  -0.030979190717 0.02515207  0.00013167  0.0782675 0.9200
 16  -2398.0752046098  -0.028741236707 0.02324870  0.00012305  0.0720114 0.9200
 17  -2398.1020928073  -0.026888197491 0.02227792  0.00011594  0.0662521 0.9200
 18  -2398.1274242618  -0.025331454427 0.02054556  0.00010839  0.0609551 0.9200
 19  -2398.1511438131  -0.023719551348 0.01775749  0.00009955  0.0560849 0.9200
               *** Restarting incremental Fock matrix formation ***
                                   *** Resetting DIIS ***
 20  -2398.1744259895  -0.023282176396 0.01719693  0.00008796  0.0516052 0.9200
 21  -2398.1954116562  -0.020985666727 0.01574731  0.00007996  0.0474971 0.9200
 22  -2398.2149495989  -0.019537942670 0.01387025  0.00007406  0.0437139 0.9200
 23  -2398.2330794399  -0.018129841015 0.01243070  0.00007034  0.0402290 0.9200
 24  -2398.2498877740  -0.016808334044 0.01138687  0.00006739  0.0370194 0.9200
 25  -2398.2654792242  -0.015591450244 0.01059515  0.00006413  0.0340641 0.9200
 26  -2398.2799711265  -0.014491902308 0.00941945  0.00006035  0.0313441 0.9200
 27  -2398.2934373738  -0.013466247275 0.00804852  0.00005643  0.0288403 0.9200
 28  -2398.3059515514  -0.012514177634 0.00688644  0.00005284  0.0265358 0.9200
 29  -2398.3175836164  -0.011632065006 0.00603387  0.00004961  0.0244151 0.9200
 30  -2398.3283989320  -0.010815315563 0.00535430  0.00004661  0.0224639 0.9200
 31  -2398.3384554460  -0.010056513972 0.00467595  0.00004371  0.0206689 0.9200
 32  -2398.3478047565  -0.009349310510 0.00399177  0.00004093  0.0190184 0.9200
 33  -2398.3564948824  -0.008690125908 0.00346772  0.00003835  0.0175008 0.9200
 34  -2398.3645704911  -0.008075608670 0.00328900  0.00003598  0.0161041 0.9200
 35  -2398.3720732960  -0.007502804905 0.00313539  0.00003377  0.0148189 0.9200
 36  -2398.3790421932  -0.006968897280 0.00297415  0.00003168  0.0136363 0.9200
 37  -2398.3855134333  -0.006471240039 0.00280088  0.00002972  0.0125481 0.9200
 38  -2398.3915208788  -0.006007445530 0.00263354  0.00002789  0.0115467 0.9200
 39  -2398.3970961241  -0.005575245289 0.00245363  0.00002613  0.0106253 0.9200
               *** Restarting incremental Fock matrix formation ***
                                   *** Resetting DIIS ***
 40  -2398.4022708634  -0.005174739286 0.00181741  0.00002102  0.0097774 0.9200
 41  -2398.4071187287  -0.004847865323 0.00178995  0.00001869  0.0090025 0.9200
 42  -2398.4116099269  -0.004491198216 0.00160301  0.00001772  0.0082884 0.9200
 43  -2398.4157611919  -0.004151264947 0.00162718  0.00001747  0.0076300 0.9200
 44  -2398.4195947708  -0.003833578901 0.00164929  0.00001742  0.0070229 0.9200
 45  -2398.4231334570  -0.003538686196 0.00162501  0.00001700  0.0064632 0.9200
 46  -2398.4264031078  -0.003269650846 0.00159246  0.00001648  0.0059477 0.9200
 47  -2398.4294251407  -0.003022032854 0.00154255  0.00001591  0.0056166 0.9200
 48  -2398.4322189947  -0.002793854045 0.00147708  0.00001531  0.0052968 0.9200
 49  -2398.4348025535  -0.002583558822 0.00140792  0.00001469  0.0049902 0.9200
 50  -2398.4371921016  -0.002389548064 0.00134283  0.00001406  0.0046990 0.9200
 51  -2398.4394024139  -0.002210312336 0.00128053  0.00001344  0.0044220 0.9200
 52  -2398.4414470117  -0.002044597735 0.00121712  0.00001283  0.0041576 0.9200
 53  -2398.4433383873  -0.001891375634 0.00115249  0.00001223  0.0039060 0.9200
 54  -2398.4450880165  -0.001749629179 0.00108933  0.00001165  0.0036677 0.9200
 55  -2398.4467064635  -0.001618446994 0.00102969  0.00001109  0.0034427 0.9200
 56  -2398.4482034719  -0.001497008375 0.00097332  0.00001055  0.0032303 0.9200
 57  -2398.4495880705  -0.001384598623 0.00091891  0.00001003  0.0030295 0.9200
 58  -2398.4508685833  -0.001280512820 0.01082881  0.00011929  0.0028399 0.0000
 59  -2398.4662608584  -0.015392275106 0.00721850  0.00002302  0.0007599 0.0000
               *** Restarting incremental Fock matrix formation ***
                                   *** Resetting DIIS ***
 60  -2398.4650558702   0.001204988188 0.00727552  0.00010975  0.0008152 0.0000
 61  -2398.4651851512  -0.000129281023 0.00212483  0.00003872  0.0005095 0.0000
 62  -2398.4652155314  -0.000030380188 0.00165514  0.00001587  0.0009347 0.0000
 63  -2398.4652324139  -0.000016882460 0.00067426  0.00001034  0.0003478 0.0000
 64  -2398.4652454969  -0.000013083050 0.00093856  0.00000878  0.0003782 0.0000
 65  -2398.4652568705  -0.000011373613 0.00082454  0.00000858  0.0003654 0.0000
 66  -2398.4652674189  -0.000010548318 0.00068890  0.00000723  0.0003272 0.0000
 67  -2398.4652758323  -0.000008413481 0.00065823  0.00000685  0.0002785 0.0000
 68  -2398.4652833833  -0.000007550927 0.00050378  0.00000623  0.0001982 0.0000
 69  -2398.4652899387  -0.000006555382 0.00064588  0.00000707  0.0002473 0.0000
 70  -2398.4652970771  -0.000007138478 0.00071949  0.00000753  0.0001979 0.0000
 71  -2398.4653043145  -0.000007237327 0.00067363  0.00000673  0.0001988 0.0000
 72  -2398.4653107390  -0.000006424582 0.00074856  0.00000714  0.0001970 0.0000
 73  -2398.4653172620  -0.000006522907 0.00070030  0.00000719  0.0001978 0.0000
 74  -2398.4653237304  -0.000006468401 0.00113716  0.00000983  0.0001957 0.0000
 75  -2398.4653319350  -0.000008204690 0.00022374  0.00000274  0.0001997 0.0000
 76  -2398.4653340957  -0.000002160609 0.00106674  0.00000886  0.0001889 0.0000
 77  -2398.4653410771  -0.000006981476 0.00065950  0.00000570  0.0001933 0.0000
 78  -2398.4653458941  -0.000004816948 0.00182376  0.00001397  0.0001898 0.0000
 79  -2398.4653557311  -0.000009836983 0.00035614  0.00000322  0.0001968 0.0000
               *** Restarting incremental Fock matrix formation ***
                                   *** Resetting DIIS ***
 80  -2398.4653571855  -0.000001454416 0.00028765  0.00000361  0.0001838 0.0000
 81  -2398.4653597946  -0.000002609171 0.00031407  0.00000337  0.0001794 0.0000
 82  -2398.4653624071  -0.000002612453 0.00048080  0.00000417  0.0001771 0.0000
 83  -2398.4653654949  -0.000003087764 0.00063657  0.00000493  0.0001751 0.0000
 84  -2398.4653690526  -0.000003557701 0.00063313  0.00000615  0.0001744 0.0000
 85  -2398.4653734236  -0.000004371010 0.00024938  0.00000317  0.0001743 0.0000
 86  -2398.4653757449  -0.000002321366 0.00081377  0.00000690  0.0001731 0.0000
 87  -2398.4653804164  -0.000004671453 0.00037914  0.00000386  0.0001725 0.0000
 88  -2398.4653832155  -0.000002799154 0.00145431  0.00001125  0.0001671 0.0000
 89  -2398.4653901250  -0.000006909483 0.00054464  0.00000303  0.0001755 0.0000
 90  -2398.4653901853  -0.000000060258 0.00100355  0.00000790  0.0001597 0.0000
 91  -2398.4653951252  -0.000004939914 0.00053806  0.00000619  0.0001649 0.0000
 92  -2398.4653991435  -0.000004018313 0.00055243  0.00000608  0.0001634 0.0000
 93  -2398.4654030678  -0.000003924286 0.00049574  0.00000545  0.0001622 0.0000
 94  -2398.4654065706  -0.000003502840 0.00031349  0.00000398  0.0001585 0.0000
 95  -2398.4654091359  -0.000002565277 0.00081351  0.00000771  0.0001543 0.0000
 96  -2398.4654135893  -0.000004453353 0.00029145  0.00000404  0.0001575 0.0000
 97  -2398.4654161323  -0.000002543043 0.00135774  0.00001157  0.0001513 0.0000
 98  -2398.4654220495  -0.000005917224 0.00078110  0.00000482  0.0001603 0.0000
 99  -2398.4654211804   0.000000869162 0.00061444  0.00000548  0.0001413 0.0000
               *** Restarting incremental Fock matrix formation ***
                                   *** Resetting DIIS ***
100  -2398.4654231566  -0.000001976177 0.00023644  0.00000267  0.0001420 0.0000
101  -2398.4654245443  -0.000001387752 0.00021611  0.00000229  0.0001384 0.0000
102  -2398.4654258387  -0.000001294384 0.00027771  0.00000261  0.0001352 0.0000
103  -2398.4654272825  -0.000001443830 0.00046046  0.00000336  0.0001335 0.0000
104  -2398.4654290180  -0.000001735480 0.00057880  0.00000426  0.0001320 0.0000
105  -2398.4654311491  -0.000002131123 0.00025783  0.00000308  0.0001406 0.0000
106  -2398.4654328745  -0.000001725425 0.00081748  0.00000551  0.0001284 0.0000
107  -2398.4654355110  -0.000002636455 0.00017609  0.00000199  0.0001300 0.0000
108  -2398.4654366410  -0.000001129963 0.00113738  0.00000782  0.0001237 0.0000
109  -2398.4654401299  -0.000003488967 0.00034556  0.00000177  0.0001303 0.0000
110  -2398.4654405779  -0.000000447955 0.00075418  0.00000720  0.0001191 0.0000
111  -2398.4654437510  -0.000003173132 0.00030030  0.00000373  0.0001231 0.0000
112  -2398.4654455459  -0.000001794838 0.00051126  0.00000497  0.0001198 0.0000
113  -2398.4654477860  -0.000002240116 0.00042287  0.00000456  0.0001181 0.0000
114  -2398.4654498433  -0.000002057350 0.00032341  0.00000338  0.0001165 0.0000
115  -2398.4654514763  -0.000001632964 0.00091716  0.00000804  0.0001114 0.0000
116  -2398.4654545211  -0.000003044799 0.00040168  0.00000271  0.0001171 0.0000
117  -2398.4654544182   0.000000102858 0.00045018  0.00000398  0.0001044 0.0000
118  -2398.4654559955  -0.000001577248 0.00083721  0.00000789  0.0001041 0.0000
119  -2398.4654587598  -0.000002764290 0.00057174  0.00000371  0.0001119 0.0000
               *** Restarting incremental Fock matrix formation ***
                                   *** Resetting DIIS ***
120  -2398.4654591788  -0.000000419050 0.00022543  0.00000212  0.0001019 0.0000
121  -2398.4654596756  -0.000000496789 0.00013262  0.00000142  0.0001030 0.0000
122  -2398.4654603625  -0.000000686940 0.00014040  0.00000187  0.0000936 0.0000
123  -2398.4654609992  -0.000000636687 0.00019469  0.00000230  0.0000928 0.0000
124  -2398.4654618503  -0.000000851061 0.00068321  0.00000372  0.0000902 0.0000
125  -2398.4654630067  -0.000001156403 0.00011370  0.00000144  0.0000916 0.0000
126  -2398.4654635070  -0.000000500336 0.00078615  0.00000423  0.0000861 0.0000
127  -2398.4654648117  -0.000001304652 0.00013981  0.00000171  0.0000887 0.0000
128  -2398.4654652938  -0.000000482142 0.00138120  0.00000813  0.0000844 0.0000
129  -2398.4654675019  -0.000002208112 0.00070677  0.00000261  0.0001056 0.0000
                 **** Energy Check signals convergence ****

               *****************************************************
               *                     SUCCESS                       *
               *           SCF CONVERGED AFTER 130 CYCLES          *
               *****************************************************

Old exchange energy                            =    -88.428126338 Eh
New exchange energy                            =    -88.428296723 Eh
Exchange energy change after final integration =     -0.000170385 Eh
Total energy after final integration           =  -2398.465637895 Eh
Final COS-X integration done in                =    16.093 sec

----------------
TOTAL SCF ENERGY
----------------

Total Energy       :        -2398.46563789 Eh          -65265.56804 eV

Components:
Nuclear Repulsion  :         3165.45383223 Eh           86136.37786 eV
Electronic Energy  :        -5563.91947012 Eh         -151401.94591 eV
One Electron Energy:       -10152.33204019 Eh         -276258.99955 eV
Two Electron Energy:         4588.41257007 Eh          124857.05364 eV
Max COSX asymmetry :            0.00000808 Eh               0.00022 eV

Virial components:
Potential Energy   :        -3901.32290355 Eh         -106160.39330 eV
Kinetic Energy     :         1502.85726565 Eh           40894.82525 eV
Virial Ratio       :            2.59593708


DFT components:
N(Alpha)           :      108.999999842596 electrons
N(Beta)            :      104.999999910685 electrons
N(Total)           :      213.999999753281 electrons
E(X)               :      -79.624965998509 Eh       
E(C)               :       -5.893847277140 Eh       
E(XC)              :      -85.518813275649 Eh       
DFET-embed. en.    :        0.000000000000 Eh       

---------------
SCF CONVERGENCE
---------------

  Last Energy change         ...   -8.3351e-09  Tolerance :   1.0000e-06
  Last MAX-Density change    ...    0.0000e+00  Tolerance :   1.0000e-05
  Last RMS-Density change    ...    0.0000e+00  Tolerance :   1.0000e-06
  Last DIIS Error            ...    7.8865e-05  Tolerance :   1.0000e-06

             **** THE GBW FILE WAS UPDATED (b2plyp.gbw) ****
             **** DENSITY b2plyp.scfp WAS UPDATED ****
             **** ENERGY FILE WAS UPDATED (b2plyp.en.tmp) ****
----------------------
UHF SPIN CONTAMINATION
----------------------

Warning: in a DFT calculation there is little theoretical justification to 
         calculate <S**2> as in Hartree-Fock theory. We will do it anyways
         but you should keep in mind that the values have only limited relevance

Expectation value of <S**2>     :     6.410868
Ideal value S*(S+1) for S=2.0   :     6.000000
Deviation                       :     0.410868

             **** THE GBW FILE WAS UPDATED (b2plyp.gbw) ****
             **** DENSITY b2plyp.scfp WAS UPDATED ****
----------------
ORBITAL ENERGIES
----------------
                 SPIN UP ORBITALS
  NO   OCC          E(Eh)            E(eV) 
   0   1.0000    -217.724222     -5924.5773 
   1   1.0000     -25.410887      -691.4654 
   2   1.0000     -21.549618      -586.3949 
   3   1.0000     -21.549191      -586.3833 
   4   1.0000     -21.545875      -586.2931 
   5   1.0000      -4.402533      -119.7990 
   6   1.0000      -4.397837      -119.6712 
   7   1.0000      -4.390589      -119.4740 
   8   1.0000      -4.389500      -119.4444 
   9   1.0000      -4.389496      -119.4443 
  10   1.0000      -4.386350      -119.3586 
  11   1.0000      -4.386146      -119.3531 
  12   1.0000      -4.384989      -119.3216 
  13   1.0000      -4.384271      -119.3021 
  14   1.0000      -4.384076      -119.2968 
  15   1.0000      -3.203138       -87.1618 
  16   1.0000      -2.523143       -68.6582 
  17   1.0000      -2.521089       -68.6023 
  18   1.0000      -2.520264       -68.5799 
  19   1.0000      -2.519019       -68.5460 
  20   1.0000      -2.515964       -68.4629 
  21   1.0000      -2.514331       -68.4184 
  22   1.0000      -2.511937       -68.3533 
  23   1.0000      -2.510571       -68.3161 
  24   1.0000      -2.509102       -68.2761 
  25   1.0000      -2.508108       -68.2491 
  26   1.0000      -2.507861       -68.2424 
  27   1.0000      -2.507454       -68.2313 
  28   1.0000      -2.507194       -68.2242 
  29   1.0000      -2.506099       -68.1944 
  30   1.0000      -2.505229       -68.1708 
  31   1.0000      -2.504918       -68.1623 
  32   1.0000      -2.504411       -68.1485 
  33   1.0000      -2.503634       -68.1274 
  34   1.0000      -2.503618       -68.1269 
  35   1.0000      -2.503253       -68.1170 
  36   1.0000      -2.503027       -68.1108 
  37   1.0000      -2.502814       -68.1050 
  38   1.0000      -2.502243       -68.0895 
  39   1.0000      -2.500798       -68.0502 
  40   1.0000      -2.499664       -68.0193 
  41   1.0000      -2.498955       -68.0000 
  42   1.0000      -2.498749       -67.9944 
  43   1.0000      -2.498431       -67.9858 
  44   1.0000      -2.497890       -67.9710 
  45   1.0000      -2.497408       -67.9579 
  46   1.0000      -2.094385       -56.9911 
  47   1.0000      -2.087283       -56.7978 
  48   1.0000      -2.086897       -56.7873 
  49   1.0000      -0.481323       -13.0975 
  50   1.0000      -0.473388       -12.8815 
  51   1.0000      -0.465251       -12.6601 
  52   1.0000      -0.460208       -12.5229 
  53   1.0000      -0.456711       -12.4278 
  54   1.0000      -0.452654       -12.3173 
  55   1.0000      -0.449262       -12.2250 
  56   1.0000      -0.444137       -12.0856 
  57   1.0000      -0.441624       -12.0172 
  58   1.0000      -0.437100       -11.8941 
  59   1.0000      -0.433402       -11.7935 
  60   1.0000      -0.430431       -11.7126 
  61   1.0000      -0.426898       -11.6165 
  62   1.0000      -0.425111       -11.5678 
  63   1.0000      -0.421904       -11.4806 
  64   1.0000      -0.418813       -11.3965 
  65   1.0000      -0.417726       -11.3669 
  66   1.0000      -0.415522       -11.3069 
  67   1.0000      -0.411402       -11.1948 
  68   1.0000      -0.406843       -11.0708 
  69   1.0000      -0.405711       -11.0400 
  70   1.0000      -0.401188       -10.9169 
  71   1.0000      -0.398487       -10.8434 
  72   1.0000      -0.396295       -10.7837 
  73   1.0000      -0.389636       -10.6025 
  74   1.0000      -0.386403       -10.5146 
  75   1.0000      -0.383954       -10.4479 
  76   1.0000      -0.381029       -10.3683 
  77   1.0000      -0.378611       -10.3025 
  78   1.0000      -0.377946       -10.2844 
  79   1.0000      -0.374241       -10.1836 
  80   1.0000      -0.372412       -10.1339 
  81   1.0000      -0.369388       -10.0516 
  82   1.0000      -0.368322       -10.0226 
  83   1.0000      -0.363573        -9.8933 
  84   1.0000      -0.363376        -9.8880 
  85   1.0000      -0.360826        -9.8186 
  86   1.0000      -0.359857        -9.7922 
  87   1.0000      -0.358724        -9.7614 
  88   1.0000      -0.356721        -9.7069 
  89   1.0000      -0.355317        -9.6687 
  90   1.0000      -0.353916        -9.6306 
  91   1.0000      -0.352058        -9.5800 
  92   1.0000      -0.348279        -9.4771 
  93   1.0000      -0.346586        -9.4311 
  94   1.0000      -0.342932        -9.3316 
  95   1.0000      -0.340798        -9.2736 
  96   1.0000      -0.339100        -9.2274 
  97   1.0000      -0.336492        -9.1564 
  98   1.0000      -0.334961        -9.1148 
  99   1.0000      -0.328137        -8.9291 
 100   1.0000      -0.325940        -8.8693 
 101   1.0000      -0.320729        -8.7275 
 102   1.0000      -0.313228        -8.5234 
 103   1.0000      -0.299958        -8.1623 
 104   1.0000      -0.291096        -7.9211 
 105   1.0000      -0.288784        -7.8582 
 106   1.0000      -0.254914        -6.9366 
 107   1.0000      -0.235354        -6.4043 
 108   1.0000      -0.213604        -5.8125 
 109   0.0000      -0.102752        -2.7960 
 110   0.0000      -0.076316        -2.0767 
 111   0.0000      -0.069473        -1.8905 
 112   0.0000      -0.066926        -1.8212 
 113   0.0000      -0.034799        -0.9469 
 114   0.0000      -0.029291        -0.7970 
 115   0.0000      -0.023009        -0.6261 
 116   0.0000       0.001607         0.0437 
 117   0.0000       0.008610         0.2343 
 118   0.0000       0.012803         0.3484 
 119   0.0000       0.015477         0.4212 
 120   0.0000       0.021246         0.5781 
 121   0.0000       0.032015         0.8712 
 122   0.0000       0.048695         1.3250 
 123   0.0000       0.052001         1.4150 
 124   0.0000       0.063517         1.7284 
 125   0.0000       0.071711         1.9514 
 126   0.0000       0.082166         2.2359 
 127   0.0000       0.083902         2.2831 
 128   0.0000       0.090453         2.4614 
 129   0.0000       0.092447         2.5156 
 130   0.0000       0.095677         2.6035 
 131   0.0000       0.102291         2.7835 
 132   0.0000       0.106126         2.8878 
 133   0.0000       0.110033         2.9942 
 134   0.0000       0.116404         3.1675 
 135   0.0000       0.118984         3.2377 
 136   0.0000       0.121641         3.3100 
 137   0.0000       0.130838         3.5603 
 138   0.0000       0.133006         3.6193 
 139   0.0000       0.138707         3.7744 
 140   0.0000       0.146573         3.9885 
 141   0.0000       0.153231         4.1696 
 142   0.0000       0.164072         4.4646 
 143   0.0000       0.164539         4.4773 
 144   0.0000       0.174727         4.7546 
 145   0.0000       0.181374         4.9354 
 146   0.0000       0.185046         5.0354 
 147   0.0000       0.195895         5.3306 
 148   0.0000       0.205047         5.5796 
 149   0.0000       0.209348         5.6967 
 150   0.0000       0.209670         5.7054 
 151   0.0000       0.216378         5.8879 
 152   0.0000       0.219620         5.9762 
 153   0.0000       0.252892         6.8815 
 154   0.0000       0.292611         7.9624 
 155   0.0000       0.297733         8.1017 
 156   0.0000       0.302307         8.2262 
 157   0.0000       0.307100         8.3566 
 158   0.0000       0.314161         8.5488 
 159   0.0000       0.332373         9.0443 
 160   0.0000       0.334640         9.1060 
 161   0.0000       0.341762         9.2998 
 162   0.0000       0.345512         9.4019 
 163   0.0000       0.350968         9.5503 
 164   0.0000       0.355451         9.6723 
 165   0.0000       0.357489         9.7278 
 166   0.0000       0.360000         9.7961 
 167   0.0000       0.362559         9.8657 
 168   0.0000       0.369807        10.0630 
 169   0.0000       0.377257        10.2657 
 170   0.0000       0.383745        10.4422 
 171   0.0000       0.387689        10.5495 
 172   0.0000       0.392859        10.6902 
 173   0.0000       0.399061        10.8590 
 174   0.0000       0.404776        11.0145 
 175   0.0000       0.409075        11.1315 
 176   0.0000       0.409992        11.1564 
 177   0.0000       0.414373        11.2757 
 178   0.0000       0.419078        11.4037 
 179   0.0000       0.432592        11.7714 
 180   0.0000       0.439004        11.9459 
 181   0.0000       0.440167        11.9775 
 182   0.0000       0.444907        12.1065 
 183   0.0000       0.450854        12.2684 
 184   0.0000       0.453502        12.3404 
 185   0.0000       0.459788        12.5115 
 186   0.0000       0.464527        12.6404 
 187   0.0000       0.467498        12.7213 
 188   0.0000       0.483669        13.1613 
 189   0.0000       0.489508        13.3202 
 190   0.0000       0.494656        13.4603 
 191   0.0000       0.496565        13.5122 
 192   0.0000       0.500783        13.6270 
 193   0.0000       0.505842        13.7647 
 194   0.0000       0.514257        13.9936 
 195   0.0000       0.517430        14.0800 
 196   0.0000       0.528415        14.3789 
 197   0.0000       0.532696        14.4954 
 198   0.0000       0.538894        14.6641 
 199   0.0000       0.546158        14.8617 
 200   0.0000       0.555927        15.1275 
 201   0.0000       0.561505        15.2793 
 202   0.0000       0.566874        15.4254 
 203   0.0000       0.575973        15.6730 
 204   0.0000       0.579726        15.7751 
 205   0.0000       0.590742        16.0749 
 206   0.0000       0.596619        16.2348 
 207   0.0000       0.603909        16.4332 
 208   0.0000       0.606307        16.4985 
 209   0.0000       0.616477        16.7752 
 210   0.0000       0.620984        16.8978 
 211   0.0000       0.626695        17.0532 
 212   0.0000       0.630761        17.1639 
 213   0.0000       0.642543        17.4845 
 214   0.0000       0.648669        17.6512 
 215   0.0000       0.654353        17.8058 
 216   0.0000       0.660145        17.9635 
 217   0.0000       0.668271        18.1846 
 218   0.0000       0.680446        18.5159 
 219   0.0000       0.752306        20.4713 
 220   0.0000       0.755379        20.5549 
 221   0.0000       0.797590        21.7035 
 222   0.0000       0.802817        21.8458 
 223   0.0000       0.823545        22.4098 
 224   0.0000       0.842134        22.9156 
 225   0.0000       0.846377        23.0311 
 226   0.0000       0.871887        23.7252 
 227   0.0000       0.882096        24.0031 
 228   0.0000       0.895500        24.3678 
 229   0.0000       0.898318        24.4445 
 230   0.0000       0.911439        24.8015 
 231   0.0000       0.923409        25.1272 
 232   0.0000       0.941037        25.6069 
 233   0.0000       0.956329        26.0230 
 234   0.0000       0.973424        26.4882 
 235   0.0000       0.979373        26.6501 
 236   0.0000       1.002435        27.2776 
 237   0.0000       1.008160        27.4334 
 238   0.0000       1.030308        28.0361 
 239   0.0000       1.045753        28.4564 
 240   0.0000       1.055212        28.7138 
 241   0.0000       1.065938        29.0056 
 242   0.0000       1.077982        29.3334 
 243   0.0000       1.097125        29.8543 
 244   0.0000       1.124809        30.6076 
 245   0.0000       1.185388        32.2561 
 246   0.0000       1.212870        33.0039 
 247   0.0000       1.233883        33.5757 
 248   0.0000       1.247835        33.9553 
 249   0.0000       1.395434        37.9717 
 250   0.0000       1.409207        38.3465 
 251   0.0000       1.415004        38.5042 
 252   0.0000       1.428425        38.8694 
 253   0.0000       1.461611        39.7725 
 254   0.0000       1.466466        39.9046 
 255   0.0000       1.475133        40.1404 
 256   0.0000       1.482417        40.3386 
 257   0.0000       1.502641        40.8889 
 258   0.0000       1.513195        41.1761 
 259   0.0000       1.529494        41.6197 
 260   0.0000       1.541101        41.9355 
 261   0.0000       1.552382        42.2425 
 262   0.0000       1.556615        42.3576 
 263   0.0000       1.560367        42.4598 
 264   0.0000       1.572239        42.7828 
 265   0.0000       1.575001        42.8580 
 266   0.0000       1.584895        43.1272 
 267   0.0000       1.589447        43.2510 
 268   0.0000       1.596199        43.4348 
 269   0.0000       1.601253        43.5723 
 270   0.0000       1.608585        43.7718 
 271   0.0000       1.612918        43.8897 
 272   0.0000       1.619542        44.0700 
 273   0.0000       1.620709        44.1017 
 274   0.0000       1.626236        44.2521 
 275   0.0000       1.629049        44.3287 
 276   0.0000       1.634194        44.4687 
 277   0.0000       1.638755        44.5928 
 278   0.0000       1.642610        44.6977 
 279   0.0000       1.645134        44.7664 
 280   0.0000       1.647359        44.8269 
 281   0.0000       1.652129        44.9567 
 282   0.0000       1.654500        45.0212 
 283   0.0000       1.658223        45.1225 
 284   0.0000       1.664864        45.3033 
 285   0.0000       1.665144        45.3109 
 286   0.0000       1.670275        45.4505 
 287   0.0000       1.672736        45.5174 
 288   0.0000       1.675962        45.6052 
 289   0.0000       1.678063        45.6624 
 290   0.0000       1.680366        45.7251 
 291   0.0000       1.682531        45.7840 
 292   0.0000       1.684719        45.8435 
 293   0.0000       1.689249        45.9668 
 294   0.0000       1.689820        45.9823 
 295   0.0000       1.692688        46.0604 
 296   0.0000       1.694763        46.1168 
 297   0.0000       1.695641        46.1407 
 298   0.0000       1.699070        46.2340 
 299   0.0000       1.700275        46.2668 
 300   0.0000       1.701625        46.3036 
 301   0.0000       1.703286        46.3488 
 302   0.0000       1.705036        46.3964 
 303   0.0000       1.709088        46.5066 
 304   0.0000       1.709935        46.5297 
 305   0.0000       1.715642        46.6850 
 306   0.0000       1.716632        46.7119 
 307   0.0000       1.717749        46.7423 
 308   0.0000       1.719030        46.7772 
 309   0.0000       1.721516        46.8448 
 310   0.0000       1.723304        46.8935 
 311   0.0000       1.725559        46.9549 
 312   0.0000       1.726315        46.9754 
 313   0.0000       1.729536        47.0631 
 314   0.0000       1.731711        47.1223 
 315   0.0000       1.734509        47.1984 
 316   0.0000       1.735504        47.2255 
 317   0.0000       1.736949        47.2648 
 318   0.0000       1.738355        47.3030 
 319   0.0000       1.741035        47.3760 
 320   0.0000       1.742199        47.4076 
 321   0.0000       1.744469        47.4694 
 322   0.0000       1.747658        47.5562 
 323   0.0000       1.750717        47.6394 
 324   0.0000       1.751674        47.6655 
 325   0.0000       1.755330        47.7650 
 326   0.0000       1.757701        47.8295 
 327   0.0000       1.758332        47.8466 
 328   0.0000       1.761504        47.9330 
 329   0.0000       1.763110        47.9766 
 330   0.0000       1.770443        48.1762 
 331   0.0000       1.774551        48.2880 
 332   0.0000       1.776697        48.3464 
 333   0.0000       1.778678        48.4003 
 334   0.0000       1.781067        48.4653 
 335   0.0000       1.786018        48.6000 
 336   0.0000       1.791341        48.7449 
 337   0.0000       1.793759        48.8107 
 338   0.0000       1.796244        48.8783 
 339   0.0000       1.801064        49.0094 
 340   0.0000       1.804302        49.0975 
 341   0.0000       1.805147        49.1206 
 342   0.0000       1.812417        49.3184 
 343   0.0000       1.815347        49.3981 
 344   0.0000       1.817774        49.4642 
 345   0.0000       1.820614        49.5414 
 346   0.0000       1.822345        49.5885 
 347   0.0000       1.833186        49.8835 
 348   0.0000       1.843809        50.1726 
 349   0.0000       1.849503        50.3275 
 350   0.0000       1.860145        50.6171 
 351   0.0000       1.874441        51.0061 
 352   0.0000       1.885574        51.3091 
 353   0.0000       1.894430        51.5501 
 354   0.0000       1.897156        51.6242 
 355   0.0000       1.906833        51.8876 
 356   0.0000       1.930894        52.5423 
 357   0.0000       1.942779        52.8657 
 358   0.0000       1.970381        53.6168 
 359   0.0000       1.986222        54.0478 
 360   0.0000       2.012707        54.7685 
 361   0.0000       2.031001        55.2663 
 362   0.0000       2.034168        55.3525 
 363   0.0000       2.044449        55.6323 
 364   0.0000       2.072650        56.3997 
 365   0.0000       2.079905        56.5971 
 366   0.0000       2.103008        57.2258 
 367   0.0000       2.132006        58.0148 
 368   0.0000       2.136621        58.1404 
 369   0.0000       2.174951        59.1834 
 370   0.0000       2.221360        60.4463 
 371   0.0000       2.332239        63.4635 
 372   0.0000       2.396528        65.2129 
 373   0.0000       2.452209        66.7280 
 374   0.0000       2.496437        67.9315 
 375   0.0000       2.516534        68.4784 
 376   0.0000       2.544299        69.2339 
 377   0.0000       2.569034        69.9070 
 378   0.0000       2.581361        70.2424 
 379   0.0000       2.633354        71.6572 
 380   0.0000       2.664349        72.5006 
 381   0.0000       2.694224        73.3136 
 382   0.0000       2.713212        73.8303 
 383   0.0000       2.724067        74.1256 
 384   0.0000       2.760424        75.1150 
 385   0.0000       2.795833        76.0785 
 386   0.0000       2.893663        78.7406 
 387   0.0000       3.044907        82.8561 
 388   0.0000       3.074696        83.6667 
 389   0.0000       3.084840        83.9428 
 390   0.0000       3.098781        84.3221 
 391   0.0000       3.105337        84.5005 
 392   0.0000       3.126767        85.0836 
 393   0.0000       3.155117        85.8551 
 394   0.0000       3.170008        86.2603 
 395   0.0000      23.650638       643.5666 
 396   0.0000      23.987834       652.7422 
 397   0.0000      24.071593       655.0213 
 398   0.0000      24.171975       657.7529 
 399   0.0000      24.297342       661.1643 
 400   0.0000      24.506901       666.8667 
 401   0.0000      24.816092       675.2802 
 402   0.0000      24.944358       678.7705 
 403   0.0000      25.132091       683.8790 
 404   0.0000      25.471750       693.1216 
 405   0.0000      25.566345       695.6956 
 406   0.0000      25.794128       701.8939 
 407   0.0000      25.910586       705.0629 
 408   0.0000      26.053807       708.9601 
 409   0.0000      26.250017       714.2993 
 410   0.0000      26.287247       715.3123 
 411   0.0000      26.400949       718.4063 
 412   0.0000      26.561147       722.7655 
 413   0.0000      26.673271       725.8166 
 414   0.0000      26.859287       730.8784 
 415   0.0000      26.964683       733.7463 
 416   0.0000      27.365099       744.6422 
 417   0.0000      27.477632       747.7044 
 418   0.0000      27.675862       753.0985 
 419   0.0000      28.009323       762.1724 
 420   0.0000      28.131281       765.4911 
 421   0.0000      28.293280       769.8993 
 422   0.0000      28.510460       775.8091 
 423   0.0000      28.758244       782.5516 
 424   0.0000      28.838444       784.7340 
 425   0.0000      44.116247      1200.4641 
 426   0.0000      44.176054      1202.0915 
 427   0.0000      44.212361      1203.0795 
 428   0.0000      44.236475      1203.7357 
 429   0.0000      44.287295      1205.1186 
 430   0.0000      44.292744      1205.2668 
 431   0.0000      44.342006      1206.6073 
 432   0.0000      44.348999      1206.7976 
 433   0.0000      44.368270      1207.3220 
 434   0.0000      44.402778      1208.2610 
 435   0.0000     202.681995      5515.2575 
 436   0.0000     202.704875      5515.8801 
 437   0.0000     202.720508      5516.3055 
 438   0.0000     202.730927      5516.5890 
 439   0.0000     202.750478      5517.1210 
 440   0.0000     202.753681      5517.2082 
 441   0.0000     202.772172      5517.7113 
 442   0.0000     202.777391      5517.8533 
 443   0.0000     202.784498      5518.0467 
 444   0.0000     202.794836      5518.3280 

                 SPIN DOWN ORBITALS
  NO   OCC          E(Eh)            E(eV) 
   0   1.0000    -217.722869     -5924.5405 
   1   1.0000     -25.340088      -689.5389 
   2   1.0000     -21.488508      -584.7320 
   3   1.0000     -21.485785      -584.6579 
   4   1.0000     -21.474276      -584.3448 
   5   1.0000      -4.400744      -119.7503 
   6   1.0000      -4.395991      -119.6210 
   7   1.0000      -4.389119      -119.4340 
   8   1.0000      -4.388641      -119.4210 
   9   1.0000      -4.388299      -119.4117 
  10   1.0000      -4.385122      -119.3252 
  11   1.0000      -4.384882      -119.3187 
  12   1.0000      -4.383591      -119.2836 
  13   1.0000      -4.382878      -119.2642 
  14   1.0000      -4.382564      -119.2556 
  15   1.0000      -2.983625       -81.1886 
  16   1.0000      -2.520170       -68.5773 
  17   1.0000      -2.518692       -68.5371 
  18   1.0000      -2.517623       -68.5080 
  19   1.0000      -2.516957       -68.4899 
  20   1.0000      -2.513258       -68.3892 
  21   1.0000      -2.511855       -68.3511 
  22   1.0000      -2.510210       -68.3063 
  23   1.0000      -2.508773       -68.2672 
  24   1.0000      -2.507145       -68.2229 
  25   1.0000      -2.506381       -68.2021 
  26   1.0000      -2.506068       -68.1936 
  27   1.0000      -2.505838       -68.1873 
  28   1.0000      -2.505134       -68.1682 
  29   1.0000      -2.504035       -68.1383 
  30   1.0000      -2.503747       -68.1304 
  31   1.0000      -2.503032       -68.1110 
  32   1.0000      -2.502819       -68.1052 
  33   1.0000      -2.502754       -68.1034 
  34   1.0000      -2.502113       -68.0860 
  35   1.0000      -2.501844       -68.0786 
  36   1.0000      -2.501737       -68.0757 
  37   1.0000      -2.501102       -68.0584 
  38   1.0000      -2.500040       -68.0295 
  39   1.0000      -2.498688       -67.9927 
  40   1.0000      -2.498218       -67.9800 
  41   1.0000      -2.497687       -67.9655 
  42   1.0000      -2.496974       -67.9461 
  43   1.0000      -2.496580       -67.9354 
  44   1.0000      -2.496466       -67.9323 
  45   1.0000      -2.495970       -67.9188 
  46   1.0000      -1.849898       -50.3383 
  47   1.0000      -1.842767       -50.1442 
  48   1.0000      -1.817962       -49.4693 
  49   1.0000      -0.472234       -12.8501 
  50   1.0000      -0.465780       -12.6745 
  51   1.0000      -0.453682       -12.3453 
  52   1.0000      -0.449837       -12.2407 
  53   1.0000      -0.449039       -12.2190 
  54   1.0000      -0.443425       -12.0662 
  55   1.0000      -0.440251       -11.9799 
  56   1.0000      -0.437944       -11.9171 
  57   1.0000      -0.434603       -11.8261 
  58   1.0000      -0.431034       -11.7290 
  59   1.0000      -0.430009       -11.7011 
  60   1.0000      -0.423394       -11.5211 
  61   1.0000      -0.421791       -11.4775 
  62   1.0000      -0.420918       -11.4538 
  63   1.0000      -0.419381       -11.4119 
  64   1.0000      -0.416086       -11.3223 
  65   1.0000      -0.413027       -11.2390 
  66   1.0000      -0.412070       -11.2130 
  67   1.0000      -0.407977       -11.1016 
  68   1.0000      -0.403485       -10.9794 
  69   1.0000      -0.398807       -10.8521 
  70   1.0000      -0.392458       -10.6793 
  71   1.0000      -0.391180       -10.6446 
  72   1.0000      -0.389674       -10.6036 
  73   1.0000      -0.382590       -10.4108 
  74   1.0000      -0.382238       -10.4012 
  75   1.0000      -0.381284       -10.3753 
  76   1.0000      -0.378354       -10.2955 
  77   1.0000      -0.375640       -10.2217 
  78   1.0000      -0.373080       -10.1520 
  79   1.0000      -0.370967       -10.0945 
  80   1.0000      -0.369652       -10.0587 
  81   1.0000      -0.367436        -9.9984 
  82   1.0000      -0.364815        -9.9271 
  83   1.0000      -0.361870        -9.8470 
  84   1.0000      -0.361419        -9.8347 
  85   1.0000      -0.358232        -9.7480 
  86   1.0000      -0.357951        -9.7404 
  87   1.0000      -0.356749        -9.7076 
  88   1.0000      -0.355370        -9.6701 
  89   1.0000      -0.353692        -9.6244 
  90   1.0000      -0.351893        -9.5755 
  91   1.0000      -0.349183        -9.5018 
  92   1.0000      -0.346016        -9.4156 
  93   1.0000      -0.343326        -9.3424 
  94   1.0000      -0.340349        -9.2614 
  95   1.0000      -0.339105        -9.2275 
  96   1.0000      -0.332411        -9.0454 
  97   1.0000      -0.331527        -9.0213 
  98   1.0000      -0.323625        -8.8063 
  99   1.0000      -0.321436        -8.7467 
 100   1.0000      -0.308002        -8.3812 
 101   1.0000      -0.293107        -7.9759 
 102   1.0000      -0.257106        -6.9962 
 103   1.0000      -0.223764        -6.0889 
 104   1.0000      -0.207054        -5.6342 
 105   0.0000      -0.117531        -3.1982 
 106   0.0000      -0.080984        -2.2037 
 107   0.0000      -0.069615        -1.8943 
 108   0.0000      -0.036807        -1.0016 
 109   0.0000      -0.033206        -0.9036 
 110   0.0000      -0.031698        -0.8625 
 111   0.0000       0.002983         0.0812 
 112   0.0000       0.003921         0.1067 
 113   0.0000       0.011504         0.3130 
 114   0.0000       0.013132         0.3573 
 115   0.0000       0.018149         0.4939 
 116   0.0000       0.029947         0.8149 
 117   0.0000       0.031889         0.8677 
 118   0.0000       0.039722         1.0809 
 119   0.0000       0.047616         1.2957 
 120   0.0000       0.054034         1.4703 
 121   0.0000       0.062382         1.6975 
 122   0.0000       0.073076         1.9885 
 123   0.0000       0.086811         2.3623 
 124   0.0000       0.088142         2.3985 
 125   0.0000       0.090202         2.4545 
 126   0.0000       0.098351         2.6763 
 127   0.0000       0.102116         2.7787 
 128   0.0000       0.105160         2.8615 
 129   0.0000       0.106899         2.9089 
 130   0.0000       0.109935         2.9915 
 131   0.0000       0.115630         3.1465 
 132   0.0000       0.118703         3.2301 
 133   0.0000       0.120594         3.2815 
 134   0.0000       0.125531         3.4159 
 135   0.0000       0.128492         3.4965 
 136   0.0000       0.132115         3.5950 
 137   0.0000       0.137212         3.7337 
 138   0.0000       0.139151         3.7865 
 139   0.0000       0.148896         4.0517 
 140   0.0000       0.156033         4.2459 
 141   0.0000       0.158988         4.3263 
 142   0.0000       0.166503         4.5308 
 143   0.0000       0.173590         4.7236 
 144   0.0000       0.182117         4.9557 
 145   0.0000       0.185811         5.0562 
 146   0.0000       0.191837         5.2202 
 147   0.0000       0.210464         5.7270 
 148   0.0000       0.216860         5.9011 
 149   0.0000       0.220718         6.0060 
 150   0.0000       0.225201         6.1280 
 151   0.0000       0.226643         6.1673 
 152   0.0000       0.238256         6.4833 
 153   0.0000       0.261915         7.1271 
 154   0.0000       0.301960         8.2167 
 155   0.0000       0.307076         8.3560 
 156   0.0000       0.310275         8.4430 
 157   0.0000       0.316965         8.6251 
 158   0.0000       0.326779         8.8921 
 159   0.0000       0.336081         9.1452 
 160   0.0000       0.338576         9.2131 
 161   0.0000       0.347079         9.4445 
 162   0.0000       0.347545         9.4572 
 163   0.0000       0.351850         9.5743 
 164   0.0000       0.358012         9.7420 
 165   0.0000       0.360950         9.8220 
 166   0.0000       0.361561         9.8386 
 167   0.0000       0.367010         9.9868 
 168   0.0000       0.371973        10.1219 
 169   0.0000       0.377873        10.2824 
 170   0.0000       0.386250        10.5104 
 171   0.0000       0.388400        10.5689 
 172   0.0000       0.393705        10.7132 
 173   0.0000       0.399205        10.8629 
 174   0.0000       0.404160        10.9978 
 175   0.0000       0.409002        11.1295 
 176   0.0000       0.411072        11.1858 
 177   0.0000       0.414965        11.2918 
 178   0.0000       0.419771        11.4225 
 179   0.0000       0.432906        11.7800 
 180   0.0000       0.440018        11.9735 
 181   0.0000       0.440824        11.9954 
 182   0.0000       0.446197        12.1416 
 183   0.0000       0.452027        12.3003 
 184   0.0000       0.455229        12.3874 
 185   0.0000       0.462153        12.5758 
 186   0.0000       0.465061        12.6550 
 187   0.0000       0.470952        12.8153 
 188   0.0000       0.484243        13.1769 
 189   0.0000       0.491638        13.3781 
 190   0.0000       0.495256        13.4766 
 191   0.0000       0.499623        13.5954 
 192   0.0000       0.502792        13.6817 
 193   0.0000       0.508796        13.8450 
 194   0.0000       0.516813        14.0632 
 195   0.0000       0.523054        14.2330 
 196   0.0000       0.529874        14.4186 
 197   0.0000       0.536778        14.6065 
 198   0.0000       0.542062        14.7503 
 199   0.0000       0.547663        14.9027 
 200   0.0000       0.561173        15.2703 
 201   0.0000       0.565875        15.3982 
 202   0.0000       0.571019        15.5382 
 203   0.0000       0.577978        15.7276 
 204   0.0000       0.584429        15.9031 
 205   0.0000       0.593867        16.1599 
 206   0.0000       0.603265        16.4157 
 207   0.0000       0.613212        16.6863 
 208   0.0000       0.618626        16.8337 
 209   0.0000       0.618993        16.8436 
 210   0.0000       0.625260        17.0142 
 211   0.0000       0.631749        17.1908 
 212   0.0000       0.645561        17.5666 
 213   0.0000       0.657583        17.8937 
 214   0.0000       0.670422        18.2431 
 215   0.0000       0.673060        18.3149 
 216   0.0000       0.680535        18.5183 
 217   0.0000       0.694123        18.8881 
 218   0.0000       0.703630        19.1467 
 219   0.0000       0.756817        20.5940 
 220   0.0000       0.758219        20.6322 
 221   0.0000       0.801675        21.8147 
 222   0.0000       0.807959        21.9857 
 223   0.0000       0.826112        22.4797 
 224   0.0000       0.845434        23.0054 
[...]
      f+2     :     0.000826
      f-2     :     0.001066
      f+3     :     0.000459
      f-3     :     0.000749
  9 Aus       :     2.658367  s :     2.658367
      pz      :     2.044356  p :     6.290171
      px      :     2.161660
      py      :     2.084155
      dz2     :     1.988029  d :     9.911602
      dxz     :     1.987487
      dyz     :     1.974638
      dx2y2   :     1.981521
      dxy     :     1.979927
      f0      :     0.000331  f :     0.003563
      f+1     :     0.000388
      f-1     :     0.000431
      f+2     :     0.000309
      f-2     :     0.000465
      f+3     :     0.000801
      f-3     :     0.000838
 10 Crs       :     6.299616  s :     6.299616
      pz      :     4.242413  p :    12.683438
      px      :     4.228101
      py      :     4.212923
      dz2     :     1.235989  d :     5.798309
      dxz     :     1.377769
      dyz     :     1.219081
      dx2y2   :     0.896117
      dxy     :     1.069353
      f0      :     0.000498  f :     0.002399
      f+1     :     0.000261
      f-1     :     0.000275
      f+2     :     0.000407
      f-2     :     0.000270
      f+3     :     0.000374
      f-3     :     0.000315

SPIN
  0 Aus       :    -0.109741  s :    -0.109741
      pz      :    -0.016531  p :    -0.030047
      px      :     0.005279
      py      :    -0.018795
      dz2     :     0.000356  d :    -0.005811
      dxz     :     0.001361
      dyz     :    -0.006351
      dx2y2   :     0.005163
      dxy     :    -0.006339
      f0      :     0.000020  f :     0.000337
      f+1     :     0.000037
      f-1     :     0.000014
      f+2     :     0.000070
      f-2     :     0.000093
      f+3     :     0.000036
      f-3     :     0.000067
  1 Aus       :    -0.037227  s :    -0.037227
      pz      :    -0.037277  p :    -0.045526
      px      :    -0.002501
      py      :    -0.005748
      dz2     :    -0.002040  d :    -0.023688
      dxz     :    -0.013194
      dyz     :    -0.005261
      dx2y2   :    -0.001079
      dxy     :    -0.002114
      f0      :    -0.000023  f :    -0.000128
      f+1     :    -0.000012
      f-1     :    -0.000011
      f+2     :    -0.000016
      f-2     :    -0.000050
      f+3     :    -0.000011
      f-3     :    -0.000005
  2 Aus       :    -0.153438  s :    -0.153438
      pz      :    -0.013267  p :    -0.052313
      px      :    -0.036899
      py      :    -0.002146
      dz2     :     0.006068  d :     0.006314
      dxz     :     0.006434
      dyz     :     0.005609
      dx2y2   :    -0.002981
      dxy     :    -0.008816
      f0      :     0.000244  f :     0.000524
      f+1     :     0.000089
      f-1     :     0.000173
      f+2     :     0.000023
      f-2     :     0.000016
      f+3     :    -0.000020
      f-3     :    -0.000001
  3 Aus       :     0.004835  s :     0.004835
      pz      :    -0.059233  p :    -0.081923
      px      :    -0.008696
      py      :    -0.013994
      dz2     :     0.000200  d :    -0.004591
      dxz     :    -0.006583
      dyz     :    -0.001515
      dx2y2   :    -0.000738
      dxy     :     0.004046
      f0      :    -0.000004  f :     0.000152
      f+1     :    -0.000005
      f-1     :     0.000027
      f+2     :     0.000006
      f-2     :     0.000028
      f+3     :     0.000101
      f-3     :    -0.000001
  4 Aus       :    -0.082385  s :    -0.082385
      pz      :    -0.014240  p :    -0.048798
      px      :    -0.005303
      py      :    -0.029255
      dz2     :     0.001420  d :    -0.010753
      dxz     :     0.000919
      dyz     :    -0.002376
      dx2y2   :     0.001419
      dxy     :    -0.012135
      f0      :     0.000030  f :     0.000324
      f+1     :     0.000072
      f-1     :    -0.000013
      f+2     :     0.000141
      f-2     :     0.000028
      f+3     :     0.000064
      f-3     :     0.000002
  5 Aus       :    -0.106490  s :    -0.106490
      pz      :     0.001710  p :    -0.039012
      px      :    -0.019295
      py      :    -0.021426
      dz2     :     0.000359  d :     0.011906
      dxz     :     0.003561
      dyz     :     0.004745
      dx2y2   :     0.001150
      dxy     :     0.002091
      f0      :     0.000038  f :     0.000526
      f+1     :     0.000010
      f-1     :     0.000097
      f+2     :     0.000091
      f-2     :     0.000034
      f+3     :     0.000168
      f-3     :     0.000088
  6 Aus       :    -0.085598  s :    -0.085598
      pz      :    -0.030585  p :    -0.031441
      px      :     0.005462
      py      :    -0.006317
      dz2     :    -0.003159  d :    -0.003467
      dxz     :    -0.002556
      dyz     :    -0.002957
      dx2y2   :    -0.001106
      dxy     :     0.006310
      f0      :     0.000013  f :     0.000331
      f+1     :     0.000052
      f-1     :    -0.000030
      f+2     :     0.000146
      f-2     :     0.000046
      f+3     :     0.000055
      f-3     :     0.000051
  7 Aus       :    -0.064713  s :    -0.064713
      pz      :    -0.004433  p :    -0.080140
      px      :    -0.074368
      py      :    -0.001340
      dz2     :     0.005139  d :     0.002511
      dxz     :    -0.000923
      dyz     :     0.007670
      dx2y2   :    -0.000164
      dxy     :    -0.009211
      f0      :     0.000316  f :     0.000479
      f+1     :     0.000071
      f-1     :     0.000173
      f+2     :     0.000009
      f-2     :    -0.000046
      f+3     :    -0.000021
      f-3     :    -0.000022
  8 Aus       :    -0.086323  s :    -0.086323
      pz      :    -0.024647  p :    -0.037359
      px      :    -0.001664
      py      :    -0.011047
      dz2     :    -0.000718  d :    -0.002647
      dxz     :    -0.006720
      dyz     :     0.000696
      dx2y2   :     0.003489
      dxy     :     0.000605
      f0      :     0.000033  f :     0.000304
      f+1     :    -0.000016
      f-1     :    -0.000001
      f+2     :     0.000103
      f-2     :     0.000099
      f+3     :     0.000050
      f-3     :     0.000036
  9 Aus       :    -0.099292  s :    -0.099292
      pz      :     0.004802  p :    -0.061284
      px      :    -0.052324
      py      :    -0.013762
      dz2     :     0.005375  d :    -0.003402
      dxz     :    -0.001240
      dyz     :     0.001510
      dx2y2   :     0.000240
      dxy     :    -0.009287
      f0      :     0.000041  f :     0.000463
      f+1     :    -0.000014
      f-1     :     0.000140
      f+2     :     0.000118
      f-2     :     0.000046
      f+3     :     0.000047
      f-3     :     0.000086
 10 Crs       :     0.024199  s :     0.024199
      pz      :     0.024370  p :     0.063107
      px      :     0.017821
      py      :     0.020916
      dz2     :     0.625453  d :     3.271125
      dxz     :     0.683748
      dyz     :     0.843760
      dx2y2   :     0.406392
      dxy     :     0.711772
      f0      :     0.000011  f :     0.000098
      f+1     :    -0.000001
      f-1     :    -0.000001
      f+2     :     0.000014
      f-2     :     0.000007
      f+3     :     0.000035
      f-3     :     0.000033


                      *****************************
                      * MAYER POPULATION ANALYSIS *
                      *****************************

  NA   - Mulliken gross atomic population
  ZA   - Total nuclear charge
  QA   - Mulliken gross atomic charge
  VA   - Mayer's total valence
  BVA  - Mayer's bonded valence
  FA   - Mayer's free valence

  ATOM       NA         ZA         QA         VA         BVA        FA
  0 Au    18.7156    19.0000     0.2844     1.4450     1.4053     0.0397
  1 Au    18.6958    19.0000     0.3042     1.2417     1.2350     0.0067
  2 Au    18.6102    19.0000     0.3898     1.3132     1.2264     0.0868
  3 Au    18.7813    19.0000     0.2187     1.6893     1.6829     0.0064
  4 Au    18.7675    19.0000     0.2325     1.8319     1.8076     0.0243
  5 Au    18.6358    19.0000     0.3642     1.3776     1.3339     0.0437
  6 Au    18.6944    19.0000     0.3056     1.4668     1.4347     0.0321
  7 Au    18.7835    19.0000     0.2165     1.4806     1.4696     0.0111
  8 Au    18.8722    19.0000     0.1278     1.8373     1.8111     0.0263
  9 Au    18.7964    19.0000     0.2036     1.4210     1.3913     0.0297
 10 Cr    26.6474    24.0000    -2.6474     9.3542     5.6858     3.6683

  Mayer bond orders larger than 0.100000
B(  0-Au,  2-Au) :   0.1622 B(  0-Au,  6-Au) :   0.2750 B(  0-Au,  9-Au) :   0.1828 
B(  0-Au, 10-Cr) :   0.6006 B(  1-Au,  3-Au) :   0.2524 B(  1-Au,  4-Au) :   0.2986 
B(  1-Au,  8-Au) :   0.3292 B(  1-Au, 10-Cr) :   0.3415 B(  2-Au,  3-Au) :   0.2598 
B(  2-Au, 10-Cr) :   0.6230 B(  3-Au,  4-Au) :   0.1173 B(  3-Au,  5-Au) :   0.3933 
B(  3-Au,  8-Au) :   0.1191 B(  3-Au, 10-Cr) :   0.4160 B(  4-Au,  8-Au) :   0.1075 
B(  4-Au,  9-Au) :   0.4457 B(  4-Au, 10-Cr) :   0.6003 B(  5-Au,  6-Au) :   0.1531 
B(  5-Au, 10-Cr) :   0.6415 B(  6-Au,  7-Au) :   0.1914 B(  6-Au, 10-Cr) :   0.6011 
B(  7-Au,  8-Au) :   0.5005 B(  7-Au, 10-Cr) :   0.6098 B(  8-Au, 10-Cr) :   0.6190 
B(  9-Au, 10-Cr) :   0.6330 

-------
TIMINGS
-------

Total SCF time: 0 days 0 hours 32 min 0 sec 

Total time                  ....    1920.713 sec
Sum of individual times     ....    1913.546 sec  ( 99.6%)

Fock matrix formation       ....    1748.502 sec  ( 91.0%)
  Split-RI-J                ....     122.307 sec  (  7.0% of F)
  Chain of spheres X        ....    1383.225 sec  ( 79.1% of F)
  XC integration            ....     196.120 sec  ( 11.2% of F)
    Basis function eval.    ....      23.929 sec  ( 12.2% of XC)
    Density eval.           ....      61.403 sec  ( 31.3% of XC)
    XC-Functional eval.     ....       4.489 sec  (  2.3% of XC)
    XC-Potential eval.      ....      48.246 sec  ( 24.6% of XC)
Diagonalization             ....      80.099 sec  (  4.2%)
Density matrix formation    ....       3.377 sec  (  0.2%)
Population analysis         ....       0.205 sec  (  0.0%)
Initial guess               ....       0.181 sec  (  0.0%)
Orbital Transformation      ....       0.000 sec  (  0.0%)
Orbital Orthonormalization  ....       0.119 sec  (  0.0%)
DIIS solution               ....      78.109 sec  (  4.1%)
Grid generation             ....       3.074 sec  (  0.2%)

Maximum memory used throughout the entire SCF-calculation: 110.4 MB


           ************************************************************
           *        Program running with 6 parallel MPI-processes     *
           *              working on a common directory               *
           ************************************************************

------------------------------------------------------------------------------
                                ORCA  MP2 
------------------------------------------------------------------------------

Freezing NCore=10 chemical core electrons

   <<< Use J-auxbasis for calculation of Separable RI-J derivative contributions (Dim=979) >>> 


-------------
RI-MP2 ENERGY
-------------
Dimension of the basis                    ...  445
Memory devoted to MP2                     ...  256 MB   
Data format for buffers                   ... DOUBLE
Compression type for matrix containers    ... UNCOMPRESSED
Overall scaling of the MP2 energy         ...   2.700e-01
Calculating two index integrals           ... done (    0.046 sec)
Cholesky decomposition of V**-1           ... done (    0.785 sec)

-----------------
RI-TRANSFORMATION (AUX index driven)
-----------------

Dimension of the orbital-basis         ... 445
Dimension of the aux-basis             ... 1692
Transformation of internal/external MOs...    5- 107 to  108- 444
Number Format for Storage              ... Double (8 Byte)
Integral mode                          ... Direct

First Phase: integral generation and transformation of MO indices
  Aux angular momentum 0               ... done (    0.150 sec)
  Aux angular momentum 1               ... done (    0.314 sec)
  Aux angular momentum 2               ... done (    0.422 sec)
  Aux angular momentum 3               ... done (    0.431 sec)
  Aux angular momentum 4               ... done (    0.334 sec)
  Aux angular momentum 5               ... done (    0.308 sec)
Closing buffer VIA ( 0.44 GB; CompressionRatio= 1.00)
  Phase 1 completed in     2.105 sec
Second Phase: sorting and transformation of aux index

IA-Transformation
Memory available                       ... 187 MB 
Max. # MO pairs treated in a batch     ... 18    
# of internal orbitals                 ... 103
# batches for internal orbitals        ... 1
Closing buffer IAV ( 0.44 GB; CompressionRatio= 1.00)
(ia|v) transformation done in     1.489 sec

  Phase 2 completed in     1.537 sec
RI-Integral transformation completed in     3.645 sec

-----------------
RI-TRANSFORMATION (AUX index driven)
-----------------

Dimension of the orbital-basis         ... 445
Dimension of the aux-basis             ... 1692
Transformation of internal/external MOs...    5- 105 to  106- 444
Number Format for Storage              ... Double (8 Byte)
Integral mode                          ... Direct

First Phase: integral generation and transformation of MO indices
  Aux angular momentum 0               ... done (    0.186 sec)
  Aux angular momentum 1               ... done (    0.321 sec)
  Aux angular momentum 2               ... done (    0.390 sec)
  Aux angular momentum 3               ... done (    0.411 sec)
  Aux angular momentum 4               ... done (    0.329 sec)
  Aux angular momentum 5               ... done (    0.304 sec)
Closing buffer VIA ( 0.43 GB; CompressionRatio= 1.00)
  Phase 1 completed in     2.097 sec
Second Phase: sorting and transformation of aux index

IA-Transformation
Memory available                       ... 187 MB 
Max. # MO pairs treated in a batch     ... 17    
# of internal orbitals                 ... 101
# batches for internal orbitals        ... 1
Closing buffer IAV ( 0.43 GB; CompressionRatio= 1.00)
(ia|v) transformation done in     1.430 sec

  Phase 2 completed in     1.476 sec
RI-Integral transformation completed in     3.576 sec
Opening buffers                              ... done

Starting loop over batches of integrals:

Operator 0  - window                       ... (  5-107)x(108-444)
Operator 0  - Memory available             ...   256 MB
Operator 0  - Memory needed per MO         ...   4.4 MB
Operator 0  - Number of orbitals per batch ... 18
Operator 0  - Number of batches            ... 1

OPERATOR  0   PASS   0:  MOs     5 ...   22 +   23 ...   40 +   41 ...   58 +   59 ...   76
                            +   77 ...   94 +   95 ...  107
  Reading integrals       ... ok
  Internal MO   7
  Internal MO  10
  Internal MO  13
  Internal MO  16
  Internal MO  19
  Internal MO  22

Operator 1  - window                       ... (  5-105)x(106-444)
Operator 1  - Memory available             ...   256 MB
Operator 1  - Memory needed per MO         ...   4.4 MB
Operator 1  - Number of orbitals per batch ... 17
Operator 1  - Number of batches            ... 1

OPERATOR  1   PASS   0:  MOs     5 ...   21 +   22 ...   38 +   39 ...   55 +   56 ...   72
                            +   73 ...   89 +   90 ...  105
  Reading integrals       ... ok
  Internal MO   7
  Internal MO  10
  Internal MO  13
  Internal MO  16
  Internal MO  19
Time spent in pair loops =    72.843 sec
Deleting buffer (Ka|jb)[aa] ...done
Deleting buffer (Ka|jb)[ba] ...done
Deleting buffer (Ka|jb)[ab] ...done
Deleting buffer (Ka|jb)[bb] ...done

Correlation energy components}
 E2 and T2 for alpha/alpha pairs :     -0.306629735 Eh      0.000000000
 E2 and T2 for beta/beta   pairs :     -0.294845048 Eh      0.000000000
 E2 and T2 for alpha/beta  pairs :     -1.027800599 Eh      0.000000000


-----------------------------------------------
 RI-MP2 CORRELATION ENERGY:     -1.629275383 Eh
-----------------------------------------------


-------
TIMINGS
-------

Total time                :   96.099 sec
Integral trafo            :    7.231 sec (  7.5%)
I/O of integrals          :    0.091 sec (  0.1%)
K(i,j) Operators          :   50.652 sec ( 52.7%)
T(i,j) pair energies      :    1.359 sec (  1.4%)
V-calculation             :    0.046 sec (  0.0%)
V**(-1/2)                 :    0.785 sec (  0.8%)
Gamma(ia|P)               :    0.000 sec (  0.0%)
Gamma-Trafo               :    0.000 sec (  0.0%)
D(virtual)                :    0.000 sec (  0.0%)
D(internal)               :    0.000 sec (  0.0%)
W(virtual)                :    0.000 sec (  0.0%)
W(internal)               :    0.000 sec (  0.0%)
L(virtual)                :    0.000 sec (  0.0%)
L(internal)               :    0.000 sec (  0.0%)
G(D)                      :    0.000 sec (  0.0%)
G(Z)                      :    0.000 sec (  0.0%)
Z-Vector Solution         :    0.000 sec (  0.0%)
3-Index Derivative        :    0.000 sec (  0.0%)
2-Index Derivative        :    0.000 sec (  0.0%)
Separable Gradient (RIJ)  :    0.000 sec (  0.0%)
Separable Gradient (COSX) :    0.000 sec (  0.0%)


---------------------------------------
MP2 TOTAL ENERGY:    -2400.089863863 Eh
---------------------------------------

Maximum memory used throughout the entire MP2-calculation: 194.8 MB

-------------------------   --------------------
FINAL SINGLE POINT ENERGY     -2400.089863863321
-------------------------   --------------------


                            ***************************************
                            *     ORCA property calculations      *
                            ***************************************


  WARNING: The energy has been calculated at the MP2 level but the densities
           used in the property calculations are still SCF densities
           MP2 response densities have not been calculated 
           use %mp2 Density relaxed end
           or  %mp2 Density unrelaxed end

                                    ---------------------
                                    Active property flags
                                    ---------------------
   (+) Dipole Moment


------------------------------------------------------------------------------
                       ORCA ELECTRIC PROPERTIES CALCULATION
------------------------------------------------------------------------------

Dipole Moment Calculation                       ... on
Quadrupole Moment Calculation                   ... off
Polarizability Calculation                      ... off
GBWName                                         ... b2plyp_job2.gbw
Electron density                                ... b2plyp_job2.scfp
The origin for moment calculation is the CENTER OF MASS  = (15.682508, 11.486399 14.261457)

-------------
DIPOLE MOMENT
-------------
                                X             Y             Z
Electronic contribution:     14.87941     -13.93418      -6.35422
Nuclear contribution   :    -14.59131      13.77011       6.28639
                        -----------------------------------------
Total Dipole Moment    :      0.28810      -0.16407      -0.06783
                        -----------------------------------------
Magnitude (a.u.)       :      0.33841
Magnitude (Debye)      :      0.86018



--------------------
Rotational spectrum 
--------------------
 
Rotational constants in cm-1:     0.002123     0.001589     0.001354 
Rotational constants in MHz :    63.635357    47.647443    40.604619 

 Dipole components along the rotational axes: 
x,y,z [a.u.] :     0.334642     0.000982    -0.050370 
x,y,z [Debye]:     0.850592     0.002497    -0.128030 

 

Timings for individual modules:

Sum of individual times         ...     2026.560 sec (=  33.776 min)
GTO integral calculation        ...        8.628 sec (=   0.144 min)   0.4 %
SCF iterations                  ...     1921.233 sec (=  32.021 min)  94.8 %
MP2 module                      ...       96.700 sec (=   1.612 min)   4.8 %



                             ****ORCA TERMINATED NORMALLY****
TOTAL RUN TIME: 0 days 0 hours 54 minutes 37 seconds 398 msec
