
                                 *****************
                                 * O   R   C   A *
                                 *****************

                                            #,                                       
                                            ###                                      
                                            ####                                     
                                            #####                                    
                                            ######                                   
                                           ########,                                 
                                     ,,################,,,,,                         
                               ,,#################################,,                 
                          ,,##########################################,,             
                       ,#########################################, ''#####,          
                    ,#############################################,,   '####,        
                  ,##################################################,,,,####,       
                ,###########''''           ''''###############################       
              ,#####''   ,,,,##########,,,,          '''####'''          '####       
            ,##' ,,,,###########################,,,                        '##       
           ' ,,###''''                  '''############,,,                           
         ,,##''                                '''############,,,,        ,,,,,,###''
      ,#''                                            '''#######################'''  
     '                                                          ''''####''''         
             ,#######,   #######,   ,#######,      ##                                
            ,#'     '#,  ##    ##  ,#'     '#,    #''#        ######   ,####,        
            ##       ##  ##   ,#'  ##            #'  '#       #        #'  '#        
            ##       ##  #######   ##           ,######,      #####,   #    #        
            '#,     ,#'  ##    ##  '#,     ,#' ,#      #,         ##   #,  ,#        
             '#######'   ##     ##  '#######'  #'      '#     #####' # '####'        



                  #######################################################
                  #                        -***-                        #
                  #          Department of theory and spectroscopy      #
                  #    Directorship and core code : Frank Neese         #
                  #        Max Planck Institute fuer Kohlenforschung    #
                  #                Kaiser Wilhelm Platz 1               #
                  #                 D-45470 Muelheim/Ruhr               #
                  #                      Germany                        #
                  #                                                     #
                  #                  All rights reserved                #
                  #                        -***-                        #
                  #######################################################


                         Program Version 5.0.3 -  RELEASE  -


 With contributions from (in alphabetic order):
   Daniel Aravena         : Magnetic Suceptibility
   Michael Atanasov       : Ab Initio Ligand Field Theory (pilot matlab implementation)
   Alexander A. Auer      : GIAO ZORA, VPT2 properties, NMR spectrum
   Ute Becker             : Parallelization
   Giovanni Bistoni       : ED, misc. LED, open-shell LED, HFLD
   Martin Brehm           : Molecular dynamics
   Dmytro Bykov           : SCF Hessian
   Vijay G. Chilkuri      : MRCI spin determinant printing, contributions to CSF-ICE
   Dipayan Datta          : RHF DLPNO-CCSD density
   Achintya Kumar Dutta   : EOM-CC, STEOM-CC
   Dmitry Ganyushin       : Spin-Orbit,Spin-Spin,Magnetic field MRCI
   Miquel Garcia          : C-PCM and meta-GGA Hessian, CC/C-PCM, Gaussian charge scheme
   Yang Guo               : DLPNO-NEVPT2, F12-NEVPT2, CIM, IAO-localization
   Andreas Hansen         : Spin unrestricted coupled pair/coupled cluster methods
   Benjamin Helmich-Paris : MC-RPA, TRAH-SCF, COSX integrals
   Lee Huntington         : MR-EOM, pCC
   Robert Izsak           : Overlap fitted RIJCOSX, COSX-SCS-MP3, EOM
   Marcus Kettner         : VPT2
   Christian Kollmar      : KDIIS, OOCD, Brueckner-CCSD(T), CCSD density, CASPT2, CASPT2-K
   Simone Kossmann        : Meta GGA functionals, TD-DFT gradient, OOMP2, MP2 Hessian
   Martin Krupicka        : Initial AUTO-CI
   Lucas Lang             : DCDCAS
   Marvin Lechner         : AUTO-CI (C++ implementation), FIC-MRCC
   Dagmar Lenk            : GEPOL surface, SMD
   Dimitrios Liakos       : Extrapolation schemes; Compound Job, initial MDCI parallelization
   Dimitrios Manganas     : Further ROCIS development; embedding schemes
   Dimitrios Pantazis     : SARC Basis sets
   Anastasios Papadopoulos: AUTO-CI, single reference methods and gradients
   Taras Petrenko         : DFT Hessian,TD-DFT gradient, ASA, ECA, R-Raman, ABS, FL, XAS/XES, NRVS
   Peter Pinski           : DLPNO-MP2, DLPNO-MP2 Gradient
   Christoph Reimann      : Effective Core Potentials
   Marius Retegan         : Local ZFS, SOC
   Christoph Riplinger    : Optimizer, TS searches, QM/MM, DLPNO-CCSD(T), (RO)-DLPNO pert. Triples
   Tobias Risthaus        : Range-separated hybrids, TD-DFT gradient, RPA, STAB
   Michael Roemelt        : Original ROCIS implementation
   Masaaki Saitow         : Open-shell DLPNO-CCSD energy and density
   Barbara Sandhoefer     : DKH picture change effects
   Avijit Sen             : IP-ROCIS
   Kantharuban Sivalingam : CASSCF convergence, NEVPT2, FIC-MRCI
   Bernardo de Souza      : ESD, SOC TD-DFT
   Georgi Stoychev        : AutoAux, RI-MP2 NMR, DLPNO-MP2 response
   Willem Van den Heuvel  : Paramagnetic NMR
   Boris Wezisla          : Elementary symmetry handling
   Frank Wennmohs         : Technical directorship


 We gratefully acknowledge several colleagues who have allowed us to
 interface, adapt or use parts of their codes:
   Stefan Grimme, W. Hujo, H. Kruse, P. Pracht,  : VdW corrections, initial TS optimization,
                  C. Bannwarth, S. Ehlert          DFT functionals, gCP, sTDA/sTD-DF
   Ed Valeev, F. Pavosevic, A. Kumar             : LibInt (2-el integral package), F12 methods
   Garnet Chan, S. Sharma, J. Yang, R. Olivares  : DMRG
   Ulf Ekstrom                                   : XCFun DFT Library
   Mihaly Kallay                                 : mrcc  (arbitrary order and MRCC methods)
   Jiri Pittner, Ondrej Demel                    : Mk-CCSD
   Frank Weinhold                                : gennbo (NPA and NBO analysis)
   Christopher J. Cramer and Donald G. Truhlar   : smd solvation model
   Lars Goerigk                                  : TD-DFT with DH, B97 family of functionals
   V. Asgeirsson, H. Jonsson                     : NEB implementation
   FAccTs GmbH                                   : IRC, NEB, NEB-TS, DLPNO-Multilevel, CI-OPT
                                                   MM, QMMM, 2- and 3-layer-ONIOM, Crystal-QMMM,
                                                   LR-CPCM, SF, NACMEs, symmetry and pop. for TD-DFT,
                                                   nearIR, NL-DFT gradient (VV10), updates on ESD,
                                                   ML-optimized integration grids
   S Lehtola, MJT Oliveira, MAL Marques          : LibXC Library
   Liviu Ungur et al                             : ANISO software


 Your calculation uses the libint2 library for the computation of 2-el integrals
 For citations please refer to: http://libint.valeyev.net

 Your ORCA version has been built with support for libXC version: 5.1.0
 For citations please refer to: https://tddft.org/programs/libxc/

 This ORCA versions uses:
   CBLAS   interface :  Fast vector & matrix operations
   LAPACKE interface :  Fast linear algebra routines
   SCALAPACK package :  Parallel linear algebra routines
   Shared memory     :  Shared parallel matrices
   BLAS/LAPACK       :  OpenBLAS 0.3.15  USE64BITINT DYNAMIC_ARCH NO_AFFINITY Haswell SINGLE_THREADED
        Core in use  :  Haswell
   Copyright (c) 2011-2014, The OpenBLAS Project




***************************************
The coordinates will be read from file: pbe.xyz
***************************************


================================================================================

cite the ECPs for Au [Def2-ECP] as follows:
Ce-Yb(ecp-28): M. Dolg, H. Stoll, H.Preuss, J. Chem. Phys., 1989, 90, 1730-1734.
Y-Cd(ecp-28), Hf-Hg(ecp-46): D. Andrae,U. Haeussermann, M. Dolg, H. Stoll, H. Preuss, Theor. Chim. Acta, 1990, 77, 123-141.
In-Sb(ecp-28), Tl-Bi(ecp-46): B. Metz, H. Stoll, M. Dolg, J. Chem. Phys., 2000, 113, 2563-2569.
Te-Xe(ecp-28), Po-Rn(ecp-46): K. A. Peterson, D. Figgen, E. Goll, H. Stoll, M. Dolg, J. Chem. Phys., 2003, 119, 11113-11123.
Rb(ecp-28), Cs(ecp-46): T. Leininger, A. Nicklass, W. Kuechle, H. Stoll, M. Dolg, A. Bergner, Chem. Phys. Lett., 1996, 255, 274-280.
Sr(ecp-28), Ba(ecp-46): M. Kaupp, P. V. Schleyer, H. Stoll and H. Preuss, J. Chem. Phys., 1991, 94, 1360-1366.
La(ecp-46): M. Dolg, H. Stoll, A. Savin, H. Preuss, Theor. Chim. Acta, 1989, 75, 173-194.
Lu(ecp-28): X. Cao, M. Dolg, J. Chem. Phys., 2001, 115, 7348-7355.

ECP parameters for Au [Def2-ECP] have been obtained from:
TURBOMOLE (7.0.2)

----- Orbital basis set information -----
Your calculation utilizes the basis: def2-TZVP
   F. Weigend and R. Ahlrichs, Phys. Chem. Chem. Phys. 7, 3297 (2005).

----- AuxJ basis set information -----
Your calculation utilizes the auxiliary basis: def2/J
   F. Weigend, Phys. Chem. Chem. Phys. 8, 1057 (2006).

================================================================================
                                        WARNINGS
                       Please study these warnings very carefully!
================================================================================

Using LibXC functional ID 497 : Re-regularized SCAN exchange by Furness et al
[ 1]  J. W. Furness, A. D. Kaplan, J. Ning, J. P. Perdew, and J. Sun, J. Phys. Chem. Lett. 11, 8208 (2020)
[ 2]  J. W. Furness, A. D. Kaplan, J. Ning, J. P. Perdew, and J. Sun, J. Phys. Chem. Lett. 11, 9248 (2020)
Using LibXC functional ID 498 : Re-regularized SCAN correlation by Furness et al
[ 1]  J. W. Furness, A. D. Kaplan, J. Ning, J. P. Perdew, and J. Sun, J. Phys. Chem. Lett. 11, 8208 (2020)
[ 2]  J. W. Furness, A. D. Kaplan, J. Ning, J. P. Perdew, and J. Sun, J. Phys. Chem. Lett. 11, 9248 (2020)
Using LibXC functional ID 497 : Re-regularized SCAN exchange by Furness et al
[ 1]  J. W. Furness, A. D. Kaplan, J. Ning, J. P. Perdew, and J. Sun, J. Phys. Chem. Lett. 11, 8208 (2020)
[ 2]  J. W. Furness, A. D. Kaplan, J. Ning, J. P. Perdew, and J. Sun, J. Phys. Chem. Lett. 11, 9248 (2020)
Using LibXC functional ID 498 : Re-regularized SCAN correlation by Furness et al
[ 1]  J. W. Furness, A. D. Kaplan, J. Ning, J. P. Perdew, and J. Sun, J. Phys. Chem. Lett. 11, 8208 (2020)
[ 2]  J. W. Furness, A. D. Kaplan, J. Ning, J. P. Perdew, and J. Sun, J. Phys. Chem. Lett. 11, 9248 (2020)

WARNING: your system is open-shell and RHF/RKS was chosen
  ===> : WILL SWITCH to UHF/UKS


INFO   : the flag for use of the SHARK integral package has been found!



***************************************
The coordinates will be read from file: pbe.xyz
***************************************


================================================================================

cite the ECPs for Au [Def2-ECP] as follows:
Ce-Yb(ecp-28): M. Dolg, H. Stoll, H.Preuss, J. Chem. Phys., 1989, 90, 1730-1734.
Y-Cd(ecp-28), Hf-Hg(ecp-46): D. Andrae,U. Haeussermann, M. Dolg, H. Stoll, H. Preuss, Theor. Chim. Acta, 1990, 77, 123-141.
In-Sb(ecp-28), Tl-Bi(ecp-46): B. Metz, H. Stoll, M. Dolg, J. Chem. Phys., 2000, 113, 2563-2569.
Te-Xe(ecp-28), Po-Rn(ecp-46): K. A. Peterson, D. Figgen, E. Goll, H. Stoll, M. Dolg, J. Chem. Phys., 2003, 119, 11113-11123.
Rb(ecp-28), Cs(ecp-46): T. Leininger, A. Nicklass, W. Kuechle, H. Stoll, M. Dolg, A. Bergner, Chem. Phys. Lett., 1996, 255, 274-280.
Sr(ecp-28), Ba(ecp-46): M. Kaupp, P. V. Schleyer, H. Stoll and H. Preuss, J. Chem. Phys., 1991, 94, 1360-1366.
La(ecp-46): M. Dolg, H. Stoll, A. Savin, H. Preuss, Theor. Chim. Acta, 1989, 75, 173-194.
Lu(ecp-28): X. Cao, M. Dolg, J. Chem. Phys., 2001, 115, 7348-7355.

ECP parameters for Au [Def2-ECP] have been obtained from:
TURBOMOLE (7.0.2)

----- Orbital basis set information -----
Your calculation utilizes the basis: def2-TZVP
   F. Weigend and R. Ahlrichs, Phys. Chem. Chem. Phys. 7, 3297 (2005).

----- AuxJ basis set information -----
Your calculation utilizes the auxiliary basis: def2/J
   F. Weigend, Phys. Chem. Chem. Phys. 8, 1057 (2006).

================================================================================
                                        WARNINGS
                       Please study these warnings very carefully!
================================================================================

Using LibXC functional ID 497 : Re-regularized SCAN exchange by Furness et al
[ 1]  J. W. Furness, A. D. Kaplan, J. Ning, J. P. Perdew, and J. Sun, J. Phys. Chem. Lett. 11, 8208 (2020)
[ 2]  J. W. Furness, A. D. Kaplan, J. Ning, J. P. Perdew, and J. Sun, J. Phys. Chem. Lett. 11, 9248 (2020)
Using LibXC functional ID 498 : Re-regularized SCAN correlation by Furness et al
[ 1]  J. W. Furness, A. D. Kaplan, J. Ning, J. P. Perdew, and J. Sun, J. Phys. Chem. Lett. 11, 8208 (2020)
[ 2]  J. W. Furness, A. D. Kaplan, J. Ning, J. P. Perdew, and J. Sun, J. Phys. Chem. Lett. 11, 9248 (2020)
Using LibXC functional ID 497 : Re-regularized SCAN exchange by Furness et al
[ 1]  J. W. Furness, A. D. Kaplan, J. Ning, J. P. Perdew, and J. Sun, J. Phys. Chem. Lett. 11, 8208 (2020)
[ 2]  J. W. Furness, A. D. Kaplan, J. Ning, J. P. Perdew, and J. Sun, J. Phys. Chem. Lett. 11, 9248 (2020)
Using LibXC functional ID 498 : Re-regularized SCAN correlation by Furness et al
[ 1]  J. W. Furness, A. D. Kaplan, J. Ning, J. P. Perdew, and J. Sun, J. Phys. Chem. Lett. 11, 8208 (2020)
[ 2]  J. W. Furness, A. D. Kaplan, J. Ning, J. P. Perdew, and J. Sun, J. Phys. Chem. Lett. 11, 9248 (2020)

INFO   : the flag for use of the SHARK integral package has been found!

================================================================================
                                       INPUT FILE
================================================================================
NAME = scan.inp
|  1> !R2SCAN def2-TZVP VERYSLOWCONV
|  2> !KDIIS
|  3> %scf
|  4>   AutoTRAHIter 200
|  5>   maxiter 400
|  6> end
|  7> 
|  8> %pal nprocs 6 end 
|  9> 
| 10> *xyzfile 0 5 pbe.xyz
| 11> 
| 12> $new_job
| 13> 
| 14> !R2SCAN def2-TZVP VERYSLOWCONV
| 15> !KDIIS
| 16> %scf
| 17>   AutoTRAHIter 200
| 18>   maxiter 400
| 19> end
| 20> 
| 21> 
| 22> %pal nprocs 6 end 
| 23> 
| 24> *xyzfile 0 3 pbe.xyz
| 25> 
| 26> 
| 27> 
| 28> 
| 29> 
| 30>                          ****END OF INPUT****
================================================================================


                 $$$$$$$$$$$$$$$$$$$$$$$$$$$$$$$$$$$$$$$$$$$$$$ 
                 $ THERE ARE  2 JOBS TO BE PROCESSED THIS RUN $
                 $$$$$$$$$$$$$$$$$$$$$$$$$$$$$$$$$$$$$$$$$$$$$$ 




                 $$$$$$$$$$$$$$$$  JOB NUMBER  1 $$$$$$$$$$$$$$


                       ****************************
                       * Single Point Calculation *
                       ****************************

---------------------------------
CARTESIAN COORDINATES (ANGSTROEM)
---------------------------------
  Au     5.833928    7.533483    6.396372
  Au    11.706410    4.768450    7.171446
  Au     7.569939    5.678485    5.220674
  Au     9.064966    4.049150    6.908227
  Au    10.114002    6.758393    6.225575
  Au     6.895252    4.161562    8.481402
  Au     5.544647    6.596798    8.979679
  Au     7.943040    6.715585   10.360621
  Au    10.034318    5.655405    9.147782
  Au     8.389132    8.764757    6.530337
  Cr     7.892093    6.462183    7.722071

----------------------------
CARTESIAN COORDINATES (A.U.)
----------------------------
  NO LB      ZA    FRAG     MASS         X           Y           Z
   0 Au   19.0000*   0   196.966   11.024526   14.236220   12.087392
   1 Au   19.0000*   0   196.966   22.121909    9.011065   13.552069
   2 Au   19.0000*   0   196.966   14.305112   10.730781    9.865643
   3 Au   19.0000*   0   196.966   17.130304    7.651784   13.054657
   4 Au   19.0000*   0   196.966   19.112694   12.771512   11.764633
   5 Au   19.0000*   0   196.966   13.030138    7.864213   16.027528
   6 Au   19.0000*   0   196.966   10.477865   12.466141   16.969134
   7 Au   19.0000*   0   196.966   15.010171   12.690616   19.578736
   8 Au   19.0000*   0   196.966   18.962112   10.687167   17.286803
   9 Au   19.0000*   0   196.966   15.853161   16.562991   12.340548
  10 Cr   24.0000    0    52.000   14.913893   12.211755   14.592599
* core charge reduced due to ECP

--------------------------------
INTERNAL COORDINATES (ANGSTROEM)
--------------------------------
 Au     0   0   0     0.000000000000     0.00000000     0.00000000
 Au     1   0   0     6.536986499189     0.00000000     0.00000000
 Au     1   2   0     2.799468171115    38.04112568     0.00000000
 Au     2   1   3     2.750255144569    40.22398880   303.43061438
 Au     2   1   3     2.718511798268    28.70598134    92.20501107
 Au     4   2   1     2.682382713556   135.21717534   286.98719997
 Au     1   2   3     2.763066141653    80.78191666   126.18342625
 Au     7   1   2     2.770090725546   111.15558237    34.24612067
 Au     8   7   1     2.639772520566   116.08162336   309.69698686
 Au     5   2   1     2.663372988007   152.99529018    61.10008194
 Cr     6   4   2     2.619757435413    63.83402718    66.27292713

---------------------------
INTERNAL COORDINATES (A.U.)
---------------------------
 Au     0   0   0     0.000000000000     0.00000000     0.00000000
 Au     1   0   0    12.353114224608     0.00000000     0.00000000
 Au     1   2   0     5.290228164037    38.04112568     0.00000000
 Au     2   1   3     5.197229021644    40.22398880   303.43061438
 Au     2   1   3     5.137242790561    28.70598134    92.20501107
 Au     4   2   1     5.068968714985   135.21717534   286.98719997
 Au     1   2   3     5.221438297635    80.78191666   126.18342625
 Au     7   1   2     5.234712837397   111.15558237    34.24612067
 Au     8   7   1     4.988447119721   116.08162336   309.69698686
 Au     5   2   1     5.033045539817   152.99529018    61.10008194
 Cr     6   4   2     4.950624090235    63.83402718    66.27292713

---------------------
BASIS SET INFORMATION
---------------------
There are 2 groups of distinct atoms

 Group   1 Type Au  : 8s7p6d1f contracted to 6s4p3d1f pattern {311111/4111/411/1}
 Group   2 Type Cr  : 17s11p7d1f contracted to 6s4p4d1f pattern {842111/6311/4111/1}

Atom   0Au   basis set group =>   1
Atom   1Au   basis set group =>   1
Atom   2Au   basis set group =>   1
Atom   3Au   basis set group =>   1
Atom   4Au   basis set group =>   1
Atom   5Au   basis set group =>   1
Atom   6Au   basis set group =>   1
Atom   7Au   basis set group =>   1
Atom   8Au   basis set group =>   1
Atom   9Au   basis set group =>   1
Atom  10Cr   basis set group =>   2
---------------------------------
AUXILIARY/J BASIS SET INFORMATION
---------------------------------
There are 2 groups of distinct atoms

 Group   1 Type Au  : 11s5p5d3f3g contracted to 8s5p5d2f3g pattern {41111111/11111/11111/21/111}
 Group   2 Type Cr  : 19s5p5d3f3g contracted to 8s5p5d2f3g pattern {121111111/11111/11111/21/111}

Atom   0Au   basis set group =>   1
Atom   1Au   basis set group =>   1
Atom   2Au   basis set group =>   1
Atom   3Au   basis set group =>   1
Atom   4Au   basis set group =>   1
Atom   5Au   basis set group =>   1
Atom   6Au   basis set group =>   1
Atom   7Au   basis set group =>   1
Atom   8Au   basis set group =>   1
Atom   9Au   basis set group =>   1
Atom  10Cr   basis set group =>   2
-------------------------
ECP PARAMETER INFORMATION
-------------------------

 Group 1, Type Au ECP Def2-ECP (replacing 60 core electrons, lmax=3)

Atom   0Au   ECP group =>   1
Atom   1Au   ECP group =>   1
Atom   2Au   ECP group =>   1
Atom   3Au   ECP group =>   1
Atom   4Au   ECP group =>   1
Atom   5Au   ECP group =>   1
Atom   6Au   ECP group =>   1
Atom   7Au   ECP group =>   1
Atom   8Au   ECP group =>   1
Atom   9Au   ECP group =>   1



           ************************************************************
           *        Program running with 6 parallel MPI-processes     *
           *              working on a common directory               *
           ************************************************************
------------------------------------------------------------------------------
                           ORCA GTO INTEGRAL CALCULATION
                           -- RI-GTO INTEGRALS CHOSEN --
------------------------------------------------------------------------------
------------------------------------------------------------------------------
                   ___                                                        
                  /   \      - P O W E R E D   B Y -                         
                 /     \                                                     
                 |  |  |   _    _      __       _____    __    __             
                 |  |  |  | |  | |    /  \     |  _  \  |  |  /  |          
                  \  \/   | |  | |   /    \    | | | |  |  | /  /          
                 / \  \   | |__| |  /  /\  \   | |_| |  |  |/  /          
                |  |  |   |  __  | /  /__\  \  |    /   |      \           
                |  |  |   | |  | | |   __   |  |    \   |  |\   \          
                \     /   | |  | | |  |  |  |  | |\  \  |  | \   \       
                 \___/    |_|  |_| |__|  |__|  |_| \__\ |__|  \__/        
                                                                              
                      - O R C A' S   B I G   F R I E N D -                    
                                      &                                       
                       - I N T E G R A L  F E E D E R -                       
                                                                              
 v1 FN, 2020, v2 2021                                                         
------------------------------------------------------------------------------


Reading SHARK input file scan.SHARKINP.tmp ... ok
----------------------
SHARK INTEGRAL PACKAGE
----------------------

Number of atoms                             ...     11
Number of basis functions                   ...    445
Number of shells                            ...    155
Maximum angular momentum                    ...      3
Integral batch strategy                     ... SHARK/LIBINT Hybrid
RI-J (if used) integral strategy            ... SPLIT-RIJ (Revised 2003 algorithm where possible)
Printlevel                                  ...      1
Contraction scheme used                     ... SEGMENTED contraction
Coulomb Range Separation                    ... NOT USED
Exchange Range Separation                   ... NOT USED
Finite Nucleus Model                        ... NOT USED
Auxiliary Coulomb fitting basis             ... AVAILABLE
   # of basis functions in Aux-J            ...    979
   # of shells in Aux-J                     ...    253
   Maximum angular momentum in Aux-J        ...      4
Auxiliary J/K fitting basis                 ... NOT available
Auxiliary Correlation fitting basis         ... NOT available
Auxiliary 'external' fitting basis          ... NOT available
Integral threshold                          ...     1.000000e-10
Primitive cut-off                           ...     1.000000e-11
Primitive pair pre-selection threshold      ...     1.000000e-11

Calculating pre-screening integrals         ... done (  0.1 sec) Dimension = 155
Organizing shell pair data                  ... done (  0.2 sec)
Shell pair information
Total number of shell pairs                 ...     12090
Shell pairs after pre-screening             ...     10035
Total number of primitive shell pairs       ...     33105
Primitive shell pairs kept                  ...     20331
          la=0 lb=0:   1563 shell pairs
          la=1 lb=0:   2277 shell pairs
          la=1 lb=1:    866 shell pairs
          la=2 lb=0:   1985 shell pairs
          la=2 lb=1:   1398 shell pairs
          la=2 lb=2:    575 shell pairs
          la=3 lb=0:    549 shell pairs
          la=3 lb=1:    412 shell pairs
          la=3 lb=2:    352 shell pairs
          la=3 lb=3:     58 shell pairs

Calculating one electron integrals          ... done (  0.0 sec)
Calculating ECP integrals                   ... done (  6.5 sec)
Calculating RI/J V-Matrix + Cholesky decomp.... done (  0.1 sec)
Calculating Nuclear repulsion               ... done (  0.0 sec) ENN=   3165.453832225093 Eh

SHARK setup successfully completed in   7.3 seconds

Maximum memory used throughout the entire GTOINT-calculation: 27.3 MB


           ************************************************************
           *        Program running with 6 parallel MPI-processes     *
           *              working on a common directory               *
           ************************************************************
-------------------------------------------------------------------------------
                                 ORCA SCF
-------------------------------------------------------------------------------

------------
SCF SETTINGS
------------
Hamiltonian:
 Density Functional     Method          .... DFT(GTOs)
  Functional kind                       .... Exchange
  Functional name                       .... Re-regularized SCAN exchange by Furness et al
  Functional family                     .... MGGA
  Functional refs                              
    [ 0] J. W. Furness, A. D. Kaplan, J. Ning, J. P. Perdew, and J. Sun, J. Phys. Chem. Lett. 11, 8208 (2020)
    [ 1] J. W. Furness, A. D. Kaplan, J. Ning, J. P. Perdew, and J. Sun, J. Phys. Chem. Lett. 11, 9248 (2020)
  Functional external parameters         .... 8
 Parameter  0 :         c1 parameter
 Parameter  1 :         c2 parameter
 Parameter  2 :          d parameter
 Parameter  3 :         k1 parameter
 Parameter  4 :       taur parameter
 Parameter  5 :     alphar parameter
 Parameter  6 :        eta parameter
 Parameter  7 :        dp2 parameter
  Functional kind                       .... Correlation
  Functional name                       .... Re-regularized SCAN correlation by Furness et al
  Functional family                     .... MGGA
  Functional refs                              
    [ 0] J. W. Furness, A. D. Kaplan, J. Ning, J. P. Perdew, and J. Sun, J. Phys. Chem. Lett. 11, 8208 (2020)
    [ 1] J. W. Furness, A. D. Kaplan, J. Ning, J. P. Perdew, and J. Sun, J. Phys. Chem. Lett. 11, 9248 (2020)
  Functional external parameters         .... 0
 Gradients option       PostSCFGGA      .... off
   Density functional embedding theory  .... OFF
   NL short-range parameter             .... 12.300000
 RI-approximation to the Coulomb term is turned on
   Number of AuxJ basis functions       .... 979


General Settings:
 Integral files         IntName         .... scan
 Hartree-Fock type      HFTyp           .... UHF
 Total Charge           Charge          ....    0
 Multiplicity           Mult            ....    5
 Number of Electrons    NEL             ....  214
 Basis Dimension        Dim             ....  445
 Nuclear Repulsion      ENuc            ....   3165.4538322251 Eh

Convergence Acceleration:
 DIIS                   CNVDIIS         .... off
 Trust-Rad. Augm. Hess. CNVTRAH         .... auto
   Auto Start mean grad. ratio tolernc. ....  1.125000
   Auto Start start iteration           ....   200
   Auto Start num. interpolation iter.  ....    10
   Max. Number of Micro iterations      ....    16
   Max. Number of Macro iterations      .... Maxiter - #DIIS iter
   Number of Davidson start vectors     ....     2
   Converg. threshold I  (grad. norm)   ....   5.000e-05
   Converg. threshold II (energy diff.) ....   1.000e-06
   Grad. Scal. Fac. for Micro threshold ....   0.100
   Minimum threshold for Micro iter.    ....   0.010
   NR start threshold (gradient norm)   ....   0.001
   Initial trust radius                 ....   0.400
   Minimum AH scaling param. (alpha)    ....   1.000
   Maximum AH scaling param. (alpha)    .... 1000.000
   Orbital update algorithm             .... Taylor
   White noise on init. David. guess    .... on
   Maximum white noise                  ....   0.010
   Quad. conv. algorithm                .... NR
 SOSCF                  CNVSOSCF        .... off
 Level Shifting         CNVShift        .... off
 Zerner damping         CNVZerner       .... off
 Static damping         CNVDamp         .... off
 Fernandez-Rico         CNVRico         .... off

SCF Procedure:
 Maximum # iterations   MaxIter         ....   400
 SCF integral mode      SCFMode         .... Direct
   Integral package                     .... SHARK and LIBINT hybrid scheme
 Reset frequency        DirectResetFreq ....    20
 Integral Threshold     Thresh          ....  1.000e-10 Eh
 Primitive CutOff       TCut            ....  1.000e-11 Eh

Convergence Tolerance:
 Convergence Check Mode ConvCheckMode   .... All-Criteria
 Convergence forced     ConvForced      .... 0
 Energy Change          TolE            ....  1.000e-06 Eh
 Max Density Change     TolMaxP         ....  1.000e-05
 RMS Density Change     TolRMSP         ....  1.000e-06


Diagonalization of the overlap matrix:
Smallest eigenvalue                        ... 2.294e-04
Time for diagonalization                   ...    0.041 sec
Threshold for overlap eigenvalues          ... 1.000e-08
Number of eigenvalues below threshold      ... 0
Time for construction of square roots      ...    0.039 sec
Total time needed                          ...    0.106 sec

Time for model grid setup =    0.512 sec

------------------------------
INITIAL GUESS: MODEL POTENTIAL
------------------------------
Loading Hartree-Fock densities                     ... done
  calling /media/Programs/ORCA501/orca scan_atom79.inp > scan_atom79.out in order to generate an atomic fitting density for atom 0 (Au with ECP) on-the-fly... 
    atom 0 (Au), assumed electronic state with S=2: 1s2 2s2 2p6 3s2 3p6 4s2 3d10 4p6 5s2 4d10 5p6 6s1 4f14 5d10           ... done
Calculating cut-offs                               ... done
Initializing the effective Hamiltonian             ... done
Setting up the integral package (SHARK)            ... done
Starting the Coulomb interaction                   ... done (   0.4 sec)
Reading the grid                                   ... done
Mapping shells                                     ... done
Starting the XC term evaluation                    ... done (   0.3 sec)
  promolecular density results
     # of electrons  =    814.011658503
     EX              =  -3705.427994520
     EC              =    -49.435120674
     EX+EC           =  -3754.863115193
Transforming the Hamiltonian                       ... done (   0.0 sec)
Diagonalizing the Hamiltonian                      ... done (   0.0 sec)
Back transforming the eigenvectors                 ... done (   0.0 sec)
Now organizing SCF variables                       ... done
                      ------------------
                      INITIAL GUESS DONE (   2.2 sec)
                      ------------------
-------------------
DFT GRID GENERATION
-------------------

General Integration Accuracy     IntAcc      ... 4.388
Radial Grid Type                 RadialGrid  ... OptM3 with GC (2021)
Angular Grid (max. ang.)         AngularGrid ... 4 (Lebedev-302)
Angular grid pruning method      GridPruning ... 4 (adaptive)
Weight generation scheme         WeightScheme... Becke
Basis function cutoff            BFCut       ... 1.0000e-10
Integration weight cutoff        WCut        ... 1.0000e-14
Angular grids for H and He will be reduced by one unit
Partially contracted basis set               ... off
Rotationally invariant grid construction     ... off

Total number of grid points                  ...   123318
Total number of batches                      ...     1932
Average number of points per batch           ...       63
Average number of grid points per atom       ...    11211
Time for grid setup =    1.594 sec

--------------
SCF ITERATIONS
--------------
ITER       Energy         Delta-E        Max-DP      RMS-DP      [F,P]   Gradient Norm
               ***  Starting incremental Fock matrix formation  ***
                             ****Resetting KDIIS****
                             ****Turning on KDIIS(Cayley)****
  0  -2401.5032603917   0.000000000000 0.34501074  0.00161443  0.2671766   0.210272001
  1  -2402.2063869392  -0.703126547509 0.28863650  0.00156829  0.2391699   0.167830199
  2  -2402.5562883079  -0.349901368643 0.18156135  0.00134056  0.1891670   0.127145818
  3  -2402.7526904639  -0.196402156045 0.30107927  0.00169384  0.1107185   0.073191824
  4  -2402.8441642575  -0.091473793635 0.11052362  0.00052976  0.0170106   0.009785810
  5  -2402.8531088275  -0.008944570004 0.06462388  0.00039159  0.0130170   0.007348443
  6  -2402.8601223799  -0.007013552378 0.02186913  0.00022550  0.0163487   0.004060970
  7  -2402.8635332289  -0.003410848993 0.04437577  0.00026261  0.0055875   0.004043026
  8  -2402.8655303409  -0.001997111935 0.04991379  0.00018242  0.0052253   0.004379246
  9  -2402.8670463777  -0.001516036839 0.01252526  0.00012973  0.0047994   0.001284954
 10  -2402.8678849266  -0.000838548863 0.00670743  0.00006013  0.0028527   0.001139835
 11  -2402.8680736560  -0.000188729490 0.01337327  0.00007480  0.0019891   0.000823278
 12  -2402.8683149300  -0.000241273979 0.00654019  0.00003304  0.0018621   0.000736683
 13  -2402.8683048648   0.000010065175 0.00980748  0.00004285  0.0011535   0.000771345
 14  -2402.8684163788  -0.000111513953 0.00955017  0.00003519  0.0013062   0.000497078
 15  -2402.8684237815  -0.000007402704 0.00398352  0.00001959  0.0019491   0.000615953
 16  -2402.8684428182  -0.000019036668 0.00162819  0.00001467  0.0007083   0.000330630
 17  -2402.8684595597  -0.000016741536 0.00084770  0.00001169  0.0008515   0.000235490
 18  -2402.8684755962  -0.000016036508 0.00149537  0.00001005  0.0006825   0.000174022
 19  -2402.8684885679  -0.000012971720 0.00228190  0.00000909  0.0009609   0.000200173
               *** Restarting incremental Fock matrix formation ***
                             ****Resetting KDIIS****
                          ***Energy convergence achieved***
 20  -2402.8684883845   0.000000183397 0.00036979  0.00000175  0.0004951   0.000164980
 21  -2402.8684912688  -0.000002884248 0.00051449  0.00000207  0.0005340   0.000119744
 22  -2402.8684937884  -0.000002519600 0.00068040  0.00000353  0.0004794   0.000100752
 23  -2402.8684992077  -0.000005419353 0.00192961  0.00002042  0.0005073   0.000077734
 24  -2402.8685208848  -0.000021677012 0.00203601  0.00001027  0.0001429   0.000137756
 25  -2402.8685316313  -0.000010746520 0.00137593  0.00000422  0.0000794   0.000028466
                          ***Energy convergence achieved***
 26  -2402.8685315943   0.000000037014 0.00014540  0.00000208  0.0000736   0.000048868
 27  -2402.8685325207  -0.000000926466 0.00015152  0.00000217  0.0000686   0.000014890
 28  -2402.8685329303  -0.000000409549 0.00026288  0.00000451  0.0000571   0.000023214
 29  -2402.8685342814  -0.000001351169 0.00021870  0.00000151  0.0000373   0.000014006
                          ***Energy convergence achieved***
 30  -2402.8685343678  -0.000000086402 0.00008842  0.00000102  0.0000341   0.000014376

            ***Energy convergence in two consecutive cycles with***
                    ***'reasonable' density convergence***
                       *** signaling convergence ***

                    *** KDIIS BlockDiag ( 2.160 sec) ***

               *****************************************************
               *                     SUCCESS                       *
               *           SCF CONVERGED AFTER  31 CYCLES          *
               *****************************************************


----------------
TOTAL SCF ENERGY
----------------

Total Energy       :        -2402.86853383 Eh          -65385.37693 eV

Components:
Nuclear Repulsion  :         3165.45383223 Eh           86136.37786 eV
Electronic Energy  :        -5568.32236605 Eh         -151521.75480 eV
One Electron Energy:       -10149.90725667 Eh         -276193.01784 eV
Two Electron Energy:         4581.58489061 Eh          124671.26304 eV

Virial components:
Potential Energy   :        -3904.57843912 Eh         -106248.98092 eV
Kinetic Energy     :         1501.70990529 Eh           40863.60399 eV
Virial Ratio       :            2.60008836


DFT components:
N(Alpha)           :      108.999998801340 electrons
N(Beta)            :      104.999999706183 electrons
N(Total)           :      213.999998507523 electrons
E(X)               :     -169.056369762110 Eh       
E(C)               :       -8.845443964513 Eh       
E(XC)              :     -177.901813726623 Eh       
DFET-embed. en.    :        0.000000000000 Eh       

---------------
SCF CONVERGENCE
---------------

  Last Energy change         ...    5.4026e-07  Tolerance :   1.0000e-06
  Last MAX-Density change    ...    7.3461e-05  Tolerance :   1.0000e-05
  Last RMS-Density change    ...    1.2655e-06  Tolerance :   1.0000e-06

             **** THE GBW FILE WAS UPDATED (scan.gbw) ****
             **** DENSITY scan.scfp WAS UPDATED ****
             **** ENERGY FILE WAS UPDATED (scan.en.tmp) ****
----------------------
UHF SPIN CONTAMINATION
----------------------

Warning: in a DFT calculation there is little theoretical justification to 
         calculate <S**2> as in Hartree-Fock theory. We will do it anyways
         but you should keep in mind that the values have only limited relevance

Expectation value of <S**2>     :     6.322125
Ideal value S*(S+1) for S=2.0   :     6.000000
Deviation                       :     0.322125

             **** THE GBW FILE WAS UPDATED (scan.gbw) ****
             **** DENSITY scan.scfp WAS UPDATED ****
----------------
ORBITAL ENERGIES
----------------
                 SPIN UP ORBITALS
  NO   OCC          E(Eh)            E(eV) 
   0   1.0000    -215.284316     -5858.1841 
   1   1.0000     -24.587877      -669.0702 
   2   1.0000     -20.855737      -567.5135 
   3   1.0000     -20.853248      -567.4457 
   4   1.0000     -20.852912      -567.4366 
   5   1.0000      -4.120575      -112.1265 
   6   1.0000      -4.118374      -112.0667 
   7   1.0000      -4.113399      -111.9313 
   8   1.0000      -4.113141      -111.9243 
   9   1.0000      -4.107751      -111.7776 
  10   1.0000      -4.107253      -111.7640 
  11   1.0000      -4.106937      -111.7554 
  12   1.0000      -4.106049      -111.7313 
  13   1.0000      -4.105842      -111.7257 
  14   1.0000      -4.104788      -111.6970 
  15   1.0000      -2.907700       -79.1225 
  16   1.0000      -2.310087       -62.8607 
  17   1.0000      -2.309534       -62.8456 
  18   1.0000      -2.307014       -62.7770 
  19   1.0000      -2.306027       -62.7502 
  20   1.0000      -2.304910       -62.7198 
  21   1.0000      -2.304413       -62.7063 
  22   1.0000      -2.301464       -62.6260 
  23   1.0000      -2.299675       -62.5773 
  24   1.0000      -2.299140       -62.5628 
  25   1.0000      -2.297821       -62.5269 
  26   1.0000      -2.297570       -62.5200 
  27   1.0000      -2.297123       -62.5079 
  28   1.0000      -2.297004       -62.5047 
  29   1.0000      -2.296252       -62.4842 
  30   1.0000      -2.295756       -62.4707 
  31   1.0000      -2.295197       -62.4555 
  32   1.0000      -2.295047       -62.4514 
  33   1.0000      -2.294889       -62.4471 
  34   1.0000      -2.293713       -62.4151 
  35   1.0000      -2.292981       -62.3952 
  36   1.0000      -2.292512       -62.3824 
  37   1.0000      -2.292106       -62.3714 
  38   1.0000      -2.291771       -62.3623 
  39   1.0000      -2.290727       -62.3338 
  40   1.0000      -2.290055       -62.3156 
  41   1.0000      -2.289188       -62.2920 
  42   1.0000      -2.287924       -62.2576 
  43   1.0000      -2.285790       -62.1995 
  44   1.0000      -2.285543       -62.1928 
  45   1.0000      -2.284160       -62.1551 
  46   1.0000      -1.856079       -50.5065 
  47   1.0000      -1.854996       -50.4770 
  48   1.0000      -1.852338       -50.4047 
  49   1.0000      -0.412952       -11.2370 
  50   1.0000      -0.384972       -10.4756 
  51   1.0000      -0.374296       -10.1851 
  52   1.0000      -0.371995       -10.1225 
  53   1.0000      -0.364263        -9.9121 
  54   1.0000      -0.359578        -9.7846 
  55   1.0000      -0.356496        -9.7008 
  56   1.0000      -0.352279        -9.5860 
  57   1.0000      -0.349247        -9.5035 
  58   1.0000      -0.347116        -9.4455 
  59   1.0000      -0.341788        -9.3005 
  60   1.0000      -0.339742        -9.2448 
  61   1.0000      -0.337918        -9.1952 
  62   1.0000      -0.336562        -9.1583 
  63   1.0000      -0.331397        -9.0178 
  64   1.0000      -0.329775        -8.9736 
  65   1.0000      -0.326127        -8.8744 
  66   1.0000      -0.324458        -8.8289 
  67   1.0000      -0.320692        -8.7265 
  68   1.0000      -0.316149        -8.6029 
  69   1.0000      -0.312849        -8.5131 
  70   1.0000      -0.311004        -8.4629 
  71   1.0000      -0.307103        -8.3567 
  72   1.0000      -0.306444        -8.3388 
  73   1.0000      -0.302340        -8.2271 
  74   1.0000      -0.296164        -8.0590 
  75   1.0000      -0.295578        -8.0431 
  76   1.0000      -0.292790        -7.9672 
  77   1.0000      -0.291079        -7.9207 
  78   1.0000      -0.288637        -7.8542 
  79   1.0000      -0.285411        -7.7664 
  80   1.0000      -0.283523        -7.7151 
  81   1.0000      -0.281689        -7.6652 
  82   1.0000      -0.278867        -7.5883 
  83   1.0000      -0.277854        -7.5608 
  84   1.0000      -0.275266        -7.4904 
  85   1.0000      -0.274549        -7.4708 
  86   1.0000      -0.274472        -7.4688 
  87   1.0000      -0.272166        -7.4060 
  88   1.0000      -0.270879        -7.3710 
  89   1.0000      -0.268733        -7.3126 
  90   1.0000      -0.267287        -7.2732 
  91   1.0000      -0.265187        -7.2161 
  92   1.0000      -0.262976        -7.1559 
  93   1.0000      -0.261733        -7.1221 
  94   1.0000      -0.258318        -7.0292 
  95   1.0000      -0.257270        -7.0007 
  96   1.0000      -0.254939        -6.9372 
  97   1.0000      -0.252736        -6.8773 
  98   1.0000      -0.251673        -6.8484 
  99   1.0000      -0.247627        -6.7383 
 100   1.0000      -0.245634        -6.6840 
 101   1.0000      -0.243491        -6.6257 
 102   1.0000      -0.228662        -6.2222 
 103   1.0000      -0.220162        -5.9909 
 104   1.0000      -0.216809        -5.8997 
 105   1.0000      -0.210689        -5.7331 
 106   1.0000      -0.207385        -5.6432 
 107   1.0000      -0.205585        -5.5943 
 108   1.0000      -0.186355        -5.0710 
 109   0.0000      -0.159505        -4.3404 
 110   0.0000      -0.151534        -4.1235 
 111   0.0000      -0.139377        -3.7926 
 112   0.0000      -0.127028        -3.4566 
 113   0.0000      -0.103487        -2.8160 
 114   0.0000      -0.093896        -2.5550 
 115   0.0000      -0.072158        -1.9635 
 116   0.0000      -0.048666        -1.3243 
 117   0.0000      -0.042778        -1.1641 
 118   0.0000      -0.038934        -1.0595 
 119   0.0000      -0.036580        -0.9954 
 120   0.0000      -0.030801        -0.8381 
 121   0.0000      -0.018694        -0.5087 
 122   0.0000       0.000425         0.0116 
 123   0.0000       0.004177         0.1137 
 124   0.0000       0.009757         0.2655 
 125   0.0000       0.034554         0.9403 
 126   0.0000       0.039424         1.0728 
 127   0.0000       0.047096         1.2815 
 128   0.0000       0.054078         1.4715 
 129   0.0000       0.060325         1.6415 
 130   0.0000       0.060856         1.6560 
 131   0.0000       0.064073         1.7435 
 132   0.0000       0.072998         1.9864 
 133   0.0000       0.077946         2.1210 
 134   0.0000       0.079575         2.1654 
 135   0.0000       0.083735         2.2785 
 136   0.0000       0.087260         2.3745 
 137   0.0000       0.095631         2.6023 
 138   0.0000       0.097581         2.6553 
 139   0.0000       0.106101         2.8872 
 140   0.0000       0.108984         2.9656 
 141   0.0000       0.115829         3.1519 
 142   0.0000       0.127174         3.4606 
 143   0.0000       0.132039         3.5930 
 144   0.0000       0.136993         3.7278 
 145   0.0000       0.149071         4.0564 
 146   0.0000       0.153043         4.1645 
 147   0.0000       0.156088         4.2474 
 148   0.0000       0.158358         4.3092 
 149   0.0000       0.158816         4.3216 
 150   0.0000       0.165061         4.4915 
 151   0.0000       0.173089         4.7100 
 152   0.0000       0.175450         4.7742 
 153   0.0000       0.187844         5.1115 
 154   0.0000       0.223660         6.0861 
 155   0.0000       0.226771         6.1707 
 156   0.0000       0.236365         6.4318 
 157   0.0000       0.236977         6.4485 
 158   0.0000       0.243394         6.6231 
 159   0.0000       0.266248         7.2450 
 160   0.0000       0.267625         7.2825 
 161   0.0000       0.275597         7.4994 
 162   0.0000       0.280858         7.6425 
 163   0.0000       0.283559         7.7160 
 164   0.0000       0.289106         7.8670 
 165   0.0000       0.293923         7.9980 
 166   0.0000       0.295245         8.0340 
 167   0.0000       0.296248         8.0613 
 168   0.0000       0.303972         8.2715 
 169   0.0000       0.305764         8.3203 
 170   0.0000       0.316462         8.6114 
 171   0.0000       0.321253         8.7417 
 172   0.0000       0.328158         8.9296 
 173   0.0000       0.331940         9.0325 
 174   0.0000       0.334682         9.1072 
 175   0.0000       0.341479         9.2921 
 176   0.0000       0.343305         9.3418 
 177   0.0000       0.348439         9.4815 
 178   0.0000       0.350759         9.5446 
 179   0.0000       0.363016         9.8782 
 180   0.0000       0.366678         9.9778 
 181   0.0000       0.369260        10.0481 
 182   0.0000       0.375918        10.2292 
 183   0.0000       0.380455        10.3527 
 184   0.0000       0.385834        10.4991 
 185   0.0000       0.391441        10.6517 
 186   0.0000       0.397795        10.8245 
 187   0.0000       0.400817        10.9068 
 188   0.0000       0.419126        11.4050 
 189   0.0000       0.423769        11.5313 
 190   0.0000       0.428941        11.6721 
 191   0.0000       0.430789        11.7224 
 192   0.0000       0.436105        11.8670 
 193   0.0000       0.437858        11.9147 
 194   0.0000       0.448784        12.2120 
 195   0.0000       0.449710        12.2372 
 196   0.0000       0.461357        12.5542 
 197   0.0000       0.469025        12.7628 
 198   0.0000       0.473015        12.8714 
 199   0.0000       0.480010        13.0617 
 200   0.0000       0.489378        13.3166 
 201   0.0000       0.495404        13.4806 
 202   0.0000       0.497034        13.5250 
 203   0.0000       0.504862        13.7380 
 204   0.0000       0.508726        13.8431 
 205   0.0000       0.516875        14.0649 
 206   0.0000       0.523605        14.2480 
 207   0.0000       0.529112        14.3979 
 208   0.0000       0.531559        14.4645 
 209   0.0000       0.539748        14.6873 
 210   0.0000       0.548777        14.9330 
 211   0.0000       0.556430        15.1412 
 212   0.0000       0.559100        15.2139 
 213   0.0000       0.566483        15.4148 
 214   0.0000       0.572395        15.5757 
 215   0.0000       0.577143        15.7049 
 216   0.0000       0.580448        15.7948 
 217   0.0000       0.595459        16.2033 
 218   0.0000       0.600087        16.3292 
 219   0.0000       0.654948        17.8220 
 220   0.0000       0.660693        17.9784 
 221   0.0000       0.693649        18.8752 
 222   0.0000       0.699606        19.0373 
 223   0.0000       0.725569        19.7437 
 224   0.0000       0.735588        20.0164 
 225   0.0000       0.739161        20.1136 
 226   0.0000       0.757987        20.6259 
 227   0.0000       0.771333        20.9890 
 228   0.0000       0.784261        21.3408 
 229   0.0000       0.791250        21.5310 
 230   0.0000       0.798610        21.7313 
 231   0.0000       0.812954        22.1216 
 232   0.0000       0.825797        22.4711 
 233   0.0000       0.839319        22.8390 
 234   0.0000       0.856195        23.2983 
 235   0.0000       0.862971        23.4826 
 236   0.0000       0.886020        24.1098 
 237   0.0000       0.892230        24.2788 
 238   0.0000       0.913531        24.8584 
 239   0.0000       0.928140        25.2560 
 240   0.0000       0.938440        25.5362 
 241   0.0000       0.946826        25.7644 
 242   0.0000       0.960057        26.1245 
 243   0.0000       0.976393        26.5690 
 244   0.0000       1.005260        27.3545 
 245   0.0000       1.060599        28.8604 
 246   0.0000       1.086075        29.5536 
 247   0.0000       1.109137        30.1812 
 248   0.0000       1.125458        30.6253 
 249   0.0000       1.262231        34.3470 
 250   0.0000       1.273411        34.6513 
 251   0.0000       1.283612        34.9289 
 252   0.0000       1.296701        35.2850 
 253   0.0000       1.332338        36.2547 
 254   0.0000       1.335763        36.3480 
 255   0.0000       1.343962        36.5711 
 256   0.0000       1.350103        36.7382 
 257   0.0000       1.372244        37.3407 
 258   0.0000       1.382840        37.6290 
 259   0.0000       1.398019        38.0420 
 260   0.0000       1.408510        38.3275 
 261   0.0000       1.420443        38.6522 
 262   0.0000       1.426382        38.8138 
 263   0.0000       1.428825        38.8803 
 264   0.0000       1.439478        39.1702 
 265   0.0000       1.443743        39.2862 
 266   0.0000       1.453166        39.5427 
 267   0.0000       1.459516        39.7155 
 268   0.0000       1.464710        39.8568 
 269   0.0000       1.468700        39.9654 
 270   0.0000       1.474669        40.1278 
 271   0.0000       1.479851        40.2688 
 272   0.0000       1.488258        40.4975 
 273   0.0000       1.489613        40.5344 
 274   0.0000       1.492538        40.6140 
 275   0.0000       1.498103        40.7654 
 276   0.0000       1.501120        40.8476 
 277   0.0000       1.506494        40.9938 
 278   0.0000       1.508960        41.0609 
 279   0.0000       1.510544        41.1040 
 280   0.0000       1.513707        41.1901 
 281   0.0000       1.519452        41.3464 
 282   0.0000       1.521210        41.3942 
 283   0.0000       1.524484        41.4833 
 284   0.0000       1.530315        41.6420 
 285   0.0000       1.531816        41.6828 
 286   0.0000       1.537268        41.8312 
 287   0.0000       1.538859        41.8745 
 288   0.0000       1.541754        41.9533 
 289   0.0000       1.543723        42.0068 
 290   0.0000       1.547559        42.1112 
 291   0.0000       1.548511        42.1371 
 292   0.0000       1.551019        42.2054 
 293   0.0000       1.557110        42.3711 
 294   0.0000       1.557819        42.3904 
 295   0.0000       1.559609        42.4391 
 296   0.0000       1.562549        42.5191 
 297   0.0000       1.563504        42.5451 
 298   0.0000       1.566622        42.6299 
 299   0.0000       1.568434        42.6793 
 300   0.0000       1.569017        42.6951 
 301   0.0000       1.570763        42.7426 
 302   0.0000       1.573946        42.8292 
 303   0.0000       1.577384        42.9228 
 304   0.0000       1.578486        42.9528 
 305   0.0000       1.581784        43.0425 
 306   0.0000       1.584037        43.1038 
 307   0.0000       1.585356        43.1397 
 308   0.0000       1.587279        43.1921 
 309   0.0000       1.588748        43.2320 
 310   0.0000       1.590987        43.2930 
 311   0.0000       1.592299        43.3287 
 312   0.0000       1.593826        43.3702 
 313   0.0000       1.597493        43.4700 
 314   0.0000       1.599221        43.5170 
 315   0.0000       1.600493        43.5516 
 316   0.0000       1.602290        43.6005 
 317   0.0000       1.604288        43.6549 
 318   0.0000       1.604548        43.6620 
 319   0.0000       1.609934        43.8085 
 320   0.0000       1.611403        43.8485 
 321   0.0000       1.613329        43.9009 
 322   0.0000       1.618448        44.0402 
 323   0.0000       1.620290        44.0903 
 324   0.0000       1.621297        44.1177 
 325   0.0000       1.624221        44.1973 
 326   0.0000       1.626255        44.2526 
 327   0.0000       1.628862        44.3236 
 328   0.0000       1.632103        44.4118 
 329   0.0000       1.633445        44.4483 
 330   0.0000       1.640897        44.6511 
 331   0.0000       1.644710        44.7548 
 332   0.0000       1.646243        44.7965 
 333   0.0000       1.649407        44.8826 
 334   0.0000       1.651865        44.9495 
 335   0.0000       1.656423        45.0736 
 336   0.0000       1.660189        45.1760 
 337   0.0000       1.662595        45.2415 
 338   0.0000       1.665816        45.3292 
 339   0.0000       1.669672        45.4341 
 340   0.0000       1.672594        45.5136 
 341   0.0000       1.677153        45.6377 
 342   0.0000       1.681131        45.7459 
 343   0.0000       1.687665        45.9237 
 344   0.0000       1.689349        45.9695 
 345   0.0000       1.691029        46.0152 
 346   0.0000       1.694648        46.1137 
 347   0.0000       1.703651        46.3587 
 348   0.0000       1.710664        46.5495 
 349   0.0000       1.721420        46.8422 
 350   0.0000       1.729059        47.0501 
 351   0.0000       1.744421        47.4681 
 352   0.0000       1.749937        47.6182 
 353   0.0000       1.760113        47.8951 
 354   0.0000       1.767190        48.0877 
 355   0.0000       1.772501        48.2322 
 356   0.0000       1.794898        48.8416 
 357   0.0000       1.802503        49.0486 
 358   0.0000       1.830889        49.8210 
 359   0.0000       1.847674        50.2778 
 360   0.0000       1.870771        50.9063 
 361   0.0000       1.890311        51.4380 
 362   0.0000       1.891622        51.4736 
 363   0.0000       1.903627        51.8003 
 364   0.0000       1.931785        52.5666 
 365   0.0000       1.940324        52.7989 
 366   0.0000       1.969139        53.5830 
 367   0.0000       1.988434        54.1080 
 368   0.0000       1.995225        54.2928 
 369   0.0000       2.030990        55.2660 
 370   0.0000       2.075701        56.4827 
 371   0.0000       2.166981        58.9665 
 372   0.0000       2.245389        61.1001 
 373   0.0000       2.293700        62.4148 
 374   0.0000       2.336849        63.5889 
 375   0.0000       2.364536        64.3423 
 376   0.0000       2.389230        65.0142 
 377   0.0000       2.415895        65.7399 
 378   0.0000       2.430370        66.1337 
 379   0.0000       2.478566        67.4452 
 380   0.0000       2.507353        68.2285 
 381   0.0000       2.539776        69.1108 
 382   0.0000       2.556703        69.5714 
 383   0.0000       2.571147        69.9645 
 384   0.0000       2.601727        70.7966 
 385   0.0000       2.638513        71.7976 
 386   0.0000       2.734917        74.4209 
 387   0.0000       2.889299        78.6218 
 388   0.0000       2.923640        79.5563 
 389   0.0000       2.931028        79.7573 
 390   0.0000       2.943961        80.1093 
 391   0.0000       2.946762        80.1855 
 392   0.0000       2.963349        80.6368 
 393   0.0000       2.996158        81.5296 
 394   0.0000       3.016448        82.0817 
 395   0.0000      23.775554       646.9657 
 396   0.0000      24.119630       656.3285 
 397   0.0000      24.203557       658.6123 
 398   0.0000      24.306146       661.4039 
 399   0.0000      24.434945       664.9087 
 400   0.0000      24.646822       670.6741 
 401   0.0000      24.960720       679.2157 
 402   0.0000      25.089764       682.7272 
 403   0.0000      25.281939       687.9565 
 404   0.0000      25.625548       697.3066 
 405   0.0000      25.721460       699.9165 
 406   0.0000      25.952449       706.2021 
 407   0.0000      26.071054       709.4294 
 408   0.0000      26.217755       713.4214 
 409   0.0000      26.416119       718.8192 
 410   0.0000      26.455285       719.8849 
 411   0.0000      26.570020       723.0070 
 412   0.0000      26.732795       727.4363 
 413   0.0000      26.844803       730.4842 
 414   0.0000      27.035846       735.6828 
 415   0.0000      27.143318       738.6072 
 416   0.0000      27.546723       749.5844 
 417   0.0000      27.662624       752.7383 
 418   0.0000      27.864373       758.2281 
 419   0.0000      28.201661       767.4062 
 420   0.0000      28.325836       770.7852 
 421   0.0000      28.489903       775.2497 
 422   0.0000      28.710699       781.2579 
 423   0.0000      28.962166       788.1006 
 424   0.0000      29.042693       790.2919 
 425   0.0000      44.386174      1207.8092 
 426   0.0000      44.445559      1209.4251 
 427   0.0000      44.484297      1210.4793 
 428   0.0000      44.508424      1211.1358 
 429   0.0000      44.560387      1212.5498 
 430   0.0000      44.565394      1212.6860 
 431   0.0000      44.614381      1214.0190 
 432   0.0000      44.620724      1214.1916 
 433   0.0000      44.640563      1214.7315 
 434   0.0000      44.676921      1215.7208 
 435   0.0000     205.256977      5585.3263 
 436   0.0000     205.279064      5585.9273 
 437   0.0000     205.296769      5586.4091 
 438   0.0000     205.306861      5586.6837 
 439   0.0000     205.326993      5587.2315 
 440   0.0000     205.330780      5587.3346 
 441   0.0000     205.347337      5587.7851 
 442   0.0000     205.351976      5587.9113 
 443   0.0000     205.360083      5588.1319 
 444   0.0000     205.371001      5588.4291 

                 SPIN DOWN ORBITALS
  NO   OCC          E(Eh)            E(eV) 
   0   1.0000    -215.283679     -5858.1667 
   1   1.0000     -24.526484      -667.3995 
   2   1.0000     -20.811470      -566.3089 
   3   1.0000     -20.804908      -566.1303 
   4   1.0000     -20.803651      -566.0961 
   5   1.0000      -4.119073      -112.0857 
   6   1.0000      -4.116540      -112.0167 
   7   1.0000      -4.111847      -111.8890 
   8   1.0000      -4.111406      -111.8770 
   9   1.0000      -4.106188      -111.7351 
  10   1.0000      -4.106122      -111.7333 
  11   1.0000      -4.105691      -111.7215 
  12   1.0000      -4.104431      -111.6872 
  13   1.0000      -4.104353      -111.6851 
  14   1.0000      -4.103735      -111.6683 
  15   1.0000      -2.746626       -74.7395 
  16   1.0000      -2.307857       -62.8000 
  17   1.0000      -2.306979       -62.7761 
  18   1.0000      -2.305038       -62.7233 
  19   1.0000      -2.303984       -62.6946 
  20   1.0000      -2.302925       -62.6658 
  21   1.0000      -2.302344       -62.6500 
  22   1.0000      -2.299336       -62.5681 
  23   1.0000      -2.297712       -62.5239 
  24   1.0000      -2.297485       -62.5178 
  25   1.0000      -2.296074       -62.4794 
  26   1.0000      -2.295843       -62.4731 
  27   1.0000      -2.295233       -62.4565 
  28   1.0000      -2.294833       -62.4456 
  29   1.0000      -2.294460       -62.4354 
  30   1.0000      -2.294157       -62.4272 
  31   1.0000      -2.293721       -62.4153 
  32   1.0000      -2.293564       -62.4110 
  33   1.0000      -2.293370       -62.4058 
  34   1.0000      -2.292064       -62.3702 
  35   1.0000      -2.291415       -62.3526 
  36   1.0000      -2.291096       -62.3439 
  37   1.0000      -2.290275       -62.3216 
  38   1.0000      -2.289950       -62.3127 
  39   1.0000      -2.288983       -62.2864 
  40   1.0000      -2.288394       -62.2704 
  41   1.0000      -2.287822       -62.2548 
  42   1.0000      -2.286943       -62.2309 
  43   1.0000      -2.284535       -62.1654 
  44   1.0000      -2.284295       -62.1588 
  45   1.0000      -2.283103       -62.1264 
  46   1.0000      -1.704729       -46.3880 
  47   1.0000      -1.689673       -45.9783 
  48   1.0000      -1.686616       -45.8952 
  49   1.0000      -0.405084       -11.0229 
  50   1.0000      -0.379531       -10.3276 
  51   1.0000      -0.369854       -10.0642 
  52   1.0000      -0.365377        -9.9424 
  53   1.0000      -0.359868        -9.7925 
  54   1.0000      -0.354706        -9.6521 
  55   1.0000      -0.350311        -9.5325 
  56   1.0000      -0.349271        -9.5042 
  57   1.0000      -0.343954        -9.3595 
  58   1.0000      -0.341874        -9.3029 
  59   1.0000      -0.338792        -9.2190 
  60   1.0000      -0.336327        -9.1519 
  61   1.0000      -0.334222        -9.0946 
  62   1.0000      -0.332479        -9.0472 
  63   1.0000      -0.328304        -8.9336 
  64   1.0000      -0.325198        -8.8491 
  65   1.0000      -0.323637        -8.8066 
  66   1.0000      -0.322303        -8.7703 
  67   1.0000      -0.317144        -8.6299 
  68   1.0000      -0.314101        -8.5471 
  69   1.0000      -0.308471        -8.3939 
  70   1.0000      -0.306249        -8.3335 
  71   1.0000      -0.304085        -8.2746 
  72   1.0000      -0.303287        -8.2529 
  73   1.0000      -0.295365        -8.0373 
  74   1.0000      -0.294057        -8.0017 
  75   1.0000      -0.293698        -7.9919 
  76   1.0000      -0.290964        -7.9175 
  77   1.0000      -0.289284        -7.8718 
  78   1.0000      -0.286334        -7.7915 
  79   1.0000      -0.283050        -7.7022 
  80   1.0000      -0.282100        -7.6763 
  81   1.0000      -0.280203        -7.6247 
  82   1.0000      -0.277855        -7.5608 
  83   1.0000      -0.276849        -7.5334 
  84   1.0000      -0.273743        -7.4489 
  85   1.0000      -0.273638        -7.4461 
  86   1.0000      -0.272938        -7.4270 
  87   1.0000      -0.271175        -7.3791 
  88   1.0000      -0.270546        -7.3619 
  89   1.0000      -0.267418        -7.2768 
  90   1.0000      -0.265490        -7.2244 
  91   1.0000      -0.263837        -7.1794 
  92   1.0000      -0.261191        -7.1074 
  93   1.0000      -0.260270        -7.0823 
  94   1.0000      -0.256256        -6.9731 
  95   1.0000      -0.255455        -6.9513 
  96   1.0000      -0.252632        -6.8745 
  97   1.0000      -0.250248        -6.8096 
  98   1.0000      -0.249599        -6.7919 
  99   1.0000      -0.245223        -6.6729 
 100   1.0000      -0.242810        -6.6072 
 101   1.0000      -0.242767        -6.6060 
 102   1.0000      -0.226192        -6.1550 
 103   1.0000      -0.204861        -5.5745 
 104   1.0000      -0.192169        -5.2292 
 105   0.0000      -0.179217        -4.8767 
 106   0.0000      -0.145717        -3.9652 
 107   0.0000      -0.131458        -3.5772 
 108   0.0000      -0.105500        -2.8708 
 109   0.0000      -0.097895        -2.6638 
 110   0.0000      -0.086349        -2.3497 
 111   0.0000      -0.085054        -2.3144 
 112   0.0000      -0.079906        -2.1744 
 113   0.0000      -0.074991        -2.0406 
 114   0.0000      -0.069316        -1.8862 
 115   0.0000      -0.046493        -1.2651 
 116   0.0000      -0.044114        -1.2004 
 117   0.0000      -0.039001        -1.0613 
 118   0.0000      -0.036875        -1.0034 
 119   0.0000      -0.029219        -0.7951 
 120   0.0000      -0.019296        -0.5251 
 121   0.0000      -0.011429        -0.3110 
 122   0.0000       0.002280         0.0620 
 123   0.0000       0.007891         0.2147 
 124   0.0000       0.017810         0.4846 
 125   0.0000       0.035000         0.9524 
 126   0.0000       0.043281         1.1777 
 127   0.0000       0.052549         1.4299 
 128   0.0000       0.058214         1.5841 
 129   0.0000       0.062500         1.7007 
 130   0.0000       0.063875         1.7381 
 131   0.0000       0.067949         1.8490 
 132   0.0000       0.074741         2.0338 
 133   0.0000       0.078728         2.1423 
 134   0.0000       0.081964         2.2304 
 135   0.0000       0.084915         2.3106 
 136   0.0000       0.088277         2.4021 
 137   0.0000       0.096427         2.6239 
 138   0.0000       0.099113         2.6970 
 139   0.0000       0.108555         2.9539 
 140   0.0000       0.111807         3.0424 
 141   0.0000       0.118339         3.2202 
 142   0.0000       0.130086         3.5398 
 143   0.0000       0.133803         3.6410 
 144   0.0000       0.141584         3.8527 
 145   0.0000       0.151961         4.1351 
 146   0.0000       0.155225         4.2239 
 147   0.0000       0.159182         4.3316 
 148   0.0000       0.164760         4.4833 
 149   0.0000       0.165549         4.5048 
 150   0.0000       0.170363         4.6358 
 151   0.0000       0.177712         4.8358 
 152   0.0000       0.179510         4.8847 
 153   0.0000       0.199525         5.4294 
 154   0.0000       0.227891         6.2012 
 155   0.0000       0.230069         6.2605 
 156   0.0000       0.240754         6.5513 
 157   0.0000       0.241159         6.5623 
 158   0.0000       0.248472         6.7613 
 159   0.0000       0.268422         7.3041 
 160   0.0000       0.272067         7.4033 
 161   0.0000       0.276554         7.5254 
 162   0.0000       0.282643         7.6911 
 163   0.0000       0.289126         7.8675 
 164   0.0000       0.294848         8.0232 
 165   0.0000       0.295291         8.0353 
 166   0.0000       0.296640         8.0720 
 167   0.0000       0.299141         8.1400 
 168   0.0000       0.305423         8.3110 
 169   0.0000       0.307225         8.3600 
 170   0.0000       0.318568         8.6687 
 171   0.0000       0.323516         8.8033 
 172   0.0000       0.329507         8.9663 
 173   0.0000       0.332636         9.0515 
 174   0.0000       0.336129         9.1465 
 175   0.0000       0.342886         9.3304 
 176   0.0000       0.343669         9.3517 
 177   0.0000       0.349498         9.5103 
 178   0.0000       0.352292         9.5864 
 179   0.0000       0.364128         9.9084 
 180   0.0000       0.369129        10.0445 
 181   0.0000       0.370918        10.0932 
 182   0.0000       0.379290        10.3210 
 183   0.0000       0.381659        10.3855 
 184   0.0000       0.387539        10.5455 
 185   0.0000       0.394695        10.7402 
 186   0.0000       0.401480        10.9248 
 187   0.0000       0.403348        10.9757 
 188   0.0000       0.420613        11.4455 
 189   0.0000       0.428028        11.6472 
 190   0.0000       0.431822        11.7505 
 191   0.0000       0.435467        11.8497 
 192   0.0000       0.438101        11.9213 
 193   0.0000       0.440140        11.9768 
 194   0.0000       0.452156        12.3038 
 195   0.0000       0.456508        12.4222 
 196   0.0000       0.466282        12.6882 
 197   0.0000       0.471958        12.8426 
 198   0.0000       0.475804        12.9473 
 199   0.0000       0.482311        13.1243 
 200   0.0000       0.494381        13.4528 
 201   0.0000       0.497454        13.5364 
 202   0.0000       0.502880        13.6841 
 203   0.0000       0.510417        13.8892 
 204   0.0000       0.513195        13.9647 
 205   0.0000       0.522563        14.2197 
 206   0.0000       0.528655        14.3854 
 207   0.0000       0.537792        14.6341 
 208   0.0000       0.539788        14.6884 
 209   0.0000       0.545756        14.8508 
 210   0.0000       0.552663        15.0387 
 211   0.0000       0.562204        15.2983 
 212   0.0000       0.562926        15.3180 
 213   0.0000       0.577037        15.7020 
 214   0.0000       0.579296        15.7634 
 215   0.0000       0.586426        15.9575 
 216   0.0000       0.588574        16.0159 
 217   0.0000       0.601250        16.3608 
 218   0.0000       0.604994        16.4627 
 219   0.0000       0.657665        17.8960 
 220   0.0000       0.664779        18.0895 
 221   0.0000       0.698934        19.0190 
 222   0.0000       0.705463        19.1966 
 223   0.0000       0.730521        19.8785 
 224   0.0000       0.740102        20.1392 
 225   0.0000       0.744581        20.2611 
 226   0.0000       0.764107        20.7924 
 227   0.0000       0.776317        21.1247 
 228   0.0000       0.790228        21.5032 
 229   0.0000       0.794971        21.6323 
 230   0.0000       0.804684        21.8966 
 231   0.0000       0.818010        22.2592 
 232   0.0000       0.830191        22.5906 
 233   0.0000       0.850164        23.1341 
 234   0.0000       0.861050        23.4304 
 235   0.0000       0.867372        23.6024 
 236   0.0000       0.888910        24.1885 
 237   0.0000       0.895180        24.3591 
 238   0.0000       0.917990        24.9798 
 239   0.0000       0.931877        25.3577 
 240   0.0000       0.943082        25.6626 
 241   0.0000       0.956679        26.0326 
 242   0.0000       0.967376        26.3236 
 243   0.0000       0.988388        26.8954 
 244   0.0000       1.012581        27.5537 
 245   0.0000       1.072530        29.1850 
 246   0.0000       1.098868        29.9017 
 247   0.0000       1.119664        30.4676 
 248   0.0000       1.132973        30.8298 
 249   0.0000       1.263661        34.3860 
 250   0.0000       1.274577        34.6830 
 251   0.0000       1.287181        35.0260 
 252   0.0000       1.298046        35.3216 
 253   0.0000       1.335352        36.3368 
 254   0.0000       1.337842        36.4045 
 255   0.0000       1.346045        36.6278 
 256   0.0000       1.367526        37.2123 
 257   0.0000       1.378209        37.5030 
 258   0.0000       1.387225        37.7483 
 259   0.0000       1.403447        38.1897 
 260   0.0000       1.412418        38.4339 
 261   0.0000       1.423891        38.7460 
 262   0.0000       1.430151        38.9164 
 263   0.0000       1.433740        39.0140 
 264   0.0000       1.444123        39.2966 
 265   0.0000       1.448801        39.4239 
 266   0.0000       1.459191        39.7066 
 267   0.0000       1.462210        39.7888 
 268   0.0000       1.468682        39.9649 
 269   0.0000       1.472649        40.0728 
 270   0.0000       1.480238        40.2793 
 271   0.0000       1.486084        40.4384 
 272   0.0000       1.491377        40.5824 
 273   0.0000       1.491990        40.5991 
 274   0.0000       1.496203        40.7137 
 275   0.0000       1.500673        40.8354 
 276   0.0000       1.504563        40.9413 
 277   0.0000       1.508713        41.0542 
 278   0.0000       1.512093        41.1462 
 279   0.0000       1.514271        41.2054 
 280   0.0000       1.517483        41.2928 
 281   0.0000       1.521813        41.4106 
 282   0.0000       1.523730        41.4628 
 283   0.0000       1.527361        41.5616 
 284   0.0000       1.532909        41.7126 
 285   0.0000       1.536145        41.8006 
 286   0.0000       1.540077        41.9076 
 287   0.0000       1.543383        41.9976 
 288   0.0000       1.544344        42.0237 
 289   0.0000       1.549087        42.1528 
 290   0.0000       1.549827        42.1729 
 291   0.0000       1.551585        42.2208 
 292   0.0000       1.553844        42.2823 
 293   0.0000       1.559563        42.4379 
 294   0.0000       1.560417        42.4611 
 295   0.0000       1.562319        42.5129 
 296   0.0000       1.564660        42.5766 
 297   0.0000       1.565542        42.6006 
 298   0.0000       1.568945        42.6932 
 299   0.0000       1.571024        42.7497 
 300   0.0000       1.572281        42.7839 
 301   0.0000       1.574879        42.8546 
 302   0.0000       1.576730        42.9050 
 303   0.0000       1.581074        43.0232 
 304   0.0000       1.581565        43.0366 
 305   0.0000       1.585675        43.1484 
 306   0.0000       1.587161        43.1888 
 307   0.0000       1.587963        43.2107 
 308   0.0000       1.589178        43.2437 
 309   0.0000       1.591007        43.2935 
 310   0.0000       1.592479        43.3336 
 311   0.0000       1.595403        43.4131 
 312   0.0000       1.596796        43.4510 
 313   0.0000       1.600625        43.5552 
 314   0.0000       1.601514        43.5794 
 315   0.0000       1.605753        43.6948 
 316   0.0000       1.606238        43.7080 
 317   0.0000       1.607498        43.7422 
 318   0.0000       1.607900        43.7532 
 319   0.0000       1.612028        43.8655 
 320   0.0000       1.614649        43.9368 
 321   0.0000       1.616776        43.9947 
 322   0.0000       1.621027        44.1104 
 323   0.0000       1.622635        44.1541 
 324   0.0000       1.624058        44.1929 
 325   0.0000       1.627244        44.2796 
 326   0.0000       1.631789        44.4032 
 327   0.0000       1.633075        44.4382 
 328   0.0000       1.635182        44.4956 
 329   0.0000       1.636134        44.5215 
 330   0.0000       1.643389        44.7189 
 331   0.0000       1.649061        44.8732 
 332   0.0000       1.650808        44.9208 
 333   0.0000       1.652441        44.9652 
 334   0.0000       1.657367        45.0993 
 335   0.0000       1.660983        45.1977 
 336   0.0000       1.665584        45.3228 
 337   0.0000       1.667185        45.3664 
 338   0.0000       1.670455        45.4554 
 339   0.0000       1.675516        45.5931 
 340   0.0000       1.681365        45.7523 
 341   0.0000       1.684982        45.8507 
 342   0.0000       1.686902        45.9029 
 343   0.0000       1.692850        46.0648 
 344   0.0000       1.693516        46.0829 
 345   0.0000       1.697842        46.2006 
 346   0.0000       1.699614        46.2489 
 347   0.0000       1.707851        46.4730 
 348   0.0000       1.721314        46.8393 
 349   0.0000       1.729601        47.0648 
 350   0.0000       1.737243        47.2728 
 351   0.0000       1.751128        47.6506 
 352   0.0000       1.754855        47.7520 
 353   0.0000       1.764600        48.0172 
 354   0.0000       1.772254        48.2255 
 355   0.0000       1.787118        48.6299 
 356   0.0000       1.803610        49.0787 
 357   0.0000       1.818705        49.4895 
 358   0.0000       1.847963        50.2856 
 359   0.0000       1.875759        51.0420 
 360   0.0000       1.882470        51.2246 
 361   0.0000       1.900720        51.7212 
 362   0.0000       1.909058        51.9481 
 363   0.0000       1.915644        52.1273 
 364   0.0000       1.943486        52.8850 
 365   0.0000       1.950206        53.0678 
 366   0.0000       1.988450        54.1085 
 367   0.0000       2.000377        54.4330 
 368   0.0000       2.014113        54.8068 
 369   0.0000       2.043486        55.6061 
 370   0.0000       2.130293        57.9682 
 371   0.0000       2.197647        59.8010 
 372   0.0000       2.285207        62.1836 
 373   0.0000       2.333178        63.4890 
 374   0.0000       2.357413        64.1485 
 375   0.0000       2.380739        64.7832 
 376   0.0000       2.419558        65.8395 
 377   0.0000       2.431406        66.1619 
 378   0.0000       2.441772        66.4440 
 379   0.0000       2.492098        67.8134 
 380   0.0000       2.540695        69.1358 
 381   0.0000       2.552196        69.4488 
 382   0.0000       2.569556        69.9212 
 383   0.0000       2.614620        71.1474 
 384   0.0000       2.671712        72.7010 
 385   0.0000       2.697882        73.4131 
 386   0.0000       2.798073        76.1394 
 387   0.0000       3.007109        81.8276 
 388   0.0000       3.065601        83.4193 
 389   0.0000       3.075251        83.6818 
 390   0.0000       3.090533        84.0977 
 391   0.0000       3.095661        84.2372 
 392   0.0000       3.106904        84.5432 
 393   0.0000       3.132027        85.2268 
 394   0.0000       3.136743        85.3551 
 395   0.0000      23.777976       647.0316 
 396   0.0000      24.122279       656.4006 
 397   0.0000      24.206131       658.6823 
 398   0.0000      24.308558       661.4695 
 399   0.0000      24.437521       664.9788 
 400   0.0000      24.649522       670.7476 
 401   0.0000      24.963354       679.2874 
 402   0.0000      25.092539       682.8027 
 403   0.0000      25.285268       688.0471 
 404   0.0000      25.629555       697.4157 
 405   0.0000      25.724920       700.0107 
 406   0.0000      25.955988       706.2983 
 407   0.0000      26.074068       709.5115 
 408   0.0000      26.220221       713.4885 
 409   0.0000      26.419355       718.9072 
 410   0.0000      26.458271       719.9661 
 411   0.0000      26.573067       723.0899 
 412   0.0000      26.735882       727.5203 
 413   0.0000      26.847881       730.5680 
 414   0.0000      27.037741       735.7343 
 415   0.0000      27.146395       738.6910 
 416   0.0000      27.551332       749.7099 
 417   0.0000      27.666023       752.8308 
 418   0.0000      27.867381       758.3100 
 419   0.0000      28.206483       767.5374 
 420   0.0000      28.330505       770.9122 
 421   0.0000      28.494175       775.3659 
 422   0.0000      28.715725       781.3946 
 423   0.0000      28.967663       788.2502 
 424   0.0000      29.048553       790.4513 
 425   0.0000      44.389462      1207.8987 
 426   0.0000      44.448580      1209.5074 
 427   0.0000      44.488049      1210.5814 
 428   0.0000      44.511941      1211.2315 
 429   0.0000      44.563765      1212.6417 
 430   0.0000      44.568279      1212.7645 
 431   0.0000      44.618216      1214.1234 
 432   0.0000      44.624618      1214.2976 
 433   0.0000      44.644534      1214.8395 
 434   0.0000      44.680642      1215.8221 
 435   0.0000     205.257448      5585.3391 
 436   0.0000     205.279532      5585.9401 
 437   0.0000     205.297289      5586.4232 
 438   0.0000     205.307364      5586.6974 
 439   0.0000     205.327393      5587.2424 
 440   0.0000     205.331284      5587.3483 
 441   0.0000     205.347892      5587.8002 
 442   0.0000     205.352538      5587.9266 
 443   0.0000     205.360590      5588.1457 
 444   0.0000     205.371537      5588.4436 

                    ********************************
                    * MULLIKEN POPULATION ANALYSIS *
                    ********************************

--------------------------------------------
MULLIKEN ATOMIC CHARGES AND SPIN POPULATIONS
--------------------------------------------
   0 Au:    0.291536    0.002048
   1 Au:    0.223277    0.198105
   2 Au:    0.384625    0.003605
   3 Au:    0.212782    0.031065
   4 Au:    0.260182   -0.017961
   5 Au:    0.357473   -0.013450
   6 Au:    0.299955    0.040122
   7 Au:    0.217785    0.059744
   8 Au:    0.162920   -0.031603
   9 Au:    0.206008    0.046200
  10 Cr:   -2.616541    3.682125
Sum of atomic charges         :   -0.0000000
Sum of atomic spin populations:    4.0000000

-----------------------------------------------------
MULLIKEN REDUCED ORBITAL CHARGES AND SPIN POPULATIONS
-----------------------------------------------------
CHARGE
  0 Aus       :     2.910860  s :     2.910860
      pz      :     2.030615  p :     6.085323
      px      :     2.027433
      py      :     2.027275
      dz2     :     1.945279  d :     9.708750
      dxz     :     1.928368
[...]
      f+1     :     0.000046
      f-1     :     0.000126
      f+2     :     0.000014
      f-2     :    -0.000008
      f+3     :    -0.000006
      f-3     :    -0.000006
  8 Aus       :    -0.121587  s :    -0.121587
      pz      :     0.003006  p :    -0.000645
      px      :     0.001114
      py      :    -0.004766
      dz2     :     0.001693  d :    -0.003440
      dxz     :    -0.011354
      dyz     :     0.002229
      dx2y2   :     0.001662
      dxy     :     0.002330
      f0      :     0.000034  f :     0.000236
      f+1     :     0.000003
      f-1     :     0.000003
      f+2     :     0.000070
      f-2     :     0.000076
      f+3     :     0.000035
      f-3     :     0.000017
  9 Aus       :    -0.094864  s :    -0.094864
      pz      :     0.001517  p :    -0.002559
      px      :    -0.005995
      py      :     0.001919
      dz2     :     0.005921  d :    -0.008772
      dxz     :    -0.001531
      dyz     :    -0.005424
      dx2y2   :     0.002983
      dxy     :    -0.010721
      f0      :     0.000024  f :     0.000349
      f+1     :     0.000001
      f-1     :     0.000097
      f+2     :     0.000063
      f-2     :     0.000043
      f+3     :     0.000053
      f-3     :     0.000068
 10 Crs       :    -0.017778  s :    -0.017778
      pz      :     0.037278  p :     0.103152
      px      :     0.032400
      py      :     0.033474
      dz2     :     0.559200  d :     3.144283
      dxz     :     0.533616
      dyz     :     0.771586
      dx2y2   :     0.544057
      dxy     :     0.735824
      f0      :     0.000023  f :     0.000136
      f+1     :     0.000021
      f-1     :     0.000019
      f+2     :     0.000022
      f-2     :     0.000016
      f+3     :     0.000017
      f-3     :     0.000017


                     *******************************
                     * LOEWDIN POPULATION ANALYSIS *
                     *******************************

-------------------------------------------
LOEWDIN ATOMIC CHARGES AND SPIN POPULATIONS
-------------------------------------------
   0 Au:    0.091544   -0.130222
   1 Au:    0.149807   -0.157571
   2 Au:    0.118512   -0.118860
   3 Au:    0.013484   -0.063137
   4 Au:    0.025283   -0.123300
   5 Au:    0.133591   -0.080091
   6 Au:    0.098478   -0.135369
   7 Au:    0.130698   -0.096923
   8 Au:    0.050435   -0.102736
   9 Au:    0.150933   -0.105609
  10 Cr:   -0.962765    3.113818

----------------------------------------------------
LOEWDIN REDUCED ORBITAL CHARGES AND SPIN POPULATIONS
----------------------------------------------------
CHARGE
  0 Aus       :     2.658037  s :     2.658037
      pz      :     2.136525  p :     6.364986
      px      :     2.124569
      py      :     2.103892
      dz2     :     1.992087  d :     9.880816
      dxz     :     1.955728
      dyz     :     1.979250
      dx2y2   :     1.981740
      dxy     :     1.972011
      f0      :     0.000808  f :     0.004616
      f+1     :     0.000625
      f-1     :     0.000708
      f+2     :     0.000423
      f-2     :     0.000630
      f+3     :     0.000597
      f-3     :     0.000825
  1 Aus       :     2.711410  s :     2.711410
      pz      :     2.086263  p :     6.245325
      px      :     2.091717
      py      :     2.067344
      dz2     :     1.977939  d :     9.888995
      dxz     :     1.981517
      dyz     :     1.977659
      dx2y2   :     1.984495
      dxy     :     1.967384
      f0      :     0.000503  f :     0.004464
      f+1     :     0.000724
      f-1     :     0.000387
      f+2     :     0.000551
      f-2     :     0.000741
      f+3     :     0.000838
      f-3     :     0.000720
  2 Aus       :     2.628452  s :     2.628452
      pz      :     2.082869  p :     6.371401
      px      :     2.142461
      py      :     2.146071
      dz2     :     1.943617  d :     9.877293
      dxz     :     1.982249
      dyz     :     1.976785
      dx2y2   :     1.986759
      dxy     :     1.987883
      f0      :     0.000703  f :     0.004341
      f+1     :     0.000558
      f-1     :     0.000635
      f+2     :     0.000450
      f-2     :     0.000971
      f+3     :     0.000509
      f-3     :     0.000516
  3 Aus       :     2.514690  s :     2.514690
      pz      :     2.173870  p :     6.552698
      px      :     2.263675
      py      :     2.115153
      dz2     :     1.988406  d :     9.912519
      dxz     :     1.979251
      dyz     :     1.995280
      dx2y2   :     1.966791
      dxy     :     1.982790
      f0      :     0.000749  f :     0.006609
      f+1     :     0.000960
      f-1     :     0.000654
      f+2     :     0.001094
      f-2     :     0.001040
      f+3     :     0.001187
      f-3     :     0.000925
  4 Aus       :     2.562626  s :     2.562626
      pz      :     2.111159  p :     6.535342
      px      :     2.177561
      py      :     2.246622
      dz2     :     1.979970  d :     9.870412
      dxz     :     1.949528
      dyz     :     1.993781
      dx2y2   :     1.966465
      dxy     :     1.980669
      f0      :     0.000773  f :     0.006337
      f+1     :     0.000621
      f-1     :     0.000696
      f+2     :     0.000567
      f-2     :     0.000948
      f+3     :     0.001507
      f-3     :     0.001226
  5 Aus       :     2.648640  s :     2.648640
      pz      :     2.102864  p :     6.347917
      px      :     2.123149
      py      :     2.121904
      dz2     :     1.984023  d :     9.865632
      dxz     :     1.979569
      dyz     :     1.970695
      dx2y2   :     1.963532
      dxy     :     1.967813
      f0      :     0.000505  f :     0.004220
      f+1     :     0.000527
      f-1     :     0.000438
      f+2     :     0.000727
      f-2     :     0.000554
      f+3     :     0.000866
      f-3     :     0.000604
  6 Aus       :     2.665625  s :     2.665625
      pz      :     2.156484  p :     6.367924
      px      :     2.106895
      py      :     2.104544
      dz2     :     1.989276  d :     9.863205
      dxz     :     1.944969
      dyz     :     1.987456
      dx2y2   :     1.960440
      dxy     :     1.981064
      f0      :     0.000861  f :     0.004769
      f+1     :     0.000718
      f-1     :     0.000624
      f+2     :     0.000756
      f-2     :     0.000515
      f+3     :     0.000838
      f-3     :     0.000457
  7 Aus       :     2.694577  s :     2.694577
      pz      :     2.067111  p :     6.326211
      px      :     2.192950
      py      :     2.066151
      dz2     :     1.928980  d :     9.843976
      dxz     :     1.980008
      dyz     :     1.977641
      dx2y2   :     1.981130
      dxy     :     1.976217
      f0      :     0.000740  f :     0.004538
      f+1     :     0.000833
      f-1     :     0.000406
      f+2     :     0.000761
      f-2     :     0.000652
      f+3     :     0.000584
      f-3     :     0.000562
  8 Aus       :     2.605829  s :     2.605829
      pz      :     2.190120  p :     6.479679
      px      :     2.174592
      py      :     2.114967
      dz2     :     1.993123  d :     9.858072
      dxz     :     1.930822
      dyz     :     1.971687
      dx2y2   :     1.974329
      dxy     :     1.988111
      f0      :     0.000726  f :     0.005985
      f+1     :     0.001068
      f-1     :     0.000667
      f+2     :     0.000952
      f-2     :     0.001199
      f+3     :     0.000534
      f-3     :     0.000839
  9 Aus       :     2.716220  s :     2.716220
      pz      :     2.045751  p :     6.289160
      px      :     2.157276
      py      :     2.086132
      dz2     :     1.978481  d :     9.839665
      dxz     :     1.979921
      dyz     :     1.955325
      dx2y2   :     1.966820
      dxy     :     1.959119
      f0      :     0.000370  f :     0.004022
      f+1     :     0.000430
      f-1     :     0.000504
      f+2     :     0.000328
      f-2     :     0.000526
      f+3     :     0.000922
      f-3     :     0.000942
 10 Crs       :     6.296583  s :     6.296583
      pz      :     4.234183  p :    12.654552
      px      :     4.215538
      py      :     4.204830
      dz2     :     1.246108  d :     6.009400
      dxz     :     1.312971
      dyz     :     1.214870
      dx2y2   :     1.095790
      dxy     :     1.139661
      f0      :     0.000484  f :     0.002231
      f+1     :     0.000242
      f-1     :     0.000278
      f+2     :     0.000389
      f-2     :     0.000268
      f+3     :     0.000315
      f-3     :     0.000256

SPIN
  0 Aus       :    -0.106339  s :    -0.106339
      pz      :    -0.013331  p :    -0.030571
      px      :    -0.007940
      py      :    -0.009300
      dz2     :     0.000241  d :     0.006214
      dxz     :     0.004538
      dyz     :    -0.001264
      dx2y2   :     0.005020
      dxy     :    -0.002321
      f0      :     0.000050  f :     0.000474
      f+1     :     0.000051
      f-1     :     0.000009
      f+2     :     0.000093
      f-2     :     0.000122
      f+3     :     0.000056
      f-3     :     0.000092
  1 Aus       :    -0.079670  s :    -0.079670
      pz      :    -0.033609  p :    -0.047380
      px      :    -0.007834
      py      :    -0.005936
      dz2     :    -0.004088  d :    -0.030416
      dxz     :    -0.013928
      dyz     :    -0.007695
      dx2y2   :    -0.002128
      dxy     :    -0.002578
      f0      :    -0.000014  f :    -0.000105
      f+1     :    -0.000013
      f-1     :    -0.000011
      f+2     :    -0.000009
      f-2     :    -0.000052
      f+3     :    -0.000006
      f-3     :    -0.000000
  2 Aus       :    -0.087763  s :    -0.087763
      pz      :    -0.008760  p :    -0.036441
      px      :    -0.021798
      py      :    -0.005884
      dz2     :     0.006186  d :     0.004800
      dxz     :     0.008275
      dyz     :     0.002422
      dx2y2   :    -0.002035
      dxy     :    -0.010047
      f0      :     0.000250  f :     0.000544
      f+1     :     0.000102
      f-1     :     0.000156
      f+2     :     0.000031
      f-2     :     0.000025
      f+3     :    -0.000020
      f-3     :    -0.000000
  3 Aus       :    -0.007093  s :    -0.007093
      pz      :    -0.033312  p :    -0.056612
      px      :    -0.017017
      py      :    -0.006282
      dz2     :    -0.001420  d :     0.000262
      dxz     :    -0.003263
      dyz     :     0.001421
      dx2y2   :    -0.002946
      dxy     :     0.006470
      f0      :     0.000021  f :     0.000306
      f+1     :     0.000003
      f-1     :     0.000042
      f+2     :     0.000045
      f-2     :     0.000055
      f+3     :     0.000138
      f-3     :     0.000002
  4 Aus       :    -0.065445  s :    -0.065445
      pz      :    -0.010242  p :    -0.041989
      px      :    -0.014507
      py      :    -0.017240
      dz2     :     0.003288  d :    -0.016285
      dxz     :    -0.002205
      dyz     :    -0.001708
      dx2y2   :     0.001985
      dxy     :    -0.017645
      f0      :     0.000049  f :     0.000419
      f+1     :     0.000093
      f-1     :    -0.000010
      f+2     :     0.000150
      f-2     :     0.000040
      f+3     :     0.000079
      f-3     :     0.000018
  5 Aus       :    -0.065823  s :    -0.065823
      pz      :    -0.001592  p :    -0.029597
      px      :    -0.012781
      py      :    -0.015223
      dz2     :    -0.002454  d :     0.014731
      dxz     :     0.004458
      dyz     :     0.007173
      dx2y2   :     0.001017
      dxy     :     0.004537
      f0      :     0.000047  f :     0.000598
      f+1     :     0.000013
      f-1     :     0.000108
      f+2     :     0.000108
      f-2     :     0.000038
      f+3     :     0.000171
      f-3     :     0.000112
  6 Aus       :    -0.101536  s :    -0.101536
      pz      :    -0.026450  p :    -0.035226
      px      :    -0.005418
      py      :    -0.003357
      dz2     :    -0.001188  d :     0.000926
      dxz     :    -0.001462
      dyz     :    -0.002303
      dx2y2   :    -0.003597
      dxy     :     0.009475
      f0      :     0.000051  f :     0.000467
      f+1     :     0.000056
      f-1     :    -0.000022
      f+2     :     0.000181
      f-2     :     0.000061
      f+3     :     0.000079
      f-3     :     0.000061
  7 Aus       :    -0.052019  s :    -0.052019
      pz      :    -0.003559  p :    -0.049973
      px      :    -0.045962
      py      :    -0.000452
      dz2     :     0.001811  d :     0.004520
      dxz     :    -0.001046
      dyz     :     0.012698
      dx2y2   :     0.000951
      dxy     :    -0.009894
      f0      :     0.000287  f :     0.000550
      f+1     :     0.000082
      f-1     :     0.000220
      f+2     :     0.000021
      f-2     :    -0.000023
      f+3     :    -0.000016
      f-3     :    -0.000020
  8 Aus       :    -0.068610  s :    -0.068610
      pz      :    -0.014957  p :    -0.033800
      px      :    -0.012616
      py      :    -0.006227
      dz2     :     0.001039  d :    -0.000735
      dxz     :    -0.011113
      dyz     :     0.003453
      dx2y2   :     0.003039
      dxy     :     0.002846
      f0      :     0.000062  f :     0.000409
      f+1     :    -0.000006
      f-1     :     0.000002
      f+2     :     0.000127
      f-2     :     0.000127
      f+3     :     0.000061
      f-3     :     0.000037
  9 Aus       :    -0.064387  s :    -0.064387
      pz      :     0.003933  p :    -0.038683
      px      :    -0.033374
      py      :    -0.009243
      dz2     :     0.009044  d :    -0.003106
      dxz     :    -0.001175
      dyz     :    -0.001737
      dx2y2   :     0.003097
      dxy     :    -0.012334
      f0      :     0.000040  f :     0.000567
      f+1     :    -0.000006
      f-1     :     0.000174
      f+2     :     0.000103
      f-2     :     0.000060
      f+3     :     0.000087
      f-3     :     0.000109
 10 Crs       :     0.023112  s :     0.023112
      pz      :     0.016637  p :     0.046199
      px      :     0.012934
      py      :     0.016628
      dz2     :     0.528860  d :     3.044432
      dxz     :     0.538640
      dyz     :     0.749230
      dx2y2   :     0.515489
      dxy     :     0.712213
      f0      :     0.000011  f :     0.000075
      f+1     :     0.000014
      f-1     :     0.000010
      f+2     :     0.000013
      f-2     :     0.000008
      f+3     :     0.000008
      f-3     :     0.000011


                      *****************************
                      * MAYER POPULATION ANALYSIS *
                      *****************************

  NA   - Mulliken gross atomic population
  ZA   - Total nuclear charge
  QA   - Mulliken gross atomic charge
  VA   - Mayer's total valence
  BVA  - Mayer's bonded valence
  FA   - Mayer's free valence

  ATOM       NA         ZA         QA         VA         BVA        FA
  0 Au    18.6993    19.0000     0.3007     1.5625     1.5246     0.0378
  1 Au    18.6758    19.0000     0.3242     1.3935     1.3707     0.0228
  2 Au    18.6311    19.0000     0.3689     1.5370     1.5070     0.0300
  3 Au    18.7675    19.0000     0.2325     1.7904     1.7881     0.0023
  4 Au    18.7740    19.0000     0.2260     1.9736     1.9553     0.0182
  5 Au    18.6551    19.0000     0.3449     1.5687     1.5501     0.0186
  6 Au    18.6707    19.0000     0.3293     1.5942     1.5588     0.0354
  7 Au    18.7899    19.0000     0.2101     1.6447     1.6359     0.0088
  8 Au    18.8761    19.0000     0.1239     1.9458     1.9271     0.0187
  9 Au    18.8050    19.0000     0.1950     1.5662     1.5525     0.0137
 10 Cr    26.6556    24.0000    -2.6556     9.2100     6.4636     2.7464

  Mayer bond orders larger than 0.100000
B(  0-Au,  2-Au) :   0.1957 B(  0-Au,  6-Au) :   0.2676 B(  0-Au,  9-Au) :   0.1873 
B(  0-Au, 10-Cr) :   0.6769 B(  1-Au,  3-Au) :   0.2916 B(  1-Au,  4-Au) :   0.3367 
B(  1-Au,  8-Au) :   0.3481 B(  1-Au, 10-Cr) :   0.2656 B(  2-Au,  3-Au) :   0.2992 
B(  2-Au, 10-Cr) :   0.8240 B(  3-Au,  4-Au) :   0.1179 B(  3-Au,  5-Au) :   0.4091 
B(  3-Au,  8-Au) :   0.1250 B(  3-Au, 10-Cr) :   0.3765 B(  4-Au,  8-Au) :   0.1035 
B(  4-Au,  9-Au) :   0.4747 B(  4-Au, 10-Cr) :   0.6770 B(  5-Au,  6-Au) :   0.1821 
B(  5-Au, 10-Cr) :   0.8358 B(  6-Au,  7-Au) :   0.2081 B(  6-Au, 10-Cr) :   0.6605 
B(  7-Au,  8-Au) :   0.5208 B(  7-Au, 10-Cr) :   0.7197 B(  8-Au, 10-Cr) :   0.6911 
B(  9-Au, 10-Cr) :   0.7366 

-------
TIMINGS
-------

Total SCF time: 0 days 0 hours 2 min 5 sec 

Total time                  ....     125.767 sec
Sum of individual times     ....     122.225 sec  ( 97.2%)

Fock matrix formation       ....     103.117 sec  ( 82.0%)
  Split-RI-J                ....      20.165 sec  ( 19.6% of F)
  XC integration            ....      75.898 sec  ( 73.6% of F)
    Basis function eval.    ....       3.895 sec  (  5.1% of XC)
    Density eval.           ....      23.543 sec  ( 31.0% of XC)
    XC-Functional eval.     ....       3.087 sec  (  4.1% of XC)
    XC-Potential eval.      ....      28.856 sec  ( 38.0% of XC)
Diagonalization             ....      15.916 sec  ( 12.7%)
Density matrix formation    ....       0.610 sec  (  0.5%)
Population analysis         ....       0.758 sec  (  0.6%)
Initial guess               ....       0.177 sec  (  0.1%)
Orbital Transformation      ....       0.000 sec  (  0.0%)
Orbital Orthonormalization  ....       0.124 sec  (  0.1%)
DIIS solution               ....       0.000 sec  (  0.0%)
Grid generation             ....       1.647 sec  (  1.3%)

Maximum memory used throughout the entire SCF-calculation: 64.1 MB

-------------------------   --------------------
FINAL SINGLE POINT ENERGY     -2402.866095967314
-------------------------   --------------------


                            ***************************************
                            *     ORCA property calculations      *
                            ***************************************

                                    ---------------------
                                    Active property flags
                                    ---------------------
   (+) Dipole Moment


------------------------------------------------------------------------------
                       ORCA ELECTRIC PROPERTIES CALCULATION
------------------------------------------------------------------------------

Dipole Moment Calculation                       ... on
Quadrupole Moment Calculation                   ... off
Polarizability Calculation                      ... off
GBWName                                         ... scan_job2.gbw
Electron density                                ... scan_job2.scfp
The origin for moment calculation is the CENTER OF MASS  = (15.682508, 11.486399 14.261457)

-------------
DIPOLE MOMENT
-------------
                                X             Y             Z
Electronic contribution:     14.82755     -13.93072      -6.33387
Nuclear contribution   :    -14.59131      13.77011       6.28639
                        -----------------------------------------
Total Dipole Moment    :      0.23624      -0.16061      -0.04748
                        -----------------------------------------
Magnitude (a.u.)       :      0.28958
Magnitude (Debye)      :      0.73607



--------------------
Rotational spectrum 
--------------------
 
Rotational constants in cm-1:     0.002123     0.001589     0.001354 
Rotational constants in MHz :    63.635357    47.647443    40.604619 

 Dipole components along the rotational axes: 
x,y,z [a.u.] :     0.282873    -0.017870    -0.059351 
x,y,z [Debye]:     0.719007    -0.045422    -0.150858 

 

Timings for individual modules:

Sum of individual times         ...      134.238 sec (=   2.237 min)
GTO integral calculation        ...        8.166 sec (=   0.136 min)   6.1 %
SCF iterations                  ...      126.072 sec (=   2.101 min)  93.9 %



                             ****ORCA TERMINATED NORMALLY****
TOTAL RUN TIME: 0 days 0 hours 4 minutes 47 seconds 46 msec
