
                                 *****************
                                 * O   R   C   A *
                                 *****************

                                            #,                                       
                                            ###                                      
                                            ####                                     
                                            #####                                    
                                            ######                                   
                                           ########,                                 
                                     ,,################,,,,,                         
                               ,,#################################,,                 
                          ,,##########################################,,             
                       ,#########################################, ''#####,          
                    ,#############################################,,   '####,        
                  ,##################################################,,,,####,       
                ,###########''''           ''''###############################       
              ,#####''   ,,,,##########,,,,          '''####'''          '####       
            ,##' ,,,,###########################,,,                        '##       
           ' ,,###''''                  '''############,,,                           
         ,,##''                                '''############,,,,        ,,,,,,###''
      ,#''                                            '''#######################'''  
     '                                                          ''''####''''         
             ,#######,   #######,   ,#######,      ##                                
            ,#'     '#,  ##    ##  ,#'     '#,    #''#        ######   ,####,        
            ##       ##  ##   ,#'  ##            #'  '#       #        #'  '#        
            ##       ##  #######   ##           ,######,      #####,   #    #        
            '#,     ,#'  ##    ##  '#,     ,#' ,#      #,         ##   #,  ,#        
             '#######'   ##     ##  '#######'  #'      '#     #####' # '####'        



                  #######################################################
                  #                        -***-                        #
                  #          Department of theory and spectroscopy      #
                  #    Directorship and core code : Frank Neese         #
                  #        Max Planck Institute fuer Kohlenforschung    #
                  #                Kaiser Wilhelm Platz 1               #
                  #                 D-45470 Muelheim/Ruhr               #
                  #                      Germany                        #
                  #                                                     #
                  #                  All rights reserved                #
                  #                        -***-                        #
                  #######################################################


                         Program Version 5.0.3 -  RELEASE  -


 With contributions from (in alphabetic order):
   Daniel Aravena         : Magnetic Suceptibility
   Michael Atanasov       : Ab Initio Ligand Field Theory (pilot matlab implementation)
   Alexander A. Auer      : GIAO ZORA, VPT2 properties, NMR spectrum
   Ute Becker             : Parallelization
   Giovanni Bistoni       : ED, misc. LED, open-shell LED, HFLD
   Martin Brehm           : Molecular dynamics
   Dmytro Bykov           : SCF Hessian
   Vijay G. Chilkuri      : MRCI spin determinant printing, contributions to CSF-ICE
   Dipayan Datta          : RHF DLPNO-CCSD density
   Achintya Kumar Dutta   : EOM-CC, STEOM-CC
   Dmitry Ganyushin       : Spin-Orbit,Spin-Spin,Magnetic field MRCI
   Miquel Garcia          : C-PCM and meta-GGA Hessian, CC/C-PCM, Gaussian charge scheme
   Yang Guo               : DLPNO-NEVPT2, F12-NEVPT2, CIM, IAO-localization
   Andreas Hansen         : Spin unrestricted coupled pair/coupled cluster methods
   Benjamin Helmich-Paris : MC-RPA, TRAH-SCF, COSX integrals
   Lee Huntington         : MR-EOM, pCC
   Robert Izsak           : Overlap fitted RIJCOSX, COSX-SCS-MP3, EOM
   Marcus Kettner         : VPT2
   Christian Kollmar      : KDIIS, OOCD, Brueckner-CCSD(T), CCSD density, CASPT2, CASPT2-K
   Simone Kossmann        : Meta GGA functionals, TD-DFT gradient, OOMP2, MP2 Hessian
   Martin Krupicka        : Initial AUTO-CI
   Lucas Lang             : DCDCAS
   Marvin Lechner         : AUTO-CI (C++ implementation), FIC-MRCC
   Dagmar Lenk            : GEPOL surface, SMD
   Dimitrios Liakos       : Extrapolation schemes; Compound Job, initial MDCI parallelization
   Dimitrios Manganas     : Further ROCIS development; embedding schemes
   Dimitrios Pantazis     : SARC Basis sets
   Anastasios Papadopoulos: AUTO-CI, single reference methods and gradients
   Taras Petrenko         : DFT Hessian,TD-DFT gradient, ASA, ECA, R-Raman, ABS, FL, XAS/XES, NRVS
   Peter Pinski           : DLPNO-MP2, DLPNO-MP2 Gradient
   Christoph Reimann      : Effective Core Potentials
   Marius Retegan         : Local ZFS, SOC
   Christoph Riplinger    : Optimizer, TS searches, QM/MM, DLPNO-CCSD(T), (RO)-DLPNO pert. Triples
   Tobias Risthaus        : Range-separated hybrids, TD-DFT gradient, RPA, STAB
   Michael Roemelt        : Original ROCIS implementation
   Masaaki Saitow         : Open-shell DLPNO-CCSD energy and density
   Barbara Sandhoefer     : DKH picture change effects
   Avijit Sen             : IP-ROCIS
   Kantharuban Sivalingam : CASSCF convergence, NEVPT2, FIC-MRCI
   Bernardo de Souza      : ESD, SOC TD-DFT
   Georgi Stoychev        : AutoAux, RI-MP2 NMR, DLPNO-MP2 response
   Willem Van den Heuvel  : Paramagnetic NMR
   Boris Wezisla          : Elementary symmetry handling
   Frank Wennmohs         : Technical directorship


 We gratefully acknowledge several colleagues who have allowed us to
 interface, adapt or use parts of their codes:
   Stefan Grimme, W. Hujo, H. Kruse, P. Pracht,  : VdW corrections, initial TS optimization,
                  C. Bannwarth, S. Ehlert          DFT functionals, gCP, sTDA/sTD-DF
   Ed Valeev, F. Pavosevic, A. Kumar             : LibInt (2-el integral package), F12 methods
   Garnet Chan, S. Sharma, J. Yang, R. Olivares  : DMRG
   Ulf Ekstrom                                   : XCFun DFT Library
   Mihaly Kallay                                 : mrcc  (arbitrary order and MRCC methods)
   Jiri Pittner, Ondrej Demel                    : Mk-CCSD
   Frank Weinhold                                : gennbo (NPA and NBO analysis)
   Christopher J. Cramer and Donald G. Truhlar   : smd solvation model
   Lars Goerigk                                  : TD-DFT with DH, B97 family of functionals
   V. Asgeirsson, H. Jonsson                     : NEB implementation
   FAccTs GmbH                                   : IRC, NEB, NEB-TS, DLPNO-Multilevel, CI-OPT
                                                   MM, QMMM, 2- and 3-layer-ONIOM, Crystal-QMMM,
                                                   LR-CPCM, SF, NACMEs, symmetry and pop. for TD-DFT,
                                                   nearIR, NL-DFT gradient (VV10), updates on ESD,
                                                   ML-optimized integration grids
   S Lehtola, MJT Oliveira, MAL Marques          : LibXC Library
   Liviu Ungur et al                             : ANISO software


 Your calculation uses the libint2 library for the computation of 2-el integrals
 For citations please refer to: http://libint.valeyev.net

 Your ORCA version has been built with support for libXC version: 5.1.0
 For citations please refer to: https://tddft.org/programs/libxc/

 This ORCA versions uses:
   CBLAS   interface :  Fast vector & matrix operations
   LAPACKE interface :  Fast linear algebra routines
   SCALAPACK package :  Parallel linear algebra routines
   Shared memory     :  Shared parallel matrices
   BLAS/LAPACK       :  OpenBLAS 0.3.15  USE64BITINT DYNAMIC_ARCH NO_AFFINITY Sandybridge SINGLE_THREADED
        Core in use  :  Sandybridge
   Copyright (c) 2011-2014, The OpenBLAS Project




***************************************
The coordinates will be read from file: pbe.xyz
***************************************


================================================================================

cite the ECPs for Au [Def2-ECP] as follows:
Ce-Yb(ecp-28): M. Dolg, H. Stoll, H.Preuss, J. Chem. Phys., 1989, 90, 1730-1734.
Y-Cd(ecp-28), Hf-Hg(ecp-46): D. Andrae,U. Haeussermann, M. Dolg, H. Stoll, H. Preuss, Theor. Chim. Acta, 1990, 77, 123-141.
In-Sb(ecp-28), Tl-Bi(ecp-46): B. Metz, H. Stoll, M. Dolg, J. Chem. Phys., 2000, 113, 2563-2569.
Te-Xe(ecp-28), Po-Rn(ecp-46): K. A. Peterson, D. Figgen, E. Goll, H. Stoll, M. Dolg, J. Chem. Phys., 2003, 119, 11113-11123.
Rb(ecp-28), Cs(ecp-46): T. Leininger, A. Nicklass, W. Kuechle, H. Stoll, M. Dolg, A. Bergner, Chem. Phys. Lett., 1996, 255, 274-280.
Sr(ecp-28), Ba(ecp-46): M. Kaupp, P. V. Schleyer, H. Stoll and H. Preuss, J. Chem. Phys., 1991, 94, 1360-1366.
La(ecp-46): M. Dolg, H. Stoll, A. Savin, H. Preuss, Theor. Chim. Acta, 1989, 75, 173-194.
Lu(ecp-28): X. Cao, M. Dolg, J. Chem. Phys., 2001, 115, 7348-7355.

ECP parameters for Au [Def2-ECP] have been obtained from:
TURBOMOLE (7.0.2)

----- Orbital basis set information -----
Your calculation utilizes the basis: def2-TZVP
   F. Weigend and R. Ahlrichs, Phys. Chem. Chem. Phys. 7, 3297 (2005).

----- AuxJ basis set information -----
Your calculation utilizes the auxiliary basis: def2/J
   F. Weigend, Phys. Chem. Chem. Phys. 8, 1057 (2006).

================================================================================
                                        WARNINGS
                       Please study these warnings very carefully!
================================================================================


WARNING: your system is open-shell and RHF/RKS was chosen
  ===> : WILL SWITCH to UHF/UKS


INFO   : the flag for use of the SHARK integral package has been found!



***************************************
The coordinates will be read from file: pbe.xyz
***************************************


================================================================================

cite the ECPs for Au [Def2-ECP] as follows:
Ce-Yb(ecp-28): M. Dolg, H. Stoll, H.Preuss, J. Chem. Phys., 1989, 90, 1730-1734.
Y-Cd(ecp-28), Hf-Hg(ecp-46): D. Andrae,U. Haeussermann, M. Dolg, H. Stoll, H. Preuss, Theor. Chim. Acta, 1990, 77, 123-141.
In-Sb(ecp-28), Tl-Bi(ecp-46): B. Metz, H. Stoll, M. Dolg, J. Chem. Phys., 2000, 113, 2563-2569.
Te-Xe(ecp-28), Po-Rn(ecp-46): K. A. Peterson, D. Figgen, E. Goll, H. Stoll, M. Dolg, J. Chem. Phys., 2003, 119, 11113-11123.
Rb(ecp-28), Cs(ecp-46): T. Leininger, A. Nicklass, W. Kuechle, H. Stoll, M. Dolg, A. Bergner, Chem. Phys. Lett., 1996, 255, 274-280.
Sr(ecp-28), Ba(ecp-46): M. Kaupp, P. V. Schleyer, H. Stoll and H. Preuss, J. Chem. Phys., 1991, 94, 1360-1366.
La(ecp-46): M. Dolg, H. Stoll, A. Savin, H. Preuss, Theor. Chim. Acta, 1989, 75, 173-194.
Lu(ecp-28): X. Cao, M. Dolg, J. Chem. Phys., 2001, 115, 7348-7355.

ECP parameters for Au [Def2-ECP] have been obtained from:
TURBOMOLE (7.0.2)

----- Orbital basis set information -----
Your calculation utilizes the basis: def2-TZVP
   F. Weigend and R. Ahlrichs, Phys. Chem. Chem. Phys. 7, 3297 (2005).

----- AuxJ basis set information -----
Your calculation utilizes the auxiliary basis: def2/J
   F. Weigend, Phys. Chem. Chem. Phys. 8, 1057 (2006).

================================================================================
                                        WARNINGS
                       Please study these warnings very carefully!
================================================================================


INFO   : the flag for use of the SHARK integral package has been found!

================================================================================
                                       INPUT FILE
================================================================================
NAME = pbeSP.inp
|  1> !PBE def2-TZVP VERYSLOWCONV
|  2> 
|  3> %pal nprocs 16 end 
|  4> 
|  5> *xyzfile 0 5 pbe.xyz
|  6> 
|  7> $new_job
|  8> 
|  9> !PBE def2-TZVP VERYSLOWCONV
| 10>  
| 11> 
| 12> %pal nprocs 16 end 
| 13> 
| 14> *xyzfile 0 3 pbe.xyz
| 15> 
| 16> 
| 17> 
| 18> 
| 19> 
| 20>                          ****END OF INPUT****
================================================================================


                 $$$$$$$$$$$$$$$$$$$$$$$$$$$$$$$$$$$$$$$$$$$$$$ 
                 $ THERE ARE  2 JOBS TO BE PROCESSED THIS RUN $
                 $$$$$$$$$$$$$$$$$$$$$$$$$$$$$$$$$$$$$$$$$$$$$$ 




                 $$$$$$$$$$$$$$$$  JOB NUMBER  1 $$$$$$$$$$$$$$


                       ****************************
                       * Single Point Calculation *
                       ****************************

---------------------------------
CARTESIAN COORDINATES (ANGSTROEM)
---------------------------------
  Au     5.351958    7.517900    6.880027
  Au     8.837850   10.372008    5.739613
  Au     6.073943   10.276160    6.559835
  Au     7.158828    8.205903    4.903312
  Au     9.789491    7.674940    5.551541
  Au     7.698052    5.943720    6.458251
  Au     6.002180    9.341175    9.275365
  Au     9.690030    6.511274    8.461579
  Au     8.666124    8.714644   10.054581
  Au     8.115421   10.927882    8.434487
  Au     7.119025    6.409889    9.235051
  Au     4.501695    7.047858    9.447988
  Au    10.438875    9.498533    7.964135
  Au    11.945648    7.330675    7.214945
  Fe     7.919797    8.417364    7.482168

----------------------------
CARTESIAN COORDINATES (A.U.)
----------------------------
  NO LB      ZA    FRAG     MASS         X           Y           Z
   0 Au   19.0000*   0   196.966   10.113736   14.206772   13.001366
   1 Au   19.0000*   0   196.966   16.701117   19.600254   10.846297
   2 Au   19.0000*   0   196.966   11.478089   19.419128   12.396292
   3 Au   19.0000*   0   196.966   13.528225   15.506909    9.265916
   4 Au   19.0000*   0   196.966   18.499457   14.503534   10.490892
   5 Au   19.0000*   0   196.966   14.547209   11.232003   12.204325
   6 Au   19.0000*   0   196.966   11.342476   17.652262   17.527899
   7 Au   19.0000*   0   196.966   18.311503   12.304525   15.990067
   8 Au   19.0000*   0   196.966   16.376601   16.468290   19.000404
   9 Au   19.0000*   0   196.966   15.335923   20.650703   15.938870
  10 Au   19.0000*   0   196.966   13.453007   12.112935   17.451717
  11 Au   19.0000*   0   196.966    8.506972   13.318522   17.854110
  12 Au   19.0000*   0   196.966   19.726616   17.949627   15.050034
  13 Au   19.0000*   0   196.966   22.574003   13.852968   13.634270
  14 Fe   26.0000    0    55.850   14.966248   15.906514   14.139249
* core charge reduced due to ECP

--------------------------------
INTERNAL COORDINATES (ANGSTROEM)
--------------------------------
 Au     0   0   0     0.000000000000     0.00000000     0.00000000
 Au     1   0   0     4.647355937526     0.00000000     0.00000000
 Au     1   2   0     2.869107990698    36.24027284     0.00000000
 Au     1   2   3     2.765054980319    35.07613453   121.32875271
 Au     4   1   2     2.760888938681   114.01286142    66.90101468
 Au     4   1   2     2.797511129760    61.79626852   101.57933320
 Au     3   1   2     2.872881406378    64.87141486   258.35233420
 Au     6   4   1     2.881565869517   111.12477258   257.77587901
 Au     7   3   1     2.845402666253   107.88614953    98.25915391
 Au     7   3   1     2.773175539909    60.53726973   135.97385583
 Au     8   6   4     2.686746439096    62.04403525   102.26501147
 Au    11   8   6     2.702362080269   160.15032935   295.11718586
 Au    10   7   3     2.768159432962   113.30918109   256.91001092
 Au     8   6   4     2.704315961409   108.40799527   300.88194806
 Fe     6   4   1     2.686353647924    58.87920669   288.04436855

---------------------------
INTERNAL COORDINATES (A.U.)
---------------------------
 Au     0   0   0     0.000000000000     0.00000000     0.00000000
 Au     1   0   0     8.782229968777     0.00000000     0.00000000
 Au     1   2   0     5.421828351064    36.24027284     0.00000000
 Au     1   2   3     5.225196658037    35.07613453   121.32875271
 Au     4   1   2     5.217323980279   114.01286142    66.90101468
 Au     4   1   2     5.286529891844    61.79626852   101.57933320
 Au     3   1   2     5.428959073289    64.87141486   258.35233420
 Au     6   4   1     5.445370330242   111.12477258   257.77587901
 Au     7   3   1     5.377031779947   107.88614953    98.25915391
 Au     7   3   1     5.240542291717    60.53726973   135.97385583
 Au     8   6   4     5.077214961179    62.04403525   102.26501147
 Au    11   8   6     5.106724246402   160.15032935   295.11718586
 Au    10   7   3     5.231063223329   113.30918109   256.91001092
 Au     8   6   4     5.110416546656   108.40799527   300.88194806
 Fe     6   4   1     5.076472693436    58.87920669   288.04436855

---------------------
BASIS SET INFORMATION
---------------------
There are 2 groups of distinct atoms

 Group   1 Type Au  : 8s7p6d1f contracted to 6s4p3d1f pattern {311111/4111/411/1}
 Group   2 Type Fe  : 17s11p7d1f contracted to 6s4p4d1f pattern {842111/6311/4111/1}

Atom   0Au   basis set group =>   1
Atom   1Au   basis set group =>   1
Atom   2Au   basis set group =>   1
Atom   3Au   basis set group =>   1
Atom   4Au   basis set group =>   1
Atom   5Au   basis set group =>   1
Atom   6Au   basis set group =>   1
Atom   7Au   basis set group =>   1
Atom   8Au   basis set group =>   1
Atom   9Au   basis set group =>   1
Atom  10Au   basis set group =>   1
Atom  11Au   basis set group =>   1
Atom  12Au   basis set group =>   1
Atom  13Au   basis set group =>   1
Atom  14Fe   basis set group =>   2
---------------------------------
AUXILIARY/J BASIS SET INFORMATION
---------------------------------
There are 2 groups of distinct atoms

 Group   1 Type Au  : 11s5p5d3f3g contracted to 8s5p5d2f3g pattern {41111111/11111/11111/21/111}
 Group   2 Type Fe  : 19s5p5d3f3g contracted to 8s5p5d2f3g pattern {121111111/11111/11111/21/111}

Atom   0Au   basis set group =>   1
Atom   1Au   basis set group =>   1
Atom   2Au   basis set group =>   1
Atom   3Au   basis set group =>   1
Atom   4Au   basis set group =>   1
Atom   5Au   basis set group =>   1
Atom   6Au   basis set group =>   1
Atom   7Au   basis set group =>   1
Atom   8Au   basis set group =>   1
Atom   9Au   basis set group =>   1
Atom  10Au   basis set group =>   1
Atom  11Au   basis set group =>   1
Atom  12Au   basis set group =>   1
Atom  13Au   basis set group =>   1
Atom  14Fe   basis set group =>   2
-------------------------
ECP PARAMETER INFORMATION
-------------------------

 Group 1, Type Au ECP Def2-ECP (replacing 60 core electrons, lmax=3)

Atom   0Au   ECP group =>   1
Atom   1Au   ECP group =>   1
Atom   2Au   ECP group =>   1
Atom   3Au   ECP group =>   1
Atom   4Au   ECP group =>   1
Atom   5Au   ECP group =>   1
Atom   6Au   ECP group =>   1
Atom   7Au   ECP group =>   1
Atom   8Au   ECP group =>   1
Atom   9Au   ECP group =>   1
Atom  10Au   ECP group =>   1
Atom  11Au   ECP group =>   1
Atom  12Au   ECP group =>   1
Atom  13Au   ECP group =>   1



           ************************************************************
           *        Program running with 16 parallel MPI-processes    *
           *              working on a common directory               *
           ************************************************************
------------------------------------------------------------------------------
                           ORCA GTO INTEGRAL CALCULATION
                           -- RI-GTO INTEGRALS CHOSEN --
------------------------------------------------------------------------------
------------------------------------------------------------------------------
                   ___                                                        
                  /   \      - P O W E R E D   B Y -                         
                 /     \                                                     
                 |  |  |   _    _      __       _____    __    __             
                 |  |  |  | |  | |    /  \     |  _  \  |  |  /  |          
                  \  \/   | |  | |   /    \    | | | |  |  | /  /          
                 / \  \   | |__| |  /  /\  \   | |_| |  |  |/  /          
                |  |  |   |  __  | /  /__\  \  |    /   |      \           
                |  |  |   | |  | | |   __   |  |    \   |  |\   \          
                \     /   | |  | | |  |  |  |  | |\  \  |  | \   \       
                 \___/    |_|  |_| |__|  |__|  |_| \__\ |__|  \__/        
                                                                              
                      - O R C A' S   B I G   F R I E N D -                    
                                      &                                       
                       - I N T E G R A L  F E E D E R -                       
                                                                              
 v1 FN, 2020, v2 2021                                                         
------------------------------------------------------------------------------


Reading SHARK input file pbeSP.SHARKINP.tmp ... ok
----------------------
SHARK INTEGRAL PACKAGE
----------------------

Number of atoms                             ...     15
Number of basis functions                   ...    605
Number of shells                            ...    211
Maximum angular momentum                    ...      3
Integral batch strategy                     ... SHARK/LIBINT Hybrid
RI-J (if used) integral strategy            ... SPLIT-RIJ (Revised 2003 algorithm where possible)
Printlevel                                  ...      1
Contraction scheme used                     ... SEGMENTED contraction
Coulomb Range Separation                    ... NOT USED
Exchange Range Separation                   ... NOT USED
Finite Nucleus Model                        ... NOT USED
Auxiliary Coulomb fitting basis             ... AVAILABLE
   # of basis functions in Aux-J            ...   1335
   # of shells in Aux-J                     ...    345
   Maximum angular momentum in Aux-J        ...      4
Auxiliary J/K fitting basis                 ... NOT available
Auxiliary Correlation fitting basis         ... NOT available
Auxiliary 'external' fitting basis          ... NOT available
Integral threshold                          ...     1.000000e-10
Primitive cut-off                           ...     1.000000e-11
Primitive pair pre-selection threshold      ...     1.000000e-11

Calculating pre-screening integrals         ... done (  0.1 sec) Dimension = 211
Organizing shell pair data                  ... done (  0.7 sec)
Shell pair information
Total number of shell pairs                 ...     22366
Shell pairs after pre-screening             ...     18000
Total number of primitive shell pairs       ...     59609
Primitive shell pairs kept                  ...     34862
          la=0 lb=0:   2826 shell pairs
          la=1 lb=0:   4104 shell pairs
          la=1 lb=1:   1539 shell pairs
          la=2 lb=0:   3600 shell pairs
          la=2 lb=1:   2488 shell pairs
          la=2 lb=2:   1030 shell pairs
          la=3 lb=0:    946 shell pairs
          la=3 lb=1:    732 shell pairs
          la=3 lb=2:    634 shell pairs
          la=3 lb=3:    101 shell pairs

Calculating one electron integrals          ... done (  0.0 sec)
Calculating ECP integrals                   ... done ( 11.8 sec)
Calculating RI/J V-Matrix + Cholesky decomp.... done (  0.1 sec)
Calculating Nuclear repulsion               ... done (  0.0 sec) ENN=   5765.054810391361 Eh

SHARK setup successfully completed in  13.2 seconds

Maximum memory used throughout the entire GTOINT-calculation: 34.8 MB


           ************************************************************
           *        Program running with 16 parallel MPI-processes    *
           *              working on a common directory               *
           ************************************************************
-------------------------------------------------------------------------------
                                 ORCA SCF
-------------------------------------------------------------------------------

------------
SCF SETTINGS
------------
Hamiltonian:
 Density Functional     Method          .... DFT(GTOs)
 Exchange Functional    Exchange        .... PBE
   PBE kappa parameter   XKappa         ....  0.804000
   PBE mue parameter    XMuePBE         ....  0.219520
 Correlation Functional Correlation     .... PBE
   PBE beta parameter  CBetaPBE         ....  0.066725
 LDA part of GGA corr.  LDAOpt          .... PW91-LDA
 Gradients option       PostSCFGGA      .... off
   Density functional embedding theory  .... OFF
   NL short-range parameter             ....  6.400000
 RI-approximation to the Coulomb term is turned on
   Number of AuxJ basis functions       .... 1335


General Settings:
 Integral files         IntName         .... pbeSP
 Hartree-Fock type      HFTyp           .... UHF
 Total Charge           Charge          ....    0
 Multiplicity           Mult            ....    5
 Number of Electrons    NEL             ....  292
 Basis Dimension        Dim             ....  605
 Nuclear Repulsion      ENuc            ....   5765.0548103914 Eh

Convergence Acceleration:
 DIIS                   CNVDIIS         .... on
   Start iteration      DIISMaxIt       ....     0
   Startup error        DIISStart       ....  0.200000
   # of expansion vecs  DIISMaxEq       ....     5
   Bias factor          DIISBfac        ....   1.050
   Max. coefficient     DIISMaxC        ....  10.000
 Trust-Rad. Augm. Hess. CNVTRAH         .... auto
   Auto Start mean grad. ratio tolernc. ....  1.125000
   Auto Start start iteration           ....    20
   Auto Start num. interpolation iter.  ....    10
   Max. Number of Micro iterations      ....    16
   Max. Number of Macro iterations      .... Maxiter - #DIIS iter
   Number of Davidson start vectors     ....     2
   Converg. threshold I  (grad. norm)   ....   5.000e-05
   Converg. threshold II (energy diff.) ....   1.000e-06
   Grad. Scal. Fac. for Micro threshold ....   0.100
   Minimum threshold for Micro iter.    ....   0.010
   NR start threshold (gradient norm)   ....   0.001
   Initial trust radius                 ....   0.400
   Minimum AH scaling param. (alpha)    ....   1.000
   Maximum AH scaling param. (alpha)    .... 1000.000
   Orbital update algorithm             .... Taylor
   White noise on init. David. guess    .... on
   Maximum white noise                  ....   0.010
   Quad. conv. algorithm                .... NR
 SOSCF                  CNVSOSCF        .... off
 Level Shifting         CNVShift        .... on
   Level shift para.    LevelShift      ....    0.2500
   Turn off err/grad.   ShiftErr        ....    0.0000
 Zerner damping         CNVZerner       .... off
 Static damping         CNVDamp         .... on
   Fraction old density DampFac         ....    0.9200
   Max. Damping (<1)    DampMax         ....    0.9800
   Min. Damping (>=0)   DampMin         ....    0.0000
   Turn off err/grad.   DampErr         ....    0.0030
 Fernandez-Rico         CNVRico         .... off

SCF Procedure:
 Maximum # iterations   MaxIter         ....   125
 SCF integral mode      SCFMode         .... Direct
   Integral package                     .... SHARK and LIBINT hybrid scheme
 Reset frequency        DirectResetFreq ....    20
 Integral Threshold     Thresh          ....  1.000e-10 Eh
 Primitive CutOff       TCut            ....  1.000e-11 Eh

Convergence Tolerance:
 Convergence Check Mode ConvCheckMode   .... Total+1el-Energy
 Convergence forced     ConvForced      .... 0
 Energy Change          TolE            ....  1.000e-06 Eh
 1-El. energy change                    ....  1.000e-03 Eh
 DIIS Error             TolErr          ....  1.000e-06


Diagonalization of the overlap matrix:
Smallest eigenvalue                        ... 2.666e-04
Time for diagonalization                   ...    0.127 sec
Threshold for overlap eigenvalues          ... 1.000e-08
Number of eigenvalues below threshold      ... 0
Time for construction of square roots      ...    0.064 sec
Total time needed                          ...    0.195 sec

Time for model grid setup =    0.453 sec

------------------------------
INITIAL GUESS: MODEL POTENTIAL
------------------------------
Loading Hartree-Fock densities                     ... done
  calling /home/ehlert/src/miniconda3/envs/orca500/Programs/ORCA501/orca pbeSP_atom79.inp > pbeSP_atom79.out in order to generate an atomic fitting density for atom 0 (Au with ECP) on-the-fly... 
    atom 0 (Au), assumed electronic state with S=2: 1s2 2s2 2p6 3s2 3p6 4s2 3d10 4p6 5s2 4d10 5p6 6s1 4f14 5d10           ... done
Calculating cut-offs                               ... done
Initializing the effective Hamiltonian             ... done
Setting up the integral package (SHARK)            ... done
Starting the Coulomb interaction                   ... done (   0.2 sec)
Reading the grid                                   ... done
Mapping shells                                     ... done
Starting the XC term evaluation                    ... done (   0.2 sec)
  promolecular density results
     # of electrons  =   1132.014437323
     EX              =  -5175.672301476
     EC              =    -68.996027631
     EX+EC           =  -5244.668329107
Transforming the Hamiltonian                       ... done (   0.1 sec)
Diagonalizing the Hamiltonian                      ... done (   0.1 sec)
Back transforming the eigenvectors                 ... done (   0.0 sec)
Now organizing SCF variables                       ... done
                      ------------------
                      INITIAL GUESS DONE (   1.9 sec)
                      ------------------
-------------------
DFT GRID GENERATION
-------------------

General Integration Accuracy     IntAcc      ... 4.388
Radial Grid Type                 RadialGrid  ... OptM3 with GC (2021)
Angular Grid (max. ang.)         AngularGrid ... 4 (Lebedev-302)
Angular grid pruning method      GridPruning ... 4 (adaptive)
Weight generation scheme         WeightScheme... Becke
Basis function cutoff            BFCut       ... 1.0000e-10
Integration weight cutoff        WCut        ... 1.0000e-14
Angular grids for H and He will be reduced by one unit
Partially contracted basis set               ... off
Rotationally invariant grid construction     ... off

Total number of grid points                  ...   165653
Total number of batches                      ...     2596
Average number of points per batch           ...       63
Average number of grid points per atom       ...    11044
Time for grid setup =    1.593 sec

--------------
SCF ITERATIONS
--------------
ITER       Energy         Delta-E        Max-DP      RMS-DP      [F,P]     Damp
               ***  Starting incremental Fock matrix formation  ***
  0  -3161.6612254075   0.000000000000 0.10620238  0.00071871  0.5393676 0.9200
  1  -3162.9829973821  -1.321771974593 0.08835985  0.00064973  0.3410752 0.9200
                               ***Turning on DIIS***
  2  -3163.6826379706  -0.699640588488 0.08284558  0.00052776  0.2417839 0.9200
  3  -3163.9712032167  -0.288565246070 0.04095714  0.00041182  0.2214982 0.9200
  4  -3164.0429326765  -0.071729459803 0.05053839  0.00037359  0.2031547 0.9200
  5  -3164.0357611284   0.007171548048 0.04086724  0.00033401  0.1863195 0.9200
  6  -3164.0849066322  -0.049145503844 0.03681054  0.00031042  0.1708173 0.9200
  7  -3164.1940844225  -0.109177790220 0.03368266  0.00029008  0.1567124 0.9200
  8  -3164.2685581359  -0.074473713386 0.03416950  0.00027045  0.1441852 0.9200
  9  -3164.3198574857  -0.051299349891 0.03171229  0.00026225  0.1326452 0.9200
 10  -3164.3664198066  -0.046562320862 0.03150247  0.00024033  0.1219066 0.9200
 11  -3164.3919723956  -0.025552589023 0.02690066  0.00020431  0.1120818 0.9200
 12  -3164.4276382866  -0.035665890930 0.02465083  0.00019976  0.1029944 0.9200
 13  -3164.4848005279  -0.057162241387 0.02843421  0.00019291  0.0945226 0.9200
 14  -3164.5265895349  -0.041789006953 0.02846881  0.00018050  0.0869075 0.9200
 15  -3164.5611047794  -0.034515244482 0.02592858  0.00017211  0.0799106 0.9200
 16  -3164.5950859937  -0.033981214295 0.02362650  0.00016419  0.0734292 0.9200
 17  -3164.6239346943  -0.028848700625 0.02366033  0.00015703  0.0675217 0.9200
 18  -3164.6520087943  -0.028074099955 0.02557662  0.00016215  0.0620897 0.9200
 19  -3164.6824473403  -0.030438546075 0.02920584  0.00016511  0.0570184 0.9200
               *** Restarting incremental Fock matrix formation ***
                                   *** Resetting DIIS ***

 WARNING: the maximum gradient error descreased on average only by a factor   1.1
          during the last 20 iterations

                      *** Initiating the TRAH-SCF procedure ***


TRAH GRID
---------

General Integration Accuracy     IntAcc      ... 3.467
Radial Grid Type                 RadialGrid  ... OptM3 with GC (2021)
Angular Grid (max. ang.)         AngularGrid ... 1 (Lebedev-50)
Angular grid pruning method      GridPruning ... 4 (adaptive)
Weight generation scheme         WeightScheme... Becke
Basis function cutoff            BFCut       ... 1.0000e-10
Integration weight cutoff        WCut        ... 1.0000e-14
Angular grids for H and He will be reduced by one unit
Partially contracted basis set               ... off
Rotationally invariant grid construction     ... off

Total number of grid points                  ...    71456
Total number of batches                      ...     1124
Average number of points per batch           ...       63
Average number of grid points per atom       ...     4764

 --------------------------------------------------------------------------------------------
   Iter.        energy            ||Error||_2        Shift      TRadius  Mac/Mic        Rej.
 --------------------------------------------------------------------------------------------
WARNING: 415 diagonal Hessian elements are negative!
    0      -3164.838631783754     9.019593e-01                     0.400 (TRAH MAcro)   No
WARNING : negative HOMO - LUMO gap : (op = alpha) -0.369744
WARNING : negative HOMO - LUMO gap : (op =  beta) -0.234821
    0     dE    -1.383860e-01     4.471112e-01    -1.3534e-01      0.150 (TRAH MIcro)
    0     dE    -1.920232e-01     7.392909e-02    -1.7880e-01      0.272 (TRAH MIcro)
    0     dE    -1.970144e-01     7.051149e-02    -1.8252e-01      0.282 (TRAH MIcro)
    0     dE    -2.064733e-01     5.349695e-02    -1.8742e-01      0.319 (TRAH MIcro)
    0     dE    -2.143430e-01     5.518877e-02    -1.9077e-01      0.352 (TRAH MIcro)
    0     dE    -2.232660e-01     4.657974e-02    -1.9328e-01      0.394 (TRAH MIcro)
    0     dE    -2.290129e-01     8.458657e-02    -2.5879e-01      0.400 (TRAH MIcro)
    0     dE    -2.088634e-01     3.674385e-02    -3.8655e-01      0.298 (TRAH MIcro)
    0     dE    -2.087916e-01     9.794429e-03    -3.8752e-01      0.295 (TRAH MIcro)
WARNING: 2 diagonal Hessian elements are negative!
    1      -3165.034493454402     7.242497e-02                     0.480 (TRAH MAcro)   No
WARNING : negative HOMO - LUMO gap : (op = alpha) -0.012218
    1     dE    -3.021067e-03     1.192762e-01    -3.0158e-03      0.042 (TRAH MIcro)
    1     dE    -2.487423e-02     3.220873e-01    -2.4451e-02      0.480 (TRAH MIcro)
    1     dE    -3.202652e-02     7.216102e-02    -5.3448e-02      0.480 (TRAH MIcro)
    1     dE    -3.404867e-02     3.493727e-02    -5.7426e-02      0.480 (TRAH MIcro)
    1     dE    -3.484604e-02     1.575129e-02    -5.8393e-02      0.480 (TRAH MIcro)
    1     dE    -3.495779e-02     7.415037e-03    -5.8758e-02      0.480 (TRAH MIcro)
    1     dE    -3.498394e-02     3.462044e-03    -5.9102e-02      0.480 (TRAH MIcro)
WARNING: 2 diagonal Hessian elements are negative!
    2      -3165.064954841961     4.238252e-02                     0.576 (TRAH MAcro)   No
WARNING : negative HOMO - LUMO gap : (op = alpha) -0.010935
WARNING : small    HOMO - LUMO gap : (op =  beta) 0.018081
    2     dE    -4.133151e-04     4.401801e-02    -4.1328e-04      0.010 (TRAH MIcro)
    2     dE    -3.208002e-03     1.075884e-01    -3.1215e-03      0.166 (TRAH MIcro)
    2     dE    -5.890392e-03     2.171943e-02    -5.4439e-03      0.286 (TRAH MIcro)
    2     dE    -6.104657e-03     1.713774e-02    -5.6086e-03      0.297 (TRAH MIcro)
    2     dE    -6.221044e-03     9.224729e-03    -5.7015e-03      0.302 (TRAH MIcro)
    2     dE    -6.275813e-03     6.861646e-03    -5.7417e-03      0.305 (TRAH MIcro)
    2     dE    -6.304984e-03     5.295888e-03    -5.7613e-03      0.307 (TRAH MIcro)
    2     dE    -6.320508e-03     4.798256e-03    -5.7714e-03      0.308 (TRAH MIcro)
    2     dE    -6.337273e-03     5.775613e-03    -5.7818e-03      0.310 (TRAH MIcro)
    2     dE    -6.386316e-03     9.733728e-03    -5.8116e-03      0.314 (TRAH MIcro)
    2     dE    -6.560486e-03     1.572076e-02    -5.9097e-03      0.332 (TRAH MIcro)
    2     dE    -7.121844e-03     2.508961e-02    -6.1636e-03      0.394 (TRAH MIcro)
    2     dE    -9.338325e-03     4.346420e-02    -9.8125e-03      0.553 (TRAH MIcro)
    2     dE    -1.022368e-02     2.986447e-02    -1.3515e-02      0.552 (TRAH MIcro)
WARNING: 1 diagonal Hessian elements are negative!
    3      -3165.073701886898     3.528460e-02                     0.691 (TRAH MAcro)   No
WARNING : negative HOMO - LUMO gap : (op = alpha) -0.000589
    3     dE    -1.806572e-05     6.455404e-02    -1.8066e-05      0.001 (TRAH MIcro)
    3     dE    -3.603480e-04     2.807325e-02    -3.6003e-04      0.030 (TRAH MIcro)
    3     dE    -4.480939e-04     1.893919e-02    -4.4741e-04      0.039 (TRAH MIcro)
    3     dE    -5.741561e-04     1.225929e-02    -5.7188e-04      0.063 (TRAH MIcro)
    3     dE    -6.456204e-04     1.083710e-02    -6.4134e-04      0.082 (TRAH MIcro)
    3     dE    -6.980136e-04     9.732869e-03    -6.9053e-04      0.104 (TRAH MIcro)
    3     dE    -7.543849e-04     1.194069e-02    -7.4509e-04      0.112 (TRAH MIcro)
    3     dE    -8.810170e-04     1.582298e-02    -8.6306e-04      0.144 (TRAH MIcro)
    3     dE    -1.197132e-03     2.641635e-02    -1.1525e-03      0.197 (TRAH MIcro)
    3     dE    -2.004851e-03     3.767496e-02    -1.8116e-03      0.327 (TRAH MIcro)
    3     dE    -4.188220e-03     4.521276e-02    -3.0576e-03      0.608 (TRAH MIcro)
    3     dE    -5.905281e-03     2.779600e-02    -5.0771e-03      0.691 (TRAH MIcro)
    3     dE    -6.295868e-03     1.679983e-02    -5.8223e-03      0.691 (TRAH MIcro)
    3     dE    -6.470216e-03     9.664278e-03    -6.1602e-03      0.691 (TRAH MIcro)
    4      -3165.078158307186     3.866352e-02                     0.691 (TRAH MAcro)   No
WARNING : small    HOMO - LUMO gap : (op = alpha) 0.008727
    4     dE    -4.201375e-04     7.116280e-02    -4.2009e-04      0.011 (TRAH MIcro)
    4     dE    -7.439322e-04     3.156994e-02    -7.4251e-04      0.044 (TRAH MIcro)
    4     dE    -8.334269e-04     1.894794e-02    -8.3037e-04      0.061 (TRAH MIcro)
    4     dE    -9.800637e-04     8.526532e-03    -9.6969e-04      0.103 (TRAH MIcro)
    4     dE    -1.033933e-03     7.027694e-03    -1.0169e-03      0.129 (TRAH MIcro)
    4     dE    -1.054711e-03     3.135730e-03    -1.0332e-03      0.144 (TRAH MIcro)
    5      -3165.079248436632     3.671715e-03                     0.829 (TRAH MAcro)   No
WARNING : small    HOMO - LUMO gap : (op = alpha) 0.007654
    5     dE    -2.463206e-07     8.262333e-03    -2.4641e-07      0.000 (TRAH MIcro)
    5     dE    -1.456315e-05     3.309662e-03    -1.4559e-05      0.017 (TRAH MIcro)
    5     dE    -1.908014e-05     3.988779e-03    -1.9067e-05      0.026 (TRAH MIcro)
    5     dE    -2.690608e-05     2.583745e-03    -2.6853e-05      0.044 (TRAH MIcro)
    5     dE    -2.974520e-05     1.111961e-03    -2.9668e-05      0.051 (TRAH MIcro)
    5     dE    -3.046998e-05     6.531268e-04    -3.0389e-05      0.052 (TRAH MIcro)
    5     dE    -3.069425e-05     4.727677e-04    -3.0613e-05      0.052 (TRAH MIcro)
    5     dE    -3.082111e-05     2.137238e-04    -3.0739e-05      0.052 (TRAH MIcro)
    6      -3165.079279537925     3.385419e-04                           (NR   MAcro)
WARNING : small    HOMO - LUMO gap : (op = alpha) 0.007529
    6     dE    -4.984714e-08     2.385551e-04                           (NR   MIcro)
    6     dE    -6.377032e-08     1.523504e-04                           (NR   MIcro)
    6     dE    -7.796860e-08     8.422269e-05                           (NR   MIcro)
    6     dE    -8.296941e-08     6.561140e-05                           (NR   MIcro)
    6     dE    -8.580658e-08     3.853019e-05                           (NR   MIcro)
    6     dE    -8.649370e-08     2.466499e-05                           (NR   MIcro)
    6     dE    -8.687169e-08     1.175897e-05                           (NR   MIcro)
    6     dE    -8.694301e-08     5.473000e-06                           (NR   MIcro)
    6     dE    -8.696082e-08     2.958105e-06                           (NR   MIcro)
    7      -3165.079279624696     2.943606e-06                           (NR   MAcro)
WARNING : small    HOMO - LUMO gap : (op = alpha) 0.007500

               *****************************************************
               *                     SUCCESS                       *
               *           SCF CONVERGED AFTER  95 CYCLES          *
               *****************************************************


----------------
TOTAL SCF ENERGY
----------------

Total Energy       :        -3165.07927962 Eh          -86126.18577 eV

Components:
Nuclear Repulsion  :         5765.05481039 Eh          156875.11677 eV
Electronic Energy  :        -8930.13409002 Eh         -243001.30254 eV
One Electron Energy:       -16605.17688245 Eh         -451849.83457 eV
Two Electron Energy:         7675.04279244 Eh          208848.53204 eV

Virial components:
Potential Energy   :        -5067.70585269 Eh         -137899.28692 eV
Kinetic Energy     :         1902.62657307 Eh           51773.10115 eV
Virial Ratio       :            2.66353152


DFT components:
N(Alpha)           :      148.000012547009 electrons
N(Beta)            :      144.000012941938 electrons
N(Total)           :      292.000025488947 electrons
E(X)               :     -223.024867524472 Eh       
E(C)               :      -12.784731995193 Eh       
E(XC)              :     -235.809599519665 Eh       
DFET-embed. en.    :        0.000000000000 Eh       

---------------
SCF CONVERGENCE
---------------

  Last Energy change         ...   -8.6770e-08  Tolerance :   1.0000e-06
  Last Orbital Gradient      ...    2.9436e-06  Tolerance :   5.0000e-05
  Last Orbital Rotation      ...    1.0943e-03

             **** THE GBW FILE WAS UPDATED (pbeSP.gbw) ****
             **** DENSITY pbeSP.scfp WAS UPDATED ****
             **** ENERGY FILE WAS UPDATED (pbeSP.en.tmp) ****
----------------------
UHF SPIN CONTAMINATION
----------------------

Warning: in a DFT calculation there is little theoretical justification to 
         calculate <S**2> as in Hartree-Fock theory. We will do it anyways
         but you should keep in mind that the values have only limited relevance

Expectation value of <S**2>     :     6.502742
Ideal value S*(S+1) for S=2.0   :     6.000000
Deviation                       :     0.502742

             **** THE GBW FILE WAS UPDATED (pbeSP.gbw) ****
             **** DENSITY pbeSP.scfp WAS UPDATED ****
----------------
ORBITAL ENERGIES
----------------
                 SPIN UP ORBITALS
  NO   OCC          E(Eh)            E(eV) 
   0   1.0000    -254.773044     -6932.7270 
   1   1.0000     -29.614213      -805.8437 
   2   1.0000     -25.553265      -695.3397 
   3   1.0000     -25.548472      -695.2093 
   4   1.0000     -25.545548      -695.1297 
   5   1.0000      -4.033937      -109.7690 
   6   1.0000      -4.033437      -109.7554 
   7   1.0000      -4.032588      -109.7323 
   8   1.0000      -4.032364      -109.7262 
   9   1.0000      -4.027398      -109.5911 
  10   1.0000      -4.027381      -109.5906 
  11   1.0000      -4.027343      -109.5896 
  12   1.0000      -4.027302      -109.5884 
  13   1.0000      -4.027210      -109.5860 
  14   1.0000      -4.026404      -109.5640 
  15   1.0000      -4.020213      -109.3956 
  16   1.0000      -4.020211      -109.3955 
  17   1.0000      -4.020134      -109.3934 
  18   1.0000      -4.019987      -109.3894 
  19   1.0000      -3.392981       -92.3277 
  20   1.0000      -2.252937       -61.3055 
  21   1.0000      -2.249338       -61.2076 
  22   1.0000      -2.248971       -61.1976 
  23   1.0000      -2.248215       -61.1770 
  24   1.0000      -2.248022       -61.1718 
  25   1.0000      -2.247785       -61.1653 
  26   1.0000      -2.245392       -61.1002 
  27   1.0000      -2.244962       -61.0885 
  28   1.0000      -2.244567       -61.0778 
  29   1.0000      -2.243942       -61.0608 
  30   1.0000      -2.243802       -61.0570 
  31   1.0000      -2.243732       -61.0550 
  32   1.0000      -2.243305       -61.0434 
  33   1.0000      -2.243168       -61.0397 
  34   1.0000      -2.242860       -61.0313 
  35   1.0000      -2.242804       -61.0298 
  36   1.0000      -2.241488       -60.9940 
  37   1.0000      -2.241094       -60.9833 
  38   1.0000      -2.240331       -60.9625 
  39   1.0000      -2.240231       -60.9598 
  40   1.0000      -2.239308       -60.9347 
  41   1.0000      -2.239242       -60.9329 
  42   1.0000      -2.238847       -60.9221 
  43   1.0000      -2.238684       -60.9177 
  44   1.0000      -2.238243       -60.9057 
  45   1.0000      -2.237714       -60.8913 
  46   1.0000      -2.237083       -60.8741 
  47   1.0000      -2.236527       -60.8590 
  48   1.0000      -2.236407       -60.8557 
  49   1.0000      -2.235946       -60.8432 
  50   1.0000      -2.235709       -60.8367 
  51   1.0000      -2.235475       -60.8304 
  52   1.0000      -2.235420       -60.8289 
  53   1.0000      -2.234775       -60.8113 
  54   1.0000      -2.232292       -60.7437 
  55   1.0000      -2.232221       -60.7418 
  56   1.0000      -2.231929       -60.7339 
  57   1.0000      -2.231820       -60.7309 
  58   1.0000      -2.231697       -60.7276 
  59   1.0000      -2.230774       -60.7024 
  60   1.0000      -2.230489       -60.6947 
  61   1.0000      -2.230363       -60.6913 
  62   1.0000      -2.214766       -60.2668 
  63   1.0000      -2.204747       -59.9942 
  64   1.0000      -2.199231       -59.8441 
  65   1.0000      -0.444292       -12.0898 
  66   1.0000      -0.394099       -10.7240 
  67   1.0000      -0.390529       -10.6268 
  68   1.0000      -0.389062       -10.5869 
  69   1.0000      -0.381204       -10.3731 
  70   1.0000      -0.380792       -10.3619 
  71   1.0000      -0.380683       -10.3589 
  72   1.0000      -0.375491       -10.2176 
  73   1.0000      -0.374520       -10.1912 
  74   1.0000      -0.369117       -10.0442 
  75   1.0000      -0.354356        -9.6425 
  76   1.0000      -0.353828        -9.6281 
  77   1.0000      -0.351966        -9.5775 
  78   1.0000      -0.350606        -9.5405 
  79   1.0000      -0.350030        -9.5248 
  80   1.0000      -0.346075        -9.4172 
  81   1.0000      -0.345077        -9.3900 
  82   1.0000      -0.344997        -9.3879 
  83   1.0000      -0.341360        -9.2889 
  84   1.0000      -0.341084        -9.2814 
  85   1.0000      -0.338692        -9.2163 
  86   1.0000      -0.334266        -9.0958 
  87   1.0000      -0.333993        -9.0884 
  88   1.0000      -0.333222        -9.0674 
  89   1.0000      -0.327420        -8.9096 
  90   1.0000      -0.324151        -8.8206 
  91   1.0000      -0.323139        -8.7931 
  92   1.0000      -0.321483        -8.7480 
  93   1.0000      -0.318858        -8.6766 
  94   1.0000      -0.317291        -8.6339 
  95   1.0000      -0.310751        -8.4560 
  96   1.0000      -0.310360        -8.4453 
  97   1.0000      -0.308048        -8.3824 
  98   1.0000      -0.303345        -8.2544 
  99   1.0000      -0.303196        -8.2504 
 100   1.0000      -0.302859        -8.2412 
 101   1.0000      -0.301991        -8.2176 
 102   1.0000      -0.300120        -8.1667 
 103   1.0000      -0.299048        -8.1375 
 104   1.0000      -0.294950        -8.0260 
 105   1.0000      -0.288897        -7.8613 
 106   1.0000      -0.285651        -7.7730 
 107   1.0000      -0.283830        -7.7234 
 108   1.0000      -0.282148        -7.6776 
 109   1.0000      -0.278244        -7.5714 
 110   1.0000      -0.277532        -7.5520 
 111   1.0000      -0.275477        -7.4961 
 112   1.0000      -0.275154        -7.4873 
 113   1.0000      -0.272399        -7.4124 
 114   1.0000      -0.271148        -7.3783 
 115   1.0000      -0.270698        -7.3661 
 116   1.0000      -0.270509        -7.3609 
 117   1.0000      -0.269047        -7.3211 
 118   1.0000      -0.267904        -7.2900 
 119   1.0000      -0.266807        -7.2602 
 120   1.0000      -0.266396        -7.2490 
 121   1.0000      -0.264115        -7.1869 
 122   1.0000      -0.264007        -7.1840 
 123   1.0000      -0.263882        -7.1806 
 124   1.0000      -0.261144        -7.1061 
 125   1.0000      -0.259379        -7.0581 
 126   1.0000      -0.259192        -7.0530 
 127   1.0000      -0.258334        -7.0296 
 128   1.0000      -0.258051        -7.0219 
 129   1.0000      -0.256878        -6.9900 
 130   1.0000      -0.255772        -6.9599 
 131   1.0000      -0.254779        -6.9329 
 132   1.0000      -0.253170        -6.8891 
 133   1.0000      -0.252068        -6.8591 
 134   1.0000      -0.251081        -6.8323 
 135   1.0000      -0.249839        -6.7985 
 136   1.0000      -0.248809        -6.7704 
 137   1.0000      -0.248249        -6.7552 
 138   1.0000      -0.246941        -6.7196 
 139   1.0000      -0.246074        -6.6960 
 140   1.0000      -0.244967        -6.6659 
 141   1.0000      -0.241559        -6.5732 
 142   1.0000      -0.233375        -6.3504 
 143   1.0000      -0.233170        -6.3449 
 144   1.0000      -0.224217        -6.1013 
 145   1.0000      -0.203737        -5.5440 
 146   1.0000      -0.190273        -5.1776 
 147   1.0000      -0.188827        -5.1382 
 148   0.0000      -0.181327        -4.9342 
 149   0.0000      -0.146395        -3.9836 
 150   0.0000      -0.138917        -3.7801 
 151   0.0000      -0.121073        -3.2946 
 152   0.0000      -0.119904        -3.2628 
 153   0.0000      -0.114965        -3.1284 
 154   0.0000      -0.105262        -2.8643 
 155   0.0000      -0.066524        -1.8102 
 156   0.0000      -0.065087        -1.7711 
 157   0.0000      -0.064739        -1.7616 
 158   0.0000      -0.063248        -1.7211 
 159   0.0000      -0.057756        -1.5716 
 160   0.0000      -0.052212        -1.4208 
 161   0.0000      -0.036094        -0.9822 
 162   0.0000      -0.024893        -0.6774 
 163   0.0000      -0.023731        -0.6458 
 164   0.0000      -0.012039        -0.3276 
 165   0.0000      -0.011237        -0.3058 
 166   0.0000      -0.009582        -0.2607 
 167   0.0000       0.028669         0.7801 
 168   0.0000       0.031607         0.8601 
 169   0.0000       0.031770         0.8645 
 170   0.0000       0.037241         1.0134 
 171   0.0000       0.037962         1.0330 
 172   0.0000       0.044008         1.1975 
 173   0.0000       0.045938         1.2500 
 174   0.0000       0.047372         1.2891 
 175   0.0000       0.049668         1.3515 
 176   0.0000       0.058329         1.5872 
 177   0.0000       0.061051         1.6613 
 178   0.0000       0.065833         1.7914 
 179   0.0000       0.067738         1.8432 
 180   0.0000       0.076739         2.0882 
 181   0.0000       0.077047         2.0966 
 182   0.0000       0.079326         2.1586 
 183   0.0000       0.085010         2.3132 
 184   0.0000       0.087132         2.3710 
 185   0.0000       0.088625         2.4116 
 186   0.0000       0.095440         2.5971 
 187   0.0000       0.109102         2.9688 
 188   0.0000       0.113935         3.1003 
 189   0.0000       0.117186         3.1888 
 190   0.0000       0.123884         3.3710 
 191   0.0000       0.131462         3.5773 
 192   0.0000       0.135901         3.6980 
 193   0.0000       0.140794         3.8312 
 194   0.0000       0.142432         3.8758 
 195   0.0000       0.145380         3.9560 
 196   0.0000       0.150596         4.0979 
 197   0.0000       0.162572         4.4238 
 198   0.0000       0.167141         4.5481 
 199   0.0000       0.168761         4.5922 
 200   0.0000       0.171851         4.6763 
 201   0.0000       0.172917         4.7053 
 202   0.0000       0.175091         4.7645 
 203   0.0000       0.175746         4.7823 
 204   0.0000       0.178406         4.8547 
 205   0.0000       0.179274         4.8783 
 206   0.0000       0.205987         5.6052 
 207   0.0000       0.206486         5.6188 
 208   0.0000       0.209311         5.6956 
 209   0.0000       0.211627         5.7587 
 210   0.0000       0.217135         5.9085 
 211   0.0000       0.217978         5.9315 
 212   0.0000       0.221551         6.0287 
 213   0.0000       0.226235         6.1562 
 214   0.0000       0.228642         6.2217 
 215   0.0000       0.231845         6.3088 
 216   0.0000       0.237887         6.4732 
 217   0.0000       0.240823         6.5531 
 218   0.0000       0.247803         6.7431 
 219   0.0000       0.248171         6.7531 
 220   0.0000       0.249562         6.7909 
 221   0.0000       0.267245         7.2721 
 222   0.0000       0.271286         7.3821 
 223   0.0000       0.273907         7.4534 
 224   0.0000       0.279391         7.6026 
 225   0.0000       0.282287         7.6814 
 226   0.0000       0.282386         7.6841 
 227   0.0000       0.292346         7.9551 
 228   0.0000       0.294963         8.0264 
 229   0.0000       0.299640         8.1536 
 230   0.0000       0.303812         8.2671 
 231   0.0000       0.311215         8.4686 
 232   0.0000       0.318005         8.6534 
 233   0.0000       0.326011         8.8712 
 234   0.0000       0.327463         8.9107 
 235   0.0000       0.329920         8.9776 
 236   0.0000       0.332142         9.0380 
 237   0.0000       0.334102         9.0914 
 238   0.0000       0.334610         9.1052 
 239   0.0000       0.350732         9.5439 
 240   0.0000       0.358980         9.7683 
 241   0.0000       0.361756         9.8439 
 242   0.0000       0.362802         9.8723 
 243   0.0000       0.364577         9.9207 
 244   0.0000       0.371400        10.1063 
 245   0.0000       0.372764        10.1434 
 246   0.0000       0.375033        10.2052 
 247   0.0000       0.381818        10.3898 
 248   0.0000       0.382598        10.4110 
 249   0.0000       0.387726        10.5506 
 250   0.0000       0.388098        10.5607 
 251   0.0000       0.406159        11.0522 
 252   0.0000       0.406757        11.0684 
 253   0.0000       0.420188        11.4339 
 254   0.0000       0.420722        11.4484 
 255   0.0000       0.428120        11.6497 
 256   0.0000       0.430151        11.7050 
 257   0.0000       0.430361        11.7107 
 258   0.0000       0.443734        12.0746 
 259   0.0000       0.457008        12.4358 
 260   0.0000       0.458044        12.4640 
 261   0.0000       0.461095        12.5470 
 262   0.0000       0.461612        12.5611 
 263   0.0000       0.466687        12.6992 
 264   0.0000       0.468996        12.7620 
 265   0.0000       0.470506        12.8031 
 266   0.0000       0.474607        12.9147 
 267   0.0000       0.475980        12.9521 
 268   0.0000       0.477113        12.9829 
 269   0.0000       0.484013        13.1707 
 270   0.0000       0.485891        13.2218 
 271   0.0000       0.491026        13.3615 
 272   0.0000       0.493301        13.4234 
 273   0.0000       0.497726        13.5438 
 274   0.0000       0.497959        13.5502 
 275   0.0000       0.509543        13.8654 
 276   0.0000       0.511911        13.9298 
 277   0.0000       0.513379        13.9698 
 278   0.0000       0.515798        14.0356 
 279   0.0000       0.516327        14.0500 
 280   0.0000       0.523421        14.2430 
 281   0.0000       0.527385        14.3509 
 282   0.0000       0.542858        14.7719 
 283   0.0000       0.546372        14.8675 
 284   0.0000       0.550939        14.9918 
 285   0.0000       0.552430        15.0324 
 286   0.0000       0.557110        15.1597 
 287   0.0000       0.563611        15.3366 
 288   0.0000       0.580351        15.7921 
 289   0.0000       0.592681        16.1277 
 290   0.0000       0.598202        16.2779 
 291   0.0000       0.637501        17.3473 
 292   0.0000       0.648999        17.6601 
 293   0.0000       0.654101        17.7990 
 294   0.0000       0.674519        18.3546 
 295   0.0000       0.676037        18.3959 
 296   0.0000       0.679564        18.4919 
 297   0.0000       0.688772        18.7424 
 298   0.0000       0.690876        18.7997 
 299   0.0000       0.692670        18.8485 
 300   0.0000       0.704572        19.1724 
 301   0.0000       0.710302        19.3283 
 302   0.0000       0.710327        19.3290 
 303   0.0000       0.721070        19.6213 
 304   0.0000       0.736651        20.0453 
 305   0.0000       0.760576        20.6963 
 306   0.0000       0.761313        20.7164 
 307   0.0000       0.767472        20.8840 
 308   0.0000       0.771744        21.0002 
 309   0.0000       0.781916        21.2770 
 310   0.0000       0.795322        21.6418 
 311   0.0000       0.801395        21.8071 
 312   0.0000       0.802015        21.8239 
 313   0.0000       0.842908        22.9367 
 314   0.0000       0.865596        23.5541 
 315   0.0000       0.872435        23.7402 
 316   0.0000       0.876603        23.8536 
 317   0.0000       0.881196        23.9786 
 318   0.0000       0.903484        24.5850 
 319   0.0000       0.905195        24.6316 
 320   0.0000       0.906966        24.6798 
 321   0.0000       0.909317        24.7438 
 322   0.0000       0.913591        24.8601 
 323   0.0000       0.915737        24.9185 
 324   0.0000       0.922707        25.1081 
 325   0.0000       0.933799        25.4100 
 326   0.0000       0.941613        25.6226 
 327   0.0000       0.948264        25.8036 
 328   0.0000       0.953549        25.9474 
 329   0.0000       1.007373        27.4120 
 330   0.0000       1.108256        30.1572 
 331   0.0000       1.150372        31.3032 
 332   0.0000       1.178475        32.0679 
 333   0.0000       1.178674        32.0734 
 334   0.0000       1.185781        32.2667 
 335   0.0000       1.211265        32.9602 
 336   0.0000       1.213967        33.0337 
 337   0.0000       1.229779        33.4640 
 338   0.0000       1.230853        33.4932 
 339   0.0000       1.243698        33.8428 
 340   0.0000       1.257351        34.2143 
 341   0.0000       1.269223        34.5373 
 342   0.0000       1.272732        34.6328 
 343   0.0000       1.278498        34.7897 
 344   0.0000       1.283006        34.9124 
 345   0.0000       1.302702        35.4483 
 346   0.0000       1.307171        35.5699 
 347   0.0000       1.312268        35.7086 
 348   0.0000       1.328810        36.1588 
 349   0.0000       1.329824        36.1863 
 350   0.0000       1.346185        36.6316 
 351   0.0000       1.347318        36.6624 
 352   0.0000       1.349081        36.7104 
 353   0.0000       1.352396        36.8006 
 354   0.0000       1.358721        36.9727 
 355   0.0000       1.368994        37.2522 
 356   0.0000       1.375481        37.4287 
 357   0.0000       1.379417        37.5359 
 358   0.0000       1.387490        37.7555 
 359   0.0000       1.395602        37.9763 
 360   0.0000       1.400212        38.1017 
 361   0.0000       1.401923        38.1483 
 362   0.0000       1.402692        38.1692 
 363   0.0000       1.408783        38.3349 
 364   0.0000       1.417122        38.5619 
 365   0.0000       1.417902        38.5831 
 366   0.0000       1.419550        38.6279 
 367   0.0000       1.423618        38.7386 
 368   0.0000       1.432750        38.9871 
 369   0.0000       1.437811        39.1248 
 370   0.0000       1.442551        39.2538 
 371   0.0000       1.443737        39.2861 
 372   0.0000       1.444580        39.3090 
 373   0.0000       1.446653        39.3654 
 374   0.0000       1.451648        39.5013 
 375   0.0000       1.453329        39.5471 
 376   0.0000       1.457815        39.6692 
 377   0.0000       1.458324        39.6830 
 378   0.0000       1.460219        39.7346 
 379   0.0000       1.462555        39.7981 
 380   0.0000       1.465661        39.8827 
 381   0.0000       1.474367        40.1196 
 382   0.0000       1.475611        40.1534 
 383   0.0000       1.476468        40.1767 
 384   0.0000       1.477634        40.2085 
 385   0.0000       1.483409        40.3656 
 386   0.0000       1.484130        40.3852 
 387   0.0000       1.484588        40.3977 
 388   0.0000       1.486142        40.4400 
 389   0.0000       1.487453        40.4757 
 390   0.0000       1.487925        40.4885 
 391   0.0000       1.489509        40.5316 
 392   0.0000       1.489796        40.5394 
 393   0.0000       1.490657        40.5628 
 394   0.0000       1.492600        40.6157 
 395   0.0000       1.494523        40.6680 
 396   0.0000       1.498413        40.7739 
 397   0.0000       1.499000        40.7899 
 398   0.0000       1.499233        40.7962 
 399   0.0000       1.499429        40.8015 
 400   0.0000       1.500174        40.8218 
 401   0.0000       1.500556        40.8322 
 402   0.0000       1.502465        40.8841 
 403   0.0000       1.502902        40.8961 
 404   0.0000       1.506059        40.9820 
 405   0.0000       1.507866        41.0311 
 406   0.0000       1.508538        41.0494 
 407   0.0000       1.509074        41.0640 
 408   0.0000       1.510289        41.0971 
 409   0.0000       1.510716        41.1087 
 410   0.0000       1.514002        41.1981 
 411   0.0000       1.515495        41.2387 
 412   0.0000       1.516339        41.2617 
 413   0.0000       1.517906        41.3043 
 414   0.0000       1.518097        41.3095 
 415   0.0000       1.519812        41.3562 
 416   0.0000       1.520084        41.3636 
 417   0.0000       1.523469        41.4557 
 418   0.0000       1.526385        41.5350 
 419   0.0000       1.526612        41.5412 
 420   0.0000       1.527571        41.5673 
 421   0.0000       1.532670        41.7061 
 422   0.0000       1.534026        41.7430 
 423   0.0000       1.541356        41.9424 
 424   0.0000       1.542934        41.9854 
 425   0.0000       1.544626        42.0314 
 426   0.0000       1.546334        42.0779 
 427   0.0000       1.549513        42.1644 
 428   0.0000       1.550179        42.1825 
 429   0.0000       1.553841        42.2822 
 430   0.0000       1.555024        42.3144 
 431   0.0000       1.555820        42.3360 
 432   0.0000       1.557751        42.3886 
 433   0.0000       1.559823        42.4449 
 434   0.0000       1.562729        42.5240 
 435   0.0000       1.563252        42.5382 
 436   0.0000       1.566391        42.6237 
 437   0.0000       1.567569        42.6557 
 438   0.0000       1.570341        42.7312 
 439   0.0000       1.572693        42.7951 
 440   0.0000       1.578518        42.9536 
 441   0.0000       1.579636        42.9841 
 442   0.0000       1.580764        43.0148 
 443   0.0000       1.581812        43.0433 
 444   0.0000       1.584853        43.1260 
 445   0.0000       1.586156        43.1615 
 446   0.0000       1.587040        43.1855 
 447   0.0000       1.593366        43.3577 
 448   0.0000       1.594942        43.4006 
 449   0.0000       1.599455        43.5234 
 450   0.0000       1.604942        43.6727 
 451   0.0000       1.608705        43.7751 
 452   0.0000       1.609596        43.7993 
 453   0.0000       1.609756        43.8037 
 454   0.0000       1.612083        43.8670 
 455   0.0000       1.614752        43.9396 
 456   0.0000       1.622079        44.1390 
 457   0.0000       1.623629        44.1812 
 458   0.0000       1.629776        44.3485 
 459   0.0000       1.634523        44.4776 
 460   0.0000       1.636809        44.5398 
 461   0.0000       1.636919        44.5428 
 462   0.0000       1.638776        44.5934 
 463   0.0000       1.654758        45.0283 
 464   0.0000       1.655930        45.0602 
 465   0.0000       1.659055        45.1452 
 466   0.0000       1.666828        45.3567 
 467   0.0000       1.666948        45.3599 
 468   0.0000       1.671878        45.4941 
 469   0.0000       1.686095        45.8810 
 470   0.0000       1.690751        46.0077 
 471   0.0000       1.698038        46.2060 
 472   0.0000       1.703594        46.3572 
 473   0.0000       1.711297        46.5667 
 474   0.0000       1.714345        46.6497 
 475   0.0000       1.723657        46.9031 
 476   0.0000       1.741471        47.3878 
 477   0.0000       1.745780        47.5051 
 478   0.0000       1.750642        47.6374 
 479   0.0000       1.756688        47.8019 
 480   0.0000       1.758368        47.8476 
 481   0.0000       1.762831        47.9691 
 482   0.0000       1.768234        48.1161 
 483   0.0000       1.773763        48.2665 
 484   0.0000       1.776342        48.3367 
 485   0.0000       1.784456        48.5575 
 486   0.0000       1.791657        48.7535 
 487   0.0000       1.794081        48.8194 
 488   0.0000       1.794956        48.8432 
 489   0.0000       1.808685        49.2168 
 490   0.0000       1.812020        49.3076 
 491   0.0000       1.825462        49.6734 
 492   0.0000       1.844124        50.1812 
 493   0.0000       1.865896        50.7736 
 494   0.0000       1.879809        51.1522 
 495   0.0000       1.902876        51.7799 
 496   0.0000       1.905150        51.8418 
 497   0.0000       1.911181        52.0059 
 498   0.0000       1.930715        52.5374 
 499   0.0000       1.954085        53.1734 
 500   0.0000       2.121413        57.7266 
 501   0.0000       2.130270        57.9676 
 502   0.0000       2.135239        58.1028 
 503   0.0000       2.139707        58.2244 
 504   0.0000       2.163293        58.8662 
 505   0.0000       2.216988        60.3273 
 506   0.0000       2.264688        61.6253 
 507   0.0000       2.293219        62.4017 
 508   0.0000       2.310591        62.8744 
 509   0.0000       2.377801        64.7033 
 510   0.0000       2.428248        66.0760 
 511   0.0000       2.473212        67.2995 
 512   0.0000       2.479086        67.4594 
 513   0.0000       2.480674        67.5026 
 514   0.0000       2.481619        67.5283 
 515   0.0000       2.499177        68.0061 
 516   0.0000       2.516934        68.4892 
 517   0.0000       2.541032        69.1450 
 518   0.0000       2.560523        69.6754 
 519   0.0000       2.565998        69.8243 
 520   0.0000       2.589423        70.4618 
 521   0.0000       2.632476        71.6333 
 522   0.0000       3.431278        93.3698 
 523   0.0000       3.646545        99.2275 
 524   0.0000       3.667061        99.7858 
 525   0.0000       3.675103       100.0046 
 526   0.0000       3.719485       101.2123 
 527   0.0000       3.725692       101.3812 
 528   0.0000       3.886463       105.7560 
 529   0.0000       3.891751       105.8999 
 530   0.0000       3.894418       105.9725 
 531   0.0000       3.900766       106.1452 
 532   0.0000       3.901451       106.1639 
 533   0.0000       3.905471       106.2733 
 534   0.0000       3.906251       106.2945 
 535   0.0000      23.722143       645.5123 
 536   0.0000      23.799205       647.6093 
 537   0.0000      23.893880       650.1855 
 538   0.0000      24.027696       653.8269 
 539   0.0000      24.431387       664.8118 
 540   0.0000      24.577553       668.7892 
 541   0.0000      24.868687       676.7114 
 542   0.0000      24.899881       677.5602 
 543   0.0000      25.033245       681.1892 
 544   0.0000      25.139525       684.0813 
 545   0.0000      25.176210       685.0795 
 546   0.0000      25.286894       688.0914 
 547   0.0000      25.347605       689.7434 
 548   0.0000      25.523770       694.5371 
 549   0.0000      25.733751       700.2510 
 550   0.0000      25.797383       701.9825 
 551   0.0000      25.841258       703.1764 
 552   0.0000      26.065258       709.2717 
 553   0.0000      26.272193       714.9027 
 554   0.0000      26.327894       716.4184 
 555   0.0000      26.369314       717.5455 
 556   0.0000      26.488795       720.7967 
 557   0.0000      26.510220       721.3798 
 558   0.0000      26.536639       722.0986 
 559   0.0000      26.574153       723.1195 
 560   0.0000      26.784396       728.8405 
 561   0.0000      26.862368       730.9622 
 562   0.0000      26.938713       733.0396 
 563   0.0000      27.382927       745.1273 
 564   0.0000      27.427545       746.3414 
 565   0.0000      27.544591       749.5264 
 566   0.0000      27.597636       750.9699 
 567   0.0000      27.800673       756.4948 
 568   0.0000      27.833048       757.3758 
 569   0.0000      27.924048       759.8520 
 570   0.0000      28.359481       771.7007 
 571   0.0000      30.056636       817.8826 
 572   0.0000      30.235344       822.7455 
 573   0.0000      30.335761       825.4780 
 574   0.0000      30.559269       831.5600 
 575   0.0000      30.972360       842.8008 
 576   0.0000      33.882659       921.9940 
 577   0.0000      43.935210      1195.5378 
 578   0.0000      44.015489      1197.7224 
 579   0.0000      44.068006      1199.1514 
 580   0.0000      44.082189      1199.5373 
 581   0.0000      44.112909      1200.3733 
 582   0.0000      44.134049      1200.9485 
 583   0.0000      44.137494      1201.0423 
 584   0.0000      44.158065      1201.6021 
 585   0.0000      44.163727      1201.7561 
 586   0.0000      44.164907      1201.7882 
 587   0.0000      44.171975      1201.9805 
 588   0.0000      44.198967      1202.7150 
 589   0.0000      44.256817      1204.2892 
 590   0.0000      44.268502      1204.6072 
 591   0.0000     205.093054      5580.8657 
 592   0.0000     205.138020      5582.0893 
 593   0.0000     205.154834      5582.5469 
 594   0.0000     205.160760      5582.7081 
 595   0.0000     205.171973      5583.0132 
 596   0.0000     205.189675      5583.4949 
 597   0.0000     205.193353      5583.5950 
 598   0.0000     205.195482      5583.6529 
 599   0.0000     205.199425      5583.7602 
 600   0.0000     205.200594      5583.7920 
 601   0.0000     205.204199      5583.8901 
 602   0.0000     205.211223      5584.0813 
 603   0.0000     205.233655      5584.6917 
 604   0.0000     205.236668      5584.7736 

                 SPIN DOWN ORBITALS
  NO   OCC          E(Eh)            E(eV) 
   0   1.0000    -254.772319     -6932.7073 
   1   1.0000     -29.552765      -804.1716 
   2   1.0000     -25.504470      -694.0119 
   3   1.0000     -25.502584      -693.9606 
   4   1.0000     -25.500994      -693.9173 
   5   1.0000      -4.033672      -109.7618 
   6   1.0000      -4.033147      -109.7475 
   7   1.0000      -4.031888      -109.7132 
   8   1.0000      -4.031665      -109.7072 
   9   1.0000      -4.027054      -109.5817 
  10   1.0000      -4.026637      -109.5704 
  11   1.0000      -4.026582      -109.5689 
  12   1.0000      -4.026580      -109.5688 
  13   1.0000      -4.026474      -109.5659 
  14   1.0000      -4.026069      -109.5549 
  15   1.0000      -4.020206      -109.3954 
  16   1.0000      -4.019966      -109.3888 
  17   1.0000      -4.019663      -109.3806 
  18   1.0000      -4.019582      -109.3784 
  19   1.0000      -3.255188       -88.5782 
  20   1.0000      -2.252038       -61.2811 
  21   1.0000      -2.248740       -61.1913 
  22   1.0000      -2.248399       -61.1821 
  23   1.0000      -2.247676       -61.1624 
  24   1.0000      -2.247392       -61.1546 
  25   1.0000      -2.247222       -61.1500 
  26   1.0000      -2.245236       -61.0960 
  27   1.0000      -2.244588       -61.0784 
  28   1.0000      -2.243566       -61.0505 
  29   1.0000      -2.243153       -61.0393 
  30   1.0000      -2.242979       -61.0346 
  31   1.0000      -2.242697       -61.0269 
  32   1.0000      -2.242507       -61.0217 
  33   1.0000      -2.242326       -61.0168 
  34   1.0000      -2.242103       -61.0107 
  35   1.0000      -2.242092       -61.0104 
  36   1.0000      -2.241345       -60.9901 
  37   1.0000      -2.241035       -60.9817 
  38   1.0000      -2.239119       -60.9295 
  39   1.0000      -2.239004       -60.9264 
  40   1.0000      -2.238604       -60.9155 
  41   1.0000      -2.238581       -60.9149 
  42   1.0000      -2.238258       -60.9061 
  43   1.0000      -2.238064       -60.9008 
  44   1.0000      -2.237614       -60.8886 
  45   1.0000      -2.237548       -60.8868 
  46   1.0000      -2.236723       -60.8643 
  47   1.0000      -2.236166       -60.8492 
  48   1.0000      -2.236055       -60.8461 
  49   1.0000      -2.235746       -60.8377 
  50   1.0000      -2.235613       -60.8341 
  51   1.0000      -2.235494       -60.8309 
  52   1.0000      -2.234594       -60.8064 
  53   1.0000      -2.233875       -60.7868 
  54   1.0000      -2.231989       -60.7355 
  55   1.0000      -2.231913       -60.7334 
  56   1.0000      -2.231594       -60.7247 
  57   1.0000      -2.231463       -60.7212 
  58   1.0000      -2.231294       -60.7166 
  59   1.0000      -2.230781       -60.7026 
  60   1.0000      -2.230478       -60.6944 
  61   1.0000      -2.229804       -60.6761 
  62   1.0000      -2.072761       -56.4027 
  63   1.0000      -2.071625       -56.3718 
  64   1.0000      -2.070048       -56.3289 
  65   1.0000      -0.439536       -11.9604 
  66   1.0000      -0.392014       -10.6672 
  67   1.0000      -0.389462       -10.5978 
  68   1.0000      -0.387676       -10.5492 
  69   1.0000      -0.376087       -10.2338 
  70   1.0000      -0.372402       -10.1336 
  71   1.0000      -0.371464       -10.1081 
  72   1.0000      -0.365262        -9.9393 
  73   1.0000      -0.364380        -9.9153 
  74   1.0000      -0.360233        -9.8024 
  75   1.0000      -0.353914        -9.6305 
  76   1.0000      -0.350531        -9.5384 
  77   1.0000      -0.350061        -9.5256 
  78   1.0000      -0.349031        -9.4976 
  79   1.0000      -0.346511        -9.4290 
  80   1.0000      -0.345547        -9.4028 
  81   1.0000      -0.343818        -9.3558 
  82   1.0000      -0.340533        -9.2664 
  83   1.0000      -0.340176        -9.2567 
  84   1.0000      -0.338188        -9.2026 
  85   1.0000      -0.337338        -9.1794 
  86   1.0000      -0.333873        -9.0851 
  87   1.0000      -0.333078        -9.0635 
  88   1.0000      -0.331595        -9.0232 
  89   1.0000      -0.326211        -8.8767 
  90   1.0000      -0.320403        -8.7186 
  91   1.0000      -0.320266        -8.7149 
  92   1.0000      -0.318238        -8.6597 
  93   1.0000      -0.317274        -8.6335 
  94   1.0000      -0.313704        -8.5363 
  95   1.0000      -0.309572        -8.4239 
  96   1.0000      -0.303998        -8.2722 
  97   1.0000      -0.303144        -8.2490 
  98   1.0000      -0.300338        -8.1726 
  99   1.0000      -0.299737        -8.1563 
 100   1.0000      -0.297830        -8.1044 
 101   1.0000      -0.290889        -7.9155 
 102   1.0000      -0.290009        -7.8915 
 103   1.0000      -0.289298        -7.8722 
 104   1.0000      -0.287525        -7.8239 
 105   1.0000      -0.283894        -7.7251 
 106   1.0000      -0.282027        -7.6743 
 107   1.0000      -0.278603        -7.5812 
 108   1.0000      -0.277210        -7.5433 
 109   1.0000      -0.276581        -7.5262 
 110   1.0000      -0.274239        -7.4624 
 111   1.0000      -0.273149        -7.4328 
 112   1.0000      -0.271391        -7.3849 
 113   1.0000      -0.271276        -7.3818 
 114   1.0000      -0.269483        -7.3330 
 115   1.0000      -0.269220        -7.3258 
 116   1.0000      -0.268330        -7.3016 
 117   1.0000      -0.267018        -7.2659 
 118   1.0000      -0.265682        -7.2296 
 119   1.0000      -0.265559        -7.2262 
 120   1.0000      -0.265410        -7.2222 
 121   1.0000      -0.263037        -7.1576 
 122   1.0000      -0.261956        -7.1282 
 123   1.0000      -0.260208        -7.0806 
 124   1.0000      -0.259702        -7.0668 
 125   1.0000      -0.258229        -7.0268 
 126   1.0000      -0.257496        -7.0068 
 127   1.0000      -0.254899        -6.9362 
 128   1.0000      -0.252414        -6.8685 
 129   1.0000      -0.251461        -6.8426 
 130   1.0000      -0.251139        -6.8338 
 131   1.0000      -0.248594        -6.7646 
 132   1.0000      -0.247860        -6.7446 
 133   1.0000      -0.246539        -6.7087 
 134   1.0000      -0.244803        -6.6614 
 135   1.0000      -0.243746        -6.6327 
 136   1.0000      -0.240981        -6.5574 
 137   1.0000      -0.233779        -6.3615 
 138   1.0000      -0.233383        -6.3507 
 139   1.0000      -0.227474        -6.1899 
 140   1.0000      -0.209247        -5.6939 
 141   1.0000      -0.204129        -5.5546 
 142   1.0000      -0.203393        -5.5346 
 143   1.0000      -0.199671        -5.4333 
 144   0.0000      -0.171412        -4.6644 
 145   0.0000      -0.169073        -4.6007 
 146   0.0000      -0.163604        -4.4519 
 147   0.0000      -0.158651        -4.3171 
 148   0.0000      -0.157996        -4.2993 
 149   0.0000      -0.139161        -3.7868 
 150   0.0000      -0.135166        -3.6781 
 151   0.0000      -0.118433        -3.2227 
 152   0.0000      -0.116654        -3.1743 
 153   0.0000      -0.111496        -3.0340 
 154   0.0000      -0.102068        -2.7774 
 155   0.0000      -0.065156        -1.7730 
 156   0.0000      -0.063761        -1.7350 
 157   0.0000      -0.060975        -1.6592 
 158   0.0000      -0.059240        -1.6120 
 159   0.0000      -0.057347        -1.5605 
 160   0.0000      -0.049587        -1.3493 
 161   0.0000      -0.031006        -0.8437 
 162   0.0000      -0.021353        -0.5810 
 163   0.0000      -0.019819        -0.5393 
 164   0.0000      -0.006902        -0.1878 
 165   0.0000      -0.006784        -0.1846 
 166   0.0000      -0.006574        -0.1789 
 167   0.0000       0.031270         0.8509 
 168   0.0000       0.033799         0.9197 
 169   0.0000       0.035546         0.9672 
 170   0.0000       0.039401         1.0722 
 171   0.0000       0.041488         1.1289 
 172   0.0000       0.047566         1.2943 
 173   0.0000       0.048159         1.3105 
 174   0.0000       0.048873         1.3299 
 175   0.0000       0.049794         1.3550 
 176   0.0000       0.061193         1.6652 
 177   0.0000       0.064132         1.7451 
 178   0.0000       0.068188         1.8555 
 179   0.0000       0.070158         1.9091 
 180   0.0000       0.079701         2.1688 
 181   0.0000       0.080098         2.1796 
 182   0.0000       0.080834         2.1996 
 183   0.0000       0.087923         2.3925 
 184   0.0000       0.089282         2.4295 
 185   0.0000       0.090163         2.4535 
 186   0.0000       0.098067         2.6685 
 187   0.0000       0.111271         3.0278 
[...]
      f+2     :     0.001072
      f-2     :     0.000776
      f+3     :     0.001074
      f-3     :     0.000927
  5 Aus       :     2.508161  s :     2.508161
      pz      :     2.210039  p :     6.478886
      px      :     2.167072
      py      :     2.101776
      dz2     :     1.990087  d :     9.891129
      dxz     :     1.987164
      dyz     :     1.970064
      dx2y2   :     1.958511
      dxy     :     1.985303
      f0      :     0.000936  f :     0.005884
      f+1     :     0.000740
      f-1     :     0.000780
      f+2     :     0.000860
      f-2     :     0.000800
      f+3     :     0.000742
      f-3     :     0.001025
  6 Aus       :     2.509480  s :     2.509480
      pz      :     2.159178  p :     6.578394
      px      :     2.199050
      py      :     2.220166
      dz2     :     2.001830  d :     9.909159
      dxz     :     1.959649
      dyz     :     1.980540
      dx2y2   :     1.988680
      dxy     :     1.978460
      f0      :     0.000833  f :     0.006221
      f+1     :     0.000783
      f-1     :     0.000962
      f+2     :     0.000565
      f-2     :     0.000806
      f+3     :     0.001251
      f-3     :     0.001022
  7 Aus       :     2.557134  s :     2.557134
      pz      :     2.173630  p :     6.588161
      px      :     2.274879
      py      :     2.139652
      dz2     :     1.979776  d :     9.854020
      dxz     :     1.965741
      dyz     :     1.977744
      dx2y2   :     1.972746
      dxy     :     1.958013
      f0      :     0.000828  f :     0.006783
      f+1     :     0.000983
      f-1     :     0.000473
      f+2     :     0.001336
      f-2     :     0.000880
      f+3     :     0.001190
      f-3     :     0.001093
  8 Aus       :     2.517464  s :     2.517464
      pz      :     2.091765  p :     6.471576
      px      :     2.156225
      py      :     2.223587
      dz2     :     1.946337  d :     9.889507
      dxz     :     1.974433
      dyz     :     1.997171
      dx2y2   :     1.985222
      dxy     :     1.986344
      f0      :     0.000865  f :     0.005791
      f+1     :     0.000845
      f-1     :     0.000787
      f+2     :     0.001014
      f-2     :     0.000908
      f+3     :     0.000772
      f-3     :     0.000600
  9 Aus       :     2.496301  s :     2.496301
      pz      :     2.228033  p :     6.557572
      px      :     2.228323
      py      :     2.101216
      dz2     :     1.976015  d :     9.860610
      dxz     :     1.973274
      dyz     :     1.977692
      dx2y2   :     1.951991
      dxy     :     1.981637
      f0      :     0.000954  f :     0.006686
      f+1     :     0.000845
      f-1     :     0.000861
      f+2     :     0.000965
      f-2     :     0.000958
      f+3     :     0.000855
      f-3     :     0.001247
 10 Aus       :     2.558210  s :     2.558210
      pz      :     2.143333  p :     6.587909
      px      :     2.310994
      py      :     2.133583
      dz2     :     1.985734  d :     9.853522
      dxz     :     1.975047
      dyz     :     1.953805
      dx2y2   :     1.955285
      dxy     :     1.983652
      f0      :     0.000971  f :     0.006814
      f+1     :     0.001167
      f-1     :     0.000575
      f+2     :     0.000844
      f-2     :     0.000592
      f+3     :     0.001567
      f-3     :     0.001098
 11 Aus       :     2.773214  s :     2.773214
      pz      :     2.079672  p :     6.246944
      px      :     2.084739
      py      :     2.082532
      dz2     :     1.945036  d :     9.855604
      dxz     :     1.984760
      dyz     :     1.989954
      dx2y2   :     1.968641
      dxy     :     1.967213
      f0      :     0.000747  f :     0.004601
      f+1     :     0.000842
      f-1     :     0.000561
      f+2     :     0.000381
      f-2     :     0.000383
      f+3     :     0.000952
      f-3     :     0.000734
 12 Aus       :     2.509535  s :     2.509535
      pz      :     2.188282  p :     6.578723
      px      :     2.181771
      py      :     2.208670
      dz2     :     1.974973  d :     9.909062
      dxz     :     1.998839
      dyz     :     1.987513
      dx2y2   :     1.979561
      dxy     :     1.968175
      f0      :     0.000625  f :     0.006229
      f+1     :     0.000980
      f-1     :     0.000678
      f+2     :     0.000694
      f-2     :     0.001040
      f+3     :     0.001070
      f-3     :     0.001143
 13 Aus       :     2.772790  s :     2.772790
      pz      :     2.073155  p :     6.246415
      px      :     2.092519
      py      :     2.080741
      dz2     :     1.980034  d :     9.855603
      dxz     :     1.952002
      dyz     :     1.980293
      dx2y2   :     1.971339
      dxy     :     1.971936
      f0      :     0.000486  f :     0.004596
      f+1     :     0.000705
      f-1     :     0.000279
      f+2     :     0.000838
      f-2     :     0.000770
      f+3     :     0.000821
      f-3     :     0.000698
 14 Fes       :     6.260375  s :     6.260375
      pz      :     4.204018  p :    12.588252
      px      :     4.179852
      py      :     4.204381
      dz2     :     1.571672  d :     7.893817
      dxz     :     1.538641
      dyz     :     1.563666
      dx2y2   :     1.819199
      dxy     :     1.400640
      f0      :     0.000101  f :     0.000574
      f+1     :     0.000084
      f-1     :     0.000062
      f+2     :     0.000090
      f-2     :     0.000076
      f+3     :     0.000072
      f-3     :     0.000089

SPIN
  0 Aus       :    -0.056396  s :    -0.056396
      pz      :    -0.009813  p :    -0.025050
      px      :    -0.001266
      py      :    -0.013971
      dz2     :    -0.003800  d :    -0.014830
      dxz     :    -0.003500
      dyz     :    -0.008434
      dx2y2   :     0.005655
      dxy     :    -0.004751
      f0      :    -0.000021  f :     0.000012
      f+1     :     0.000026
      f-1     :     0.000005
      f+2     :    -0.000003
      f-2     :    -0.000023
      f+3     :     0.000015
      f-3     :     0.000014
  1 Aus       :     0.029071  s :     0.029071
      pz      :    -0.025174  p :    -0.033991
      px      :    -0.000536
      py      :    -0.008281
      dz2     :    -0.011823  d :    -0.014701
      dxz     :    -0.007862
      dyz     :     0.010214
      dx2y2   :    -0.003334
      dxy     :    -0.001896
      f0      :     0.000010  f :     0.000066
      f+1     :    -0.000030
      f-1     :     0.000024
      f+2     :     0.000028
      f-2     :     0.000047
      f+3     :     0.000013
      f-3     :    -0.000026
  2 Aus       :     0.029310  s :     0.029310
      pz      :    -0.027265  p :    -0.033908
      px      :     0.001716
      py      :    -0.008359
      dz2     :    -0.013260  d :    -0.014873
      dxz     :    -0.004499
      dyz     :     0.000586
      dx2y2   :    -0.005592
      dxy     :     0.007892
      f0      :     0.000007  f :     0.000065
      f+1     :    -0.000004
      f-1     :    -0.000001
      f+2     :    -0.000011
      f-2     :     0.000043
      f+3     :     0.000023
      f-3     :     0.000008
  3 Aus       :    -0.037651  s :    -0.037651
      pz      :    -0.004808  p :    -0.041622
      px      :    -0.037367
      py      :     0.000553
      dz2     :     0.010263  d :    -0.004074
      dxz     :    -0.001726
      dyz     :    -0.002555
      dx2y2   :    -0.005860
      dxy     :    -0.004196
      f0      :     0.000051  f :     0.000045
      f+1     :     0.000026
      f-1     :     0.000026
      f+2     :    -0.000028
      f-2     :    -0.000015
      f+3     :    -0.000011
      f-3     :    -0.000004
  4 Aus       :    -0.056810  s :    -0.056810
      pz      :    -0.012947  p :    -0.025002
      px      :     0.001682
      py      :    -0.013738
      dz2     :    -0.000806  d :    -0.014736
      dxz     :    -0.000072
      dyz     :    -0.005732
      dx2y2   :    -0.001453
      dxy     :    -0.006673
      f0      :    -0.000004  f :     0.000013
      f+1     :     0.000002
      f-1     :    -0.000013
      f+2     :     0.000036
      f-2     :     0.000012
      f+3     :    -0.000009
      f-3     :    -0.000012
  5 Aus       :    -0.056025  s :    -0.056025
      pz      :     0.005770  p :    -0.034716
      px      :    -0.031317
      py      :    -0.009169
      dz2     :     0.000264  d :     0.002000
      dxz     :    -0.001465
      dyz     :     0.003979
      dx2y2   :     0.006699
      dxy     :    -0.007476
      f0      :     0.000000  f :     0.000115
      f+1     :    -0.000012
      f-1     :     0.000021
      f+2     :     0.000046
      f-2     :    -0.000009
      f+3     :     0.000033
      f-3     :     0.000034
  6 Aus       :    -0.057823  s :    -0.057823
      pz      :    -0.011516  p :    -0.024227
      px      :     0.001469
      py      :    -0.014180
      dz2     :    -0.002357  d :    -0.014210
      dxz     :     0.003283
      dyz     :    -0.005711
      dx2y2   :    -0.001016
      dxy     :    -0.008409
      f0      :    -0.000009  f :     0.000012
      f+1     :     0.000016
      f-1     :    -0.000013
      f+2     :     0.000033
      f-2     :     0.000009
      f+3     :    -0.000018
      f-3     :    -0.000005
  7 Aus       :     0.023360  s :     0.023360
      pz      :    -0.024876  p :    -0.030665
      px      :     0.000282
      py      :    -0.006071
      dz2     :    -0.008190  d :     0.001352
      dxz     :    -0.001539
      dyz     :     0.002240
      dx2y2   :     0.002647
      dxy     :     0.006194
      f0      :     0.000015  f :     0.000085
      f+1     :    -0.000008
      f-1     :    -0.000010
      f+2     :    -0.000019
      f-2     :     0.000053
      f+3     :     0.000048
      f-3     :     0.000006
  8 Aus       :    -0.045322  s :    -0.045322
      pz      :    -0.005270  p :    -0.039882
      px      :    -0.033168
      py      :    -0.001445
      dz2     :     0.011056  d :     0.000420
      dxz     :     0.000154
      dyz     :    -0.002817
      dx2y2   :    -0.001699
      dxy     :    -0.006274
      f0      :     0.000060  f :     0.000102
      f+1     :     0.000054
      f-1     :     0.000028
      f+2     :    -0.000007
      f-2     :    -0.000021
      f+3     :    -0.000007
      f-3     :    -0.000006
  9 Aus       :    -0.044359  s :    -0.044359
      pz      :     0.007235  p :    -0.036665
      px      :    -0.036631
      py      :    -0.007269
      dz2     :    -0.000669  d :    -0.003891
      dxz     :    -0.001814
      dyz     :     0.002884
      dx2y2   :     0.005492
      dxy     :    -0.009784
      f0      :     0.000006  f :     0.000052
      f+1     :    -0.000008
      f-1     :     0.000014
      f+2     :     0.000037
      f-2     :    -0.000025
      f+3     :     0.000018
      f-3     :     0.000009
 10 Aus       :     0.023687  s :     0.023687
      pz      :    -0.024665  p :    -0.031032
      px      :     0.000019
      py      :    -0.006386
      dz2     :    -0.007882  d :     0.001067
      dxz     :    -0.007852
      dyz     :     0.010420
      dx2y2   :     0.010152
      dxy     :    -0.003770
      f0      :    -0.000007  f :     0.000080
      f+1     :    -0.000012
      f-1     :     0.000021
      f+2     :     0.000050
      f-2     :     0.000017
      f+3     :     0.000006
      f-3     :     0.000006
 11 Aus       :    -0.007943  s :    -0.007943
      pz      :    -0.015442  p :    -0.024957
      px      :    -0.003453
      py      :    -0.006062
      dz2     :    -0.018881  d :    -0.035369
      dxz     :    -0.006561
      dyz     :    -0.000523
      dx2y2   :    -0.002234
      dxy     :    -0.007169
      f0      :    -0.000017  f :    -0.000084
      f+1     :    -0.000024
      f-1     :    -0.000018
      f+2     :    -0.000002
      f-2     :     0.000001
      f+3     :    -0.000024
      f-3     :    -0.000000
 12 Aus       :    -0.058106  s :    -0.058106
      pz      :    -0.009075  p :    -0.024273
      px      :    -0.000685
      py      :    -0.014513
      dz2     :    -0.002365  d :    -0.014092
      dxz     :    -0.001794
      dyz     :    -0.005698
      dx2y2   :     0.004586
      dxy     :    -0.008822
      f0      :    -0.000002  f :     0.000014
      f+1     :     0.000007
      f-1     :     0.000001
      f+2     :    -0.000012
      f-2     :    -0.000021
      f+3     :     0.000018
      f-3     :     0.000024
 13 Aus       :    -0.008551  s :    -0.008551
      pz      :    -0.013453  p :    -0.025476
      px      :    -0.006321
      py      :    -0.005702
      dz2     :    -0.003888  d :    -0.035575
      dxz     :    -0.016033
      dyz     :    -0.000784
      dx2y2   :    -0.007449
      dxy     :    -0.007421
      f0      :    -0.000011  f :    -0.000086
      f+1     :    -0.000021
      f-1     :    -0.000005
      f+2     :    -0.000013
      f-2     :    -0.000001
      f+3     :    -0.000030
      f-3     :    -0.000006
 14 Fes       :     0.008701  s :     0.008701
      pz      :     0.005777  p :     0.016334
      px      :     0.005004
      py      :     0.005554
      dz2     :     0.539203  d :     2.890983
      dxz     :     0.576803
      dyz     :     0.686564
      dx2y2   :     0.326327
      dxy     :     0.762087
      f0      :     0.000005  f :     0.000028
      f+1     :     0.000002
      f-1     :     0.000003
      f+2     :     0.000006
      f-2     :     0.000002
      f+3     :     0.000012
      f-3     :    -0.000001


                      *****************************
                      * MAYER POPULATION ANALYSIS *
                      *****************************

  NA   - Mulliken gross atomic population
  ZA   - Total nuclear charge
  QA   - Mulliken gross atomic charge
  VA   - Mayer's total valence
  BVA  - Mayer's bonded valence
  FA   - Mayer's free valence

  ATOM       NA         ZA         QA         VA         BVA        FA
  0 Au    18.9357    19.0000     0.0643     1.8709     1.8539     0.0170
  1 Au    18.7971    19.0000     0.2029     1.5989     1.5888     0.0102
  2 Au    18.7974    19.0000     0.2026     1.6013     1.5910     0.0103
  3 Au    18.6194    19.0000     0.3806     1.6758     1.6637     0.0122
  4 Au    18.9361    19.0000     0.0639     1.8710     1.8538     0.0172
  5 Au    18.6649    19.0000     0.3351     1.5236     1.5065     0.0171
  6 Au    18.9320    19.0000     0.0680     1.8658     1.8480     0.0178
  7 Au    18.9733    19.0000     0.0267     2.0188     2.0096     0.0091
  8 Au    18.6791    19.0000     0.3209     1.5252     1.5116     0.0136
  9 Au    18.6106    19.0000     0.3894     1.6790     1.6653     0.0138
 10 Au    18.9751    19.0000     0.0249     2.0206     2.0113     0.0092
 11 Au    18.5854    19.0000     0.4146     1.4396     1.4377     0.0019
 12 Au    18.9317    19.0000     0.0683     1.8664     1.8485     0.0179
 13 Au    18.5838    19.0000     0.4162     1.4385     1.4366     0.0020
 14 Fe    28.9784    26.0000    -2.9784     7.9517     5.7113     2.2404

  Mayer bond orders larger than 0.100000
B(  0-Au,  2-Au) :   0.1697 B(  0-Au,  3-Au) :   0.2659 B(  0-Au,  5-Au) :   0.1598 
B(  0-Au,  6-Au) :   0.1906 B(  0-Au, 10-Au) :   0.1655 B(  0-Au, 11-Au) :   0.3331 
B(  0-Au, 14-Fe) :   0.3968 B(  1-Au,  2-Au) :   0.1865 B(  1-Au,  3-Au) :   0.1407 
B(  1-Au,  4-Au) :   0.1697 B(  1-Au,  9-Au) :   0.1559 B(  1-Au, 12-Au) :   0.1631 
B(  1-Au, 14-Fe) :   0.5224 B(  2-Au,  3-Au) :   0.1408 B(  2-Au,  6-Au) :   0.1668 
B(  2-Au,  9-Au) :   0.1546 B(  2-Au, 14-Fe) :   0.5226 B(  3-Au,  4-Au) :   0.2679 
B(  3-Au,  5-Au) :   0.2008 B(  3-Au, 14-Fe) :   0.4452 B(  4-Au,  5-Au) :   0.1591 
B(  4-Au,  7-Au) :   0.1652 B(  4-Au, 12-Au) :   0.1895 B(  4-Au, 13-Au) :   0.3331 
B(  4-Au, 14-Fe) :   0.3966 B(  5-Au,  7-Au) :   0.1045 B(  5-Au, 10-Au) :   0.1063 
B(  5-Au, 14-Fe) :   0.5662 B(  6-Au,  8-Au) :   0.1718 B(  6-Au,  9-Au) :   0.2549 
B(  6-Au, 10-Au) :   0.1642 B(  6-Au, 11-Au) :   0.3318 B(  6-Au, 14-Fe) :   0.3974 
B(  7-Au, 10-Au) :   0.4785 B(  7-Au, 12-Au) :   0.1644 B(  7-Au, 13-Au) :   0.4046 
B(  7-Au, 14-Fe) :   0.4473 B(  8-Au,  9-Au) :   0.1985 B(  8-Au, 12-Au) :   0.1722 
B(  8-Au, 14-Fe) :   0.5671 B(  9-Au, 12-Au) :   0.2579 B(  9-Au, 14-Fe) :   0.4429 
B( 10-Au, 11-Au) :   0.4055 B( 10-Au, 14-Fe) :   0.4454 B( 12-Au, 13-Au) :   0.3330 
B( 12-Au, 14-Fe) :   0.3981 

-------
TIMINGS
-------

Total SCF time: 0 days 0 hours 1 min 54 sec 

Total time                  ....     114.882 sec
Sum of individual times     ....     111.112 sec  ( 96.7%)

Fock matrix formation       ....      90.785 sec  ( 79.0%)
  Split-RI-J                ....      36.159 sec  ( 39.8% of F)
  XC integration            ....      53.618 sec  ( 59.1% of F)
    Basis function eval.    ....       4.845 sec  (  9.0% of XC)
    Density eval.           ....      20.835 sec  ( 38.9% of XC)
    XC-Functional eval.     ....       0.350 sec  (  0.7% of XC)
    XC-Potential eval.      ....      20.036 sec  ( 37.4% of XC)
Diagonalization             ....       7.802 sec  (  6.8%)
Density matrix formation    ....       1.015 sec  (  0.9%)
Population analysis         ....       0.313 sec  (  0.3%)
Initial guess               ....       0.450 sec  (  0.4%)
Orbital Transformation      ....       6.180 sec  (  5.4%)
Orbital Orthonormalization  ....       0.399 sec  (  0.3%)
DIIS solution               ....       2.947 sec  (  2.6%)
Grid generation             ....       1.597 sec  (  1.4%)

Maximum memory used throughout the entire SCF-calculation: 102.1 MB

-------------------------   --------------------
FINAL SINGLE POINT ENERGY     -3165.064929405976
-------------------------   --------------------


                            ***************************************
                            *     ORCA property calculations      *
                            ***************************************

                                    ---------------------
                                    Active property flags
                                    ---------------------
   (+) Dipole Moment


------------------------------------------------------------------------------
                       ORCA ELECTRIC PROPERTIES CALCULATION
------------------------------------------------------------------------------

Dipole Moment Calculation                       ... on
Quadrupole Moment Calculation                   ... off
Polarizability Calculation                      ... off
GBWName                                         ... pbeSP_job2.gbw
Electron density                                ... pbeSP_job2.scfp
The origin for moment calculation is the CENTER OF MASS  = (15.033981, 15.632579 14.328486)

-------------
DIPOLE MOMENT
-------------
                                X             Y             Z
Electronic contribution:      1.41694      -5.72456       3.95009
Nuclear contribution   :     -1.39614       5.64648      -3.90065
                        -----------------------------------------
Total Dipole Moment    :      0.02080      -0.07808       0.04944
                        -----------------------------------------
Magnitude (a.u.)       :      0.09473
Magnitude (Debye)      :      0.24077



--------------------
Rotational spectrum 
--------------------
 
Rotational constants in cm-1:     0.001299     0.000949     0.000904 
Rotational constants in MHz :    38.950089    28.457992    27.110945 

 Dipole components along the rotational axes: 
x,y,z [a.u.] :    -0.002929     0.094615     0.003510 
x,y,z [Debye]:    -0.007445     0.240491     0.008921 

 

Timings for individual modules:

Sum of individual times         ...      129.198 sec (=   2.153 min)
GTO integral calculation        ...       13.432 sec (=   0.224 min)  10.4 %
SCF iterations                  ...      115.766 sec (=   1.929 min)  89.6 %



                             ****ORCA TERMINATED NORMALLY****
TOTAL RUN TIME: 0 days 0 hours 5 minutes 12 seconds 412 msec
