
                                 *****************
                                 * O   R   C   A *
                                 *****************

                                            #,                                       
                                            ###                                      
                                            ####                                     
                                            #####                                    
                                            ######                                   
                                           ########,                                 
                                     ,,################,,,,,                         
                               ,,#################################,,                 
                          ,,##########################################,,             
                       ,#########################################, ''#####,          
                    ,#############################################,,   '####,        
                  ,##################################################,,,,####,       
                ,###########''''           ''''###############################       
              ,#####''   ,,,,##########,,,,          '''####'''          '####       
            ,##' ,,,,###########################,,,                        '##       
           ' ,,###''''                  '''############,,,                           
         ,,##''                                '''############,,,,        ,,,,,,###''
      ,#''                                            '''#######################'''  
     '                                                          ''''####''''         
             ,#######,   #######,   ,#######,      ##                                
            ,#'     '#,  ##    ##  ,#'     '#,    #''#        ######   ,####,        
            ##       ##  ##   ,#'  ##            #'  '#       #        #'  '#        
            ##       ##  #######   ##           ,######,      #####,   #    #        
            '#,     ,#'  ##    ##  '#,     ,#' ,#      #,         ##   #,  ,#        
             '#######'   ##     ##  '#######'  #'      '#     #####' # '####'        



                  #######################################################
                  #                        -***-                        #
                  #          Department of theory and spectroscopy      #
                  #    Directorship and core code : Frank Neese         #
                  #        Max Planck Institute fuer Kohlenforschung    #
                  #                Kaiser Wilhelm Platz 1               #
                  #                 D-45470 Muelheim/Ruhr               #
                  #                      Germany                        #
                  #                                                     #
                  #                  All rights reserved                #
                  #                        -***-                        #
                  #######################################################


                         Program Version 5.0.3 -  RELEASE  -


 With contributions from (in alphabetic order):
   Daniel Aravena         : Magnetic Suceptibility
   Michael Atanasov       : Ab Initio Ligand Field Theory (pilot matlab implementation)
   Alexander A. Auer      : GIAO ZORA, VPT2 properties, NMR spectrum
   Ute Becker             : Parallelization
   Giovanni Bistoni       : ED, misc. LED, open-shell LED, HFLD
   Martin Brehm           : Molecular dynamics
   Dmytro Bykov           : SCF Hessian
   Vijay G. Chilkuri      : MRCI spin determinant printing, contributions to CSF-ICE
   Dipayan Datta          : RHF DLPNO-CCSD density
   Achintya Kumar Dutta   : EOM-CC, STEOM-CC
   Dmitry Ganyushin       : Spin-Orbit,Spin-Spin,Magnetic field MRCI
   Miquel Garcia          : C-PCM and meta-GGA Hessian, CC/C-PCM, Gaussian charge scheme
   Yang Guo               : DLPNO-NEVPT2, F12-NEVPT2, CIM, IAO-localization
   Andreas Hansen         : Spin unrestricted coupled pair/coupled cluster methods
   Benjamin Helmich-Paris : MC-RPA, TRAH-SCF, COSX integrals
   Lee Huntington         : MR-EOM, pCC
   Robert Izsak           : Overlap fitted RIJCOSX, COSX-SCS-MP3, EOM
   Marcus Kettner         : VPT2
   Christian Kollmar      : KDIIS, OOCD, Brueckner-CCSD(T), CCSD density, CASPT2, CASPT2-K
   Simone Kossmann        : Meta GGA functionals, TD-DFT gradient, OOMP2, MP2 Hessian
   Martin Krupicka        : Initial AUTO-CI
   Lucas Lang             : DCDCAS
   Marvin Lechner         : AUTO-CI (C++ implementation), FIC-MRCC
   Dagmar Lenk            : GEPOL surface, SMD
   Dimitrios Liakos       : Extrapolation schemes; Compound Job, initial MDCI parallelization
   Dimitrios Manganas     : Further ROCIS development; embedding schemes
   Dimitrios Pantazis     : SARC Basis sets
   Anastasios Papadopoulos: AUTO-CI, single reference methods and gradients
   Taras Petrenko         : DFT Hessian,TD-DFT gradient, ASA, ECA, R-Raman, ABS, FL, XAS/XES, NRVS
   Peter Pinski           : DLPNO-MP2, DLPNO-MP2 Gradient
   Christoph Reimann      : Effective Core Potentials
   Marius Retegan         : Local ZFS, SOC
   Christoph Riplinger    : Optimizer, TS searches, QM/MM, DLPNO-CCSD(T), (RO)-DLPNO pert. Triples
   Tobias Risthaus        : Range-separated hybrids, TD-DFT gradient, RPA, STAB
   Michael Roemelt        : Original ROCIS implementation
   Masaaki Saitow         : Open-shell DLPNO-CCSD energy and density
   Barbara Sandhoefer     : DKH picture change effects
   Avijit Sen             : IP-ROCIS
   Kantharuban Sivalingam : CASSCF convergence, NEVPT2, FIC-MRCI
   Bernardo de Souza      : ESD, SOC TD-DFT
   Georgi Stoychev        : AutoAux, RI-MP2 NMR, DLPNO-MP2 response
   Willem Van den Heuvel  : Paramagnetic NMR
   Boris Wezisla          : Elementary symmetry handling
   Frank Wennmohs         : Technical directorship


 We gratefully acknowledge several colleagues who have allowed us to
 interface, adapt or use parts of their codes:
   Stefan Grimme, W. Hujo, H. Kruse, P. Pracht,  : VdW corrections, initial TS optimization,
                  C. Bannwarth, S. Ehlert          DFT functionals, gCP, sTDA/sTD-DF
   Ed Valeev, F. Pavosevic, A. Kumar             : LibInt (2-el integral package), F12 methods
   Garnet Chan, S. Sharma, J. Yang, R. Olivares  : DMRG
   Ulf Ekstrom                                   : XCFun DFT Library
   Mihaly Kallay                                 : mrcc  (arbitrary order and MRCC methods)
   Jiri Pittner, Ondrej Demel                    : Mk-CCSD
   Frank Weinhold                                : gennbo (NPA and NBO analysis)
   Christopher J. Cramer and Donald G. Truhlar   : smd solvation model
   Lars Goerigk                                  : TD-DFT with DH, B97 family of functionals
   V. Asgeirsson, H. Jonsson                     : NEB implementation
   FAccTs GmbH                                   : IRC, NEB, NEB-TS, DLPNO-Multilevel, CI-OPT
                                                   MM, QMMM, 2- and 3-layer-ONIOM, Crystal-QMMM,
                                                   LR-CPCM, SF, NACMEs, symmetry and pop. for TD-DFT,
                                                   nearIR, NL-DFT gradient (VV10), updates on ESD,
                                                   ML-optimized integration grids
   S Lehtola, MJT Oliveira, MAL Marques          : LibXC Library
   Liviu Ungur et al                             : ANISO software


 Your calculation uses the libint2 library for the computation of 2-el integrals
 For citations please refer to: http://libint.valeyev.net

 Your ORCA version has been built with support for libXC version: 5.1.0
 For citations please refer to: https://tddft.org/programs/libxc/

 This ORCA versions uses:
   CBLAS   interface :  Fast vector & matrix operations
   LAPACKE interface :  Fast linear algebra routines
   SCALAPACK package :  Parallel linear algebra routines
   Shared memory     :  Shared parallel matrices
   BLAS/LAPACK       :  OpenBLAS 0.3.15  USE64BITINT DYNAMIC_ARCH NO_AFFINITY Haswell SINGLE_THREADED
        Core in use  :  Haswell
   Copyright (c) 2011-2014, The OpenBLAS Project




***************************************
The coordinates will be read from file: pbe.xyz
***************************************


================================================================================

cite the ECPs for Au [Def2-ECP] as follows:
Ce-Yb(ecp-28): M. Dolg, H. Stoll, H.Preuss, J. Chem. Phys., 1989, 90, 1730-1734.
Y-Cd(ecp-28), Hf-Hg(ecp-46): D. Andrae,U. Haeussermann, M. Dolg, H. Stoll, H. Preuss, Theor. Chim. Acta, 1990, 77, 123-141.
In-Sb(ecp-28), Tl-Bi(ecp-46): B. Metz, H. Stoll, M. Dolg, J. Chem. Phys., 2000, 113, 2563-2569.
Te-Xe(ecp-28), Po-Rn(ecp-46): K. A. Peterson, D. Figgen, E. Goll, H. Stoll, M. Dolg, J. Chem. Phys., 2003, 119, 11113-11123.
Rb(ecp-28), Cs(ecp-46): T. Leininger, A. Nicklass, W. Kuechle, H. Stoll, M. Dolg, A. Bergner, Chem. Phys. Lett., 1996, 255, 274-280.
Sr(ecp-28), Ba(ecp-46): M. Kaupp, P. V. Schleyer, H. Stoll and H. Preuss, J. Chem. Phys., 1991, 94, 1360-1366.
La(ecp-46): M. Dolg, H. Stoll, A. Savin, H. Preuss, Theor. Chim. Acta, 1989, 75, 173-194.
Lu(ecp-28): X. Cao, M. Dolg, J. Chem. Phys., 2001, 115, 7348-7355.

ECP parameters for Au [Def2-ECP] have been obtained from:
TURBOMOLE (7.0.2)

----- Orbital basis set information -----
Your calculation utilizes the basis: def2-TZVP
   F. Weigend and R. Ahlrichs, Phys. Chem. Chem. Phys. 7, 3297 (2005).

----- AuxJ basis set information -----
Your calculation utilizes the auxiliary basis: def2/J
   F. Weigend, Phys. Chem. Chem. Phys. 8, 1057 (2006).

----- AuxC basis set information -----
Your calculation utilizes the auxiliary basis: def2-TZVP/C
  H-La, Hf-Rn : A. Hellweg, C. Hattig, S. Hofener and W. Klopper, Theor. Chem. Acc. 117, 587 (2007).
        Ce-Lu : J. Chmela and M. E. Harding, Mol. Phys. (2018).

================================================================================
                                        WARNINGS
                       Please study these warnings very carefully!
================================================================================


INFO   : the flag for use of the SHARK integral package has been found!

================================================================================
                                       INPUT FILE
================================================================================
NAME = casscf.inp
|  1> !CASSCF def2-TZVP def2-TZVP/C
|  2> !MOREAD RIJCOSX
|  3> %maxcore 6000
|  4> %moinp "pbe.qro"
|  5> %pal nprocs 2 end 
|  6> 
|  7> %casscf
|  8>  mult 5,3
|  9>  bweight 1,1
| 10>  nroots 5,45
| 11>  nel 6
| 12>  norb 5
| 13> end
| 14> 
| 15> 
| 16> *xyzfile 0 5 pbe.xyz
| 17> 
| 18> 
| 19>                          ****END OF INPUT****
================================================================================

                       ****************************
                       * Single Point Calculation *
                       ****************************

---------------------------------
CARTESIAN COORDINATES (ANGSTROEM)
---------------------------------
  Au    10.957578    6.031971    7.021700
  Au     5.361030    9.046427   10.530731
  Au     7.533380    7.294619   11.001785
  Au     9.341546    6.680263    9.140317
  Au     9.555219    8.362764    6.907185
  Au     7.433026    9.969783    6.351829
  Au     5.113603    9.796674    7.925486
  Au     7.812672    9.194024    8.980092
  Au     5.194151    8.640084    5.393103
  Au     7.656368    7.421276    5.056093
  Au     8.312161    5.373539    6.809477
  Au     4.972714    6.288429   10.917855
  Au     3.551985    7.436970    7.224629
  Au     7.018729    4.997384    9.237041
  Au     5.709743    5.874611    6.282554
  Au     4.287731    5.113419    8.529789
  Fe     5.926053    7.311350    8.560386

----------------------------
CARTESIAN COORDINATES (A.U.)
----------------------------
  NO LB      ZA    FRAG     MASS         X           Y           Z
   0 Au   19.0000*   0   196.966   20.706822   11.398773   13.269090
   1 Au   19.0000*   0   196.966   10.130879   17.095269   19.900198
   2 Au   19.0000*   0   196.966   14.236025   13.784832   20.790360
   3 Au   19.0000*   0   196.966   17.652964   12.623867   17.272696
   4 Au   19.0000*   0   196.966   18.056746   15.803334   13.052687
   5 Au   19.0000*   0   196.966   14.046384   18.840159   12.003217
   6 Au   19.0000*   0   196.966    9.663309   18.513032   14.976997
   7 Au   19.0000*   0   196.966   14.763810   17.374187   16.969914
   8 Au   19.0000*   0   196.966    9.815523   16.327393   10.191487
   9 Au   19.0000*   0   196.966   14.468439   14.024179    9.554630
  10 Au   19.0000*   0   196.966   15.707708   10.154517   12.868046
  11 Au   19.0000*   0   196.966    9.397068   11.883409   20.631756
  12 Au   19.0000*   0   196.966    6.712278   14.053837   13.652570
  13 Au   19.0000*   0   196.966   13.263476    9.443688   17.455478
  14 Au   19.0000*   0   196.966   10.789851   11.101407   11.872306
  15 Au   19.0000*   0   196.966    8.102638    9.662961   16.118964
  16 Fe   26.0000    0    55.850   11.198617   13.816449   16.176785
* core charge reduced due to ECP

--------------------------------
INTERNAL COORDINATES (ANGSTROEM)
--------------------------------
 Au     0   0   0     0.000000000000     0.00000000     0.00000000
 Au     1   0   0     7.260963841245     0.00000000     0.00000000
 Au     2   1   0     2.830163291338    39.81106968     0.00000000
 Au     3   2   1     2.666826004512   123.15093152     2.57462724
 Au     1   2   3     2.722558527948    42.93656310   211.99100780
 Au     5   1   2     2.719306693615   156.42004723   286.45593507
 Au     2   1   3     2.722388024354    73.85825155   184.42921507
 Au     6   5   1     2.766531863719    62.17148602   102.59565021
 Au     6   5   1     2.774854421499   114.64832962     4.73702062
 Au     9   6   5     2.767956354009    62.31223590   336.09718751
 Au     1   2   3     2.734374613509    52.53918365   105.90331972
 Au     3   2   1     2.752538728053    60.47042479   252.02260979
 Au     9   6   5     2.738372275455   117.60049891    81.32745856
 Au    11   1   2     2.776243041196   114.55058326   310.89823436
 Au    11   1   2     2.702091818253   154.45688531    58.99341006
 Au    12   3   2     2.748219928098   114.49787498    99.67599265
 Fe    14  11   1     2.646930179948    81.39317196   107.53023554

---------------------------
INTERNAL COORDINATES (A.U.)
---------------------------
 Au     0   0   0     0.000000000000     0.00000000     0.00000000
 Au     1   0   0    13.721233128257     0.00000000     0.00000000
 Au     2   1   0     5.348233534905    39.81106968     0.00000000
 Au     3   2   1     5.039570795348   123.15093152     2.57462724
 Au     1   2   3     5.144890001394    42.93656310   211.99100780
 Au     5   1   2     5.138744925072   156.42004723   286.45593507
 Au     2   1   3     5.144567796296    73.85825155   184.42921507
 Au     6   5   1     5.227987563197    62.17148602   102.59565021
 Au     6   5   1     5.243714918134   114.64832962     4.73702062
 Au     9   6   5     5.230679459725    62.31223590   336.09718751
 Au     1   2   3     5.167219167078    52.53918365   105.90331972
 Au     3   2   1     5.201544369033    60.47042479   252.02260979
 Au     9   6   5     5.174773653334   117.60049891    81.32745856
 Au    11   1   2     5.246339029066   114.55058326   310.89823436
 Au    11   1   2     5.106213525208   154.45688531    58.99341006
 Au    12   3   2     5.193383019890   114.49787498    99.67599265
 Fe    14  11   1     5.001973135713    81.39317196   107.53023554

---------------------
BASIS SET INFORMATION
---------------------
There are 2 groups of distinct atoms

 Group   1 Type Au  : 8s7p6d1f contracted to 6s4p3d1f pattern {311111/4111/411/1}
 Group   2 Type Fe  : 17s11p7d1f contracted to 6s4p4d1f pattern {842111/6311/4111/1}

Atom   0Au   basis set group =>   1
Atom   1Au   basis set group =>   1
Atom   2Au   basis set group =>   1
Atom   3Au   basis set group =>   1
Atom   4Au   basis set group =>   1
Atom   5Au   basis set group =>   1
Atom   6Au   basis set group =>   1
Atom   7Au   basis set group =>   1
Atom   8Au   basis set group =>   1
Atom   9Au   basis set group =>   1
Atom  10Au   basis set group =>   1
Atom  11Au   basis set group =>   1
Atom  12Au   basis set group =>   1
Atom  13Au   basis set group =>   1
Atom  14Au   basis set group =>   1
Atom  15Au   basis set group =>   1
Atom  16Fe   basis set group =>   2
---------------------------------
AUXILIARY/J BASIS SET INFORMATION
---------------------------------
There are 2 groups of distinct atoms

 Group   1 Type Au  : 11s5p5d3f3g contracted to 8s5p5d2f3g pattern {41111111/11111/11111/21/111}
 Group   2 Type Fe  : 19s5p5d3f3g contracted to 8s5p5d2f3g pattern {121111111/11111/11111/21/111}

Atom   0Au   basis set group =>   1
Atom   1Au   basis set group =>   1
Atom   2Au   basis set group =>   1
Atom   3Au   basis set group =>   1
Atom   4Au   basis set group =>   1
Atom   5Au   basis set group =>   1
Atom   6Au   basis set group =>   1
Atom   7Au   basis set group =>   1
Atom   8Au   basis set group =>   1
Atom   9Au   basis set group =>   1
Atom  10Au   basis set group =>   1
Atom  11Au   basis set group =>   1
Atom  12Au   basis set group =>   1
Atom  13Au   basis set group =>   1
Atom  14Au   basis set group =>   1
Atom  15Au   basis set group =>   1
Atom  16Fe   basis set group =>   2
---------------------------------
AUXILIARY/C BASIS SET INFORMATION
---------------------------------
There are 2 groups of distinct atoms

 Group   1 Type Au  : 8s8p7d5f3g2h contracted to 8s8p7d5f3g2h pattern {11111111/11111111/1111111/11111/111/11}
 Group   2 Type Fe  : 11s9p8d6f5g2h contracted to 9s8p8d6f5g2h pattern {311111111/21111111/11111111/111111/11111/11}

Atom   0Au   basis set group =>   1
Atom   1Au   basis set group =>   1
Atom   2Au   basis set group =>   1
Atom   3Au   basis set group =>   1
Atom   4Au   basis set group =>   1
Atom   5Au   basis set group =>   1
Atom   6Au   basis set group =>   1
Atom   7Au   basis set group =>   1
Atom   8Au   basis set group =>   1
Atom   9Au   basis set group =>   1
Atom  10Au   basis set group =>   1
Atom  11Au   basis set group =>   1
Atom  12Au   basis set group =>   1
Atom  13Au   basis set group =>   1
Atom  14Au   basis set group =>   1
Atom  15Au   basis set group =>   1
Atom  16Fe   basis set group =>   2
-------------------------
ECP PARAMETER INFORMATION
-------------------------

 Group 1, Type Au ECP Def2-ECP (replacing 60 core electrons, lmax=3)

Atom   0Au   ECP group =>   1
Atom   1Au   ECP group =>   1
Atom   2Au   ECP group =>   1
Atom   3Au   ECP group =>   1
Atom   4Au   ECP group =>   1
Atom   5Au   ECP group =>   1
Atom   6Au   ECP group =>   1
Atom   7Au   ECP group =>   1
Atom   8Au   ECP group =>   1
Atom   9Au   ECP group =>   1
Atom  10Au   ECP group =>   1
Atom  11Au   ECP group =>   1
Atom  12Au   ECP group =>   1
Atom  13Au   ECP group =>   1
Atom  14Au   ECP group =>   1
Atom  15Au   ECP group =>   1



           ************************************************************
           *        Program running with 2 parallel MPI-processes     *
           *              working on a common directory               *
           ************************************************************
------------------------------------------------------------------------------
                           ORCA GTO INTEGRAL CALCULATION
                           -- RI-GTO INTEGRALS CHOSEN --
------------------------------------------------------------------------------
------------------------------------------------------------------------------
                   ___                                                        
                  /   \      - P O W E R E D   B Y -                         
                 /     \                                                     
                 |  |  |   _    _      __       _____    __    __             
                 |  |  |  | |  | |    /  \     |  _  \  |  |  /  |          
                  \  \/   | |  | |   /    \    | | | |  |  | /  /          
                 / \  \   | |__| |  /  /\  \   | |_| |  |  |/  /          
                |  |  |   |  __  | /  /__\  \  |    /   |      \           
                |  |  |   | |  | | |   __   |  |    \   |  |\   \          
                \     /   | |  | | |  |  |  |  | |\  \  |  | \   \       
                 \___/    |_|  |_| |__|  |__|  |_| \__\ |__|  \__/        
                                                                              
                      - O R C A' S   B I G   F R I E N D -                    
                                      &                                       
                       - I N T E G R A L  F E E D E R -                       
                                                                              
 v1 FN, 2020, v2 2021                                                         
------------------------------------------------------------------------------


Reading SHARK input file casscf.SHARKINP.tmp ... ok
----------------------
SHARK INTEGRAL PACKAGE
----------------------

Number of atoms                             ...     17
Number of basis functions                   ...    685
Number of shells                            ...    239
Maximum angular momentum                    ...      3
Integral batch strategy                     ... SHARK/LIBINT Hybrid
RI-J (if used) integral strategy            ... SPLIT-RIJ (Revised 2003 algorithm where possible)
Printlevel                                  ...      1
Contraction scheme used                     ... SEGMENTED contraction
Coulomb Range Separation                    ... NOT USED
Exchange Range Separation                   ... NOT USED
Finite Nucleus Model                        ... NOT USED
Auxiliary Coulomb fitting basis             ... AVAILABLE
   # of basis functions in Aux-J            ...   1513
   # of shells in Aux-J                     ...    391
   Maximum angular momentum in Aux-J        ...      4
Auxiliary J/K fitting basis                 ... NOT available
Auxiliary Correlation fitting basis         ... AVAILABLE
   # of basis functions in Aux-C            ...   2598
   # of shells in Aux-C                     ...    566
   Maximum angular momentum in Aux-C        ...      5
Auxiliary 'external' fitting basis          ... NOT available
Integral threshold                          ...     1.000000e-10
Primitive cut-off                           ...     1.000000e-11
Primitive pair pre-selection threshold      ...     1.000000e-11

Calculating pre-screening integrals         ... done (  0.3 sec) Dimension = 239
Organizing shell pair data                  ... done (  0.4 sec)
Shell pair information
Total number of shell pairs                 ...     28680
Shell pairs after pre-screening             ...     22096
Total number of primitive shell pairs       ...     75765
Primitive shell pairs kept                  ...     41700
          la=0 lb=0:   3494 shell pairs
          la=1 lb=0:   5033 shell pairs
          la=1 lb=1:   1884 shell pairs
          la=2 lb=0:   4402 shell pairs
          la=2 lb=1:   3098 shell pairs
          la=2 lb=2:   1285 shell pairs
          la=3 lb=0:   1130 shell pairs
          la=3 lb=1:    874 shell pairs
          la=3 lb=2:    781 shell pairs
          la=3 lb=3:    115 shell pairs

Calculating one electron integrals          ... done (  0.1 sec)
Calculating ECP integrals                   ... done ( 11.2 sec)
Calculating RI/J V-Matrix + Cholesky decomp.... done (  0.1 sec)
Calculating RI/C V-Matrix + Cholesky decomp.... done (  0.4 sec)
Calculating Nuclear repulsion               ... done (  0.0 sec) ENN=   7022.022056390531 Eh

SHARK setup successfully completed in  13.0 seconds

Maximum memory used throughout the entire GTOINT-calculation: 112.3 MB


           ************************************************************
           *        Program running with 2 parallel MPI-processes     *
           *              working on a common directory               *
           ************************************************************
-------------------------------------------------------------------------------
                                 ORCA SCF
-------------------------------------------------------------------------------

------------
SCF SETTINGS
------------
Hamiltonian:
 Ab initio Hamiltonian  Method          .... Hartree-Fock(GTOs)
 RI-approximation to the Coulomb term is turned on
   Number of AuxJ basis functions       .... 1513
   RIJ-COSX (HFX calculated with COS-X)).... on


General Settings:
 Integral files         IntName         .... casscf
 Hartree-Fock type      HFTyp           .... CASSCF
 Total Charge           Charge          ....    0
 Multiplicity           Mult            ....    5
 Number of Electrons    NEL             ....  330
 Basis Dimension        Dim             ....  685
 Nuclear Repulsion      ENuc            ....   7022.0220563905 Eh


Diagonalization of the overlap matrix:
Smallest eigenvalue                        ... 3.851e-04
Time for diagonalization                   ...    0.064 sec
Threshold for overlap eigenvalues          ... 1.000e-08
Number of eigenvalues below threshold      ... 0
Time for construction of square roots      ...    0.035 sec
Total time needed                          ...    0.100 sec

---------------------
INITIAL GUESS: MOREAD
---------------------
Guess MOs are being read from file: pbe.qro
Input Geometry matches current geometry (good)
Input basis set matches current basis set (good)
MOs were renormalized
Gram-Schmidt orthogonalization of all MOs with pivot on actives
                      ------------------
                      INITIAL GUESS DONE (   2.8 sec)
                      ------------------
--------------------
COSX GRID GENERATION
--------------------

GRIDX 1
-------
General Integration Accuracy     IntAcc      ... 3.816
Radial Grid Type                 RadialGrid  ... OptM3 with GC (2021)
Angular Grid (max. ang.)         AngularGrid ... 1 (Lebedev-50)
Angular grid pruning method      GridPruning ... 4 (adaptive)
Weight generation scheme         WeightScheme... Becke
Basis function cutoff            BFCut       ... 1.0000e-10
Integration weight cutoff        WCut        ... 1.0000e-14
Angular grids for H and He will be reduced by one unit
Partially contracted basis set               ... on
Rotationally invariant grid construction     ... off

Total number of grid points                  ...    19571
Total number of batches                      ...      313
Average number of points per batch           ...       62
Average number of grid points per atom       ...     1151
UseSFitting                                  ... on

GRIDX 2
-------
General Integration Accuracy     IntAcc      ... 4.020
Radial Grid Type                 RadialGrid  ... OptM3 with GC (2021)
Angular Grid (max. ang.)         AngularGrid ... 2 (Lebedev-110)
Angular grid pruning method      GridPruning ... 4 (adaptive)
Weight generation scheme         WeightScheme... Becke
Basis function cutoff            BFCut       ... 1.0000e-10
Integration weight cutoff        WCut        ... 1.0000e-14
Angular grids for H and He will be reduced by one unit
Partially contracted basis set               ... on
Rotationally invariant grid construction     ... off

Total number of grid points                  ...    59285
Total number of batches                      ...      934
Average number of points per batch           ...       63
Average number of grid points per atom       ...     3487
UseSFitting                                  ... on

GRIDX 3
-------
General Integration Accuracy     IntAcc      ... 4.338
Radial Grid Type                 RadialGrid  ... OptM3 with GC (2021)
Angular Grid (max. ang.)         AngularGrid ... 3 (Lebedev-194)
Angular grid pruning method      GridPruning ... 4 (adaptive)
Weight generation scheme         WeightScheme... Becke
Basis function cutoff            BFCut       ... 1.0000e-10
Integration weight cutoff        WCut        ... 1.0000e-14
Angular grids for H and He will be reduced by one unit
Partially contracted basis set               ... on
Rotationally invariant grid construction     ... off

Total number of grid points                  ...   107530
Total number of batches                      ...     1688
Average number of points per batch           ...       63
Average number of grid points per atom       ...     6325
UseSFitting                                  ... on

Time for X-Grid setup             =    2.922 sec



 ... the calculation is a CASSCF calculation -I'm leaving here GOOD LUCK!!!



           ************************************************************
           *        Program running with 2 parallel MPI-processes     *
           *              working on a common directory               *
           ************************************************************
-------------------------------------------------------------------------------
                              ORCA-CASSCF
-------------------------------------------------------------------------------

Setting up the integral package       ... done
Setting up the integral package (RI)  ... done
Building the CAS space                ... done (5 configurations for Mult=5)
Building the CAS space                ... done (35 configurations for Mult=3)

SYSTEM-SPECIFIC SETTINGS:
Number of active electrons          ...    6
Number of active orbitals           ...    5
Total number of electrons           ...  330
Total number of orbitals            ...  685
Total number aux. functions         ... 2598

Determined orbital ranges:
   Internal       0 -  161 ( 162 orbitals)
   Active       162 -  166 (   5 orbitals)
   External     167 -  684 ( 518 orbitals)
Number of rotation parameters      ...  87316

CI-STEP:
CI strategy                         ... General CI
Number of multiplicity blocks       ...    2
BLOCK  1 WEIGHT=   0.5000
  Multiplicity                      ...    5
  #(Configurations)                 ...    5
  #(CSFs)                           ...    5
  #(Roots)                          ...    5
    ROOT=0 WEIGHT=    0.100000
    ROOT=1 WEIGHT=    0.100000
    ROOT=2 WEIGHT=    0.100000
    ROOT=3 WEIGHT=    0.100000
    ROOT=4 WEIGHT=    0.100000

BLOCK  2 WEIGHT=   0.5000
  Multiplicity                      ...    3
  #(Configurations)                 ...   35
  #(CSFs)                           ...   45
  #(Roots)                          ...   45
    ROOT=0 WEIGHT=    0.011111
    ROOT=1 WEIGHT=    0.011111
    ROOT=2 WEIGHT=    0.011111
    ROOT=3 WEIGHT=    0.011111
    ROOT=4 WEIGHT=    0.011111
    ROOT=5 WEIGHT=    0.011111
    ROOT=6 WEIGHT=    0.011111
    ROOT=7 WEIGHT=    0.011111
    ROOT=8 WEIGHT=    0.011111
    ROOT=9 WEIGHT=    0.011111
    ROOT=10 WEIGHT=    0.011111
    ROOT=11 WEIGHT=    0.011111
    ROOT=12 WEIGHT=    0.011111
    ROOT=13 WEIGHT=    0.011111
    ROOT=14 WEIGHT=    0.011111
    ROOT=15 WEIGHT=    0.011111
    ROOT=16 WEIGHT=    0.011111
    ROOT=17 WEIGHT=    0.011111
    ROOT=18 WEIGHT=    0.011111
    ROOT=19 WEIGHT=    0.011111
    ROOT=20 WEIGHT=    0.011111
    ROOT=21 WEIGHT=    0.011111
    ROOT=22 WEIGHT=    0.011111
    ROOT=23 WEIGHT=    0.011111
    ROOT=24 WEIGHT=    0.011111
    ROOT=25 WEIGHT=    0.011111
    ROOT=26 WEIGHT=    0.011111
    ROOT=27 WEIGHT=    0.011111
    ROOT=28 WEIGHT=    0.011111
    ROOT=29 WEIGHT=    0.011111
    ROOT=30 WEIGHT=    0.011111
    ROOT=31 WEIGHT=    0.011111
    ROOT=32 WEIGHT=    0.011111
    ROOT=33 WEIGHT=    0.011111
    ROOT=34 WEIGHT=    0.011111
    ROOT=35 WEIGHT=    0.011111
    ROOT=36 WEIGHT=    0.011111
    ROOT=37 WEIGHT=    0.011111
    ROOT=38 WEIGHT=    0.011111
    ROOT=39 WEIGHT=    0.011111
    ROOT=40 WEIGHT=    0.011111
    ROOT=41 WEIGHT=    0.011111
    ROOT=42 WEIGHT=    0.011111
    ROOT=43 WEIGHT=    0.011111
    ROOT=44 WEIGHT=    0.011111

  PrintLevel                        ...    1
  N(GuessMat)                       ...       512
  MaxDim(CI)                        ...        10
  MaxIter(CI)                       ...        64
  Energy Tolerance CI               ...  1.00e-08
  Residual Tolerance CI             ...  1.00e-08
  Shift(CI)                         ...  1.00e-04

INTEGRAL-TRANSFORMATION-STEP:
  Algorithm                         ... RI-MO

ORBITAL-IMPROVEMENT-STEP:
  Algorithm                         ... SuperCI(PT)
  Default Parametrization           ... CAYLEY
  Act-Act rotations                 ... depends on algorithm used

  Note: SuperCI(PT) will ignore FreezeIE, FreezeAct and FreezeGrad. In general Default settings are encouraged.
        In conjunction with ShiftUp, ShiftDn or GradScaling the performance of SuperCI(PT) is less optimal.  

  MaxRot                            ... 2.00e-01 
  Max. no of vectors (DIIS)         ... 15
  DThresh (cut-off) metric          ... 1.00e-06
  Switch step at gradient           ...  3.00e-02 
  Switch step at iteration          ...        50   
  Switch step to                    ... SuperCI(PT)    

SCF-SETTINGS:
  Incremental                       ... off
  RIJCOSX approximation             ... on
  UseFinalGrid                      ... on
  RI-JK approximation               ... off
  AO integral handling              ... DIRECT
  Integral Neglect Thresh           ...  1.00e-10
  Primitive cutoff TCut             ...  1.00e-11
  Energy convergence tolerance      ...  1.00e-07
  Orbital gradient convergence      ...  1.00e-03
  Max. number of iterations         ...        75  


FINAL ORBITALS:
  Active   Orbitals                 ... natural 
  Internal Orbitals                 ... canonical 
  External Orbitals                 ... canonical 

------------------
CAS-SCF ITERATIONS
------------------


MACRO-ITERATION   1: 
   --- Inactive Energy E0 = -3406.94167004 Eh
CI-ITERATION   0: 
 -3418.909528169   0.000000000000 (    0.00)
 -3418.901621839   0.000000000000
 -3418.901053102   0.000000000000
 -3418.894960219   0.000000000000
 -3418.894259141   0.000000000000
   CI-PROBLEM SOLVED
   DENSITIES MADE
CI-ITERATION   0: 
 -3418.839859695   0.000000000000 (    0.00)
 -3418.838755101   0.000000000000
 -3418.837427234   0.000000000000
 -3418.837010423   0.000000000000
 -3418.836380046   0.000000000000
 -3418.835257004   0.000000000000
 -3418.833530812   0.000000000000
 -3418.831219401   0.000000000000
 -3418.830889144   0.000000000000
 -3418.830758863   0.000000000000
 -3418.830276863   0.000000000000
 -3418.828455121   0.000000000000
 -3418.827591710   0.000000000000
 -3418.825927974   0.000000000000
 -3418.824750995   0.000000000000
 -3418.824395806   0.000000000000
 -3418.823215836   0.000000000000
 -3418.822670411   0.000000000000
 -3418.821288616   0.000000000000
 -3418.819564014   0.000000000000
 -3418.818003395   0.000000000000
 -3418.817156568   0.000000000000
 -3418.816445864   0.000000000000
 -3418.816285295   0.000000000000
 -3418.815767937   0.000000000000
 -3418.814752568   0.000000000000
 -3418.813946338   0.000000000000
 -3418.812926719   0.000000000000
 -3418.811172799   0.000000000000
 -3418.810575093   0.000000000000
 -3418.791920650   0.000000000000
 -3418.790768894   0.000000000000
 -3418.790130383   0.000000000000
 -3418.789518435   0.000000000000
 -3418.787366702   0.000000000000
 -3418.728576237   0.000000000000
 -3418.722318748   0.000000000000
 -3418.721755376   0.000000000000
 -3418.720302490   0.000000000000
 -3418.717968837   0.000000000000
 -3418.717489698   0.000000000000
 -3418.714493512   0.000000000000
 -3418.713815537   0.000000000000
 -3418.711191012   0.000000000000
 -3418.708675962   0.000000000000
   CI-PROBLEM SOLVED
   DENSITIES MADE

                 <<<<<<<<<<<<<<<<<<INITIAL CI STATE CHECK>>>>>>>>>>>>>>>>>>

BLOCK  1 MULT= 5 NROOTS= 5 
ROOT   0:  E=   -3418.9095281694 Eh
      0.49900 [     1]: 11121
      0.32298 [     0]: 11112
      0.15162 [     2]: 11211
      0.02456 [     3]: 12111
ROOT   1:  E=   -3418.9016218394 Eh  0.215 eV   1735.2 cm**-1
      0.36274 [     0]: 11112
      0.27696 [     2]: 11211
      0.21980 [     3]: 12111
      0.08040 [     1]: 11121
      0.06011 [     4]: 21111
ROOT   2:  E=   -3418.9010531019 Eh  0.231 eV   1860.1 cm**-1
      0.56773 [     4]: 21111
      0.27168 [     3]: 12111
      0.06890 [     2]: 11211
      0.05949 [     0]: 11112
      0.03220 [     1]: 11121
ROOT   3:  E=   -3418.8949602193 Eh  0.396 eV   3197.3 cm**-1
      0.36921 [     4]: 21111
      0.25466 [     0]: 11112
      0.24507 [     3]: 12111
      0.12887 [     1]: 11121
ROOT   4:  E=   -3418.8942591410 Eh  0.415 eV   3351.2 cm**-1
      0.50033 [     2]: 11211
      0.25954 [     1]: 11121
      0.23889 [     3]: 12111

BLOCK  2 MULT= 3 NROOTS=45 
ROOT   0:  E=   -3418.8398596945 Eh
      0.26259 [    11]: 11121
      0.24242 [     0]: 01122
      0.09756 [     7]: 10212
      0.05762 [     1]: 01212
      0.03965 [    27]: 21102
      0.03312 [    10]: 11112
      0.02928 [     6]: 10122
      0.02796 [    28]: 21111
      0.02480 [    19]: 12120
      0.02402 [    13]: 11211
      0.01967 [    31]: 21210
      0.01945 [    14]: 11220
      0.01911 [    23]: 20121
      0.01834 [    22]: 20112
      0.01721 [    12]: 11202
      0.01442 [    15]: 12012
      0.00876 [    24]: 20211
      0.00639 [    32]: 22011
      0.00579 [    16]: 12021
      0.00444 [    33]: 22101
      0.00399 [    34]: 22110
      0.00374 [    17]: 12102
      0.00374 [     2]: 01221
      0.00274 [    21]: 12210
      0.00254 [     9]: 11022
ROOT   1:  E=   -3418.8387551008 Eh  0.030 eV    242.4 cm**-1
      0.17958 [    11]: 11121
      0.10357 [     9]: 11022
      0.10186 [    13]: 11211
      0.10021 [    29]: 21120
      0.08154 [    10]: 11112
      0.06258 [     6]: 10122
      0.05507 [     8]: 10221
      0.04705 [     0]: 01122
      0.04614 [    16]: 12021
      0.02995 [    28]: 21111
      0.02929 [     7]: 10212
      0.02724 [     2]: 01221
      0.01763 [    18]: 12111
      0.01588 [    23]: 20121
      0.01242 [    14]: 11220
      0.01142 [    24]: 20211
      0.01036 [    31]: 21210
      0.00940 [     1]: 01212
      0.00883 [    33]: 22101
      0.00845 [    30]: 21201
      0.00806 [    17]: 12102
      0.00738 [     3]: 02112
      0.00731 [    27]: 21102
      0.00523 [    34]: 22110
      0.00354 [    32]: 22011
      0.00347 [    12]: 11202
      0.00275 [    15]: 12012
ROOT   2:  E=   -3418.8374272336 Eh  0.066 eV    533.9 cm**-1
      0.37644 [    10]: 11112
      0.14739 [    11]: 11121
      0.06414 [     9]: 11022
      0.04450 [     6]: 10122
      0.04057 [    13]: 11211
      0.03869 [    28]: 21111
      0.03523 [     4]: 02121
      0.02688 [    12]: 11202
      0.02436 [     3]: 02112
      0.02428 [     0]: 01122
      0.02349 [    23]: 20121
      0.01907 [    16]: 12021
      0.01723 [    26]: 21021
      0.01636 [    15]: 12012
      0.01577 [    25]: 21012
      0.01461 [    19]: 12120
      0.01224 [    24]: 20211
      0.01196 [    22]: 20112
      0.00784 [    29]: 21120
      0.00729 [    31]: 21210
      0.00650 [     8]: 10221
      0.00475 [     7]: 10212
      0.00402 [    18]: 12111
      0.00386 [    34]: 22110
      0.00287 [    14]: 11220
      0.00281 [    20]: 12201
ROOT   3:  E=   -3418.8370104233 Eh  0.078 eV    625.3 cm**-1
      0.26518 [    11]: 11121
      0.14358 [     0]: 01122
      0.09639 [     6]: 10122
      0.05805 [    24]: 20211
      0.05232 [    28]: 21111
      0.04602 [     4]: 02121
      0.04335 [    13]: 11211
      0.03470 [     9]: 11022
      0.03248 [    16]: 12021
      0.02643 [    14]: 11220
      0.02585 [    23]: 20121
      0.02385 [    10]: 11112
      0.02162 [    29]: 21120
      0.01818 [    15]: 12012
      0.01716 [    22]: 20112
      0.01382 [     7]: 10212
      0.01380 [    25]: 21012
      0.00988 [    27]: 21102
      0.00952 [    32]: 22011
      0.00925 [     5]: 02211
      0.00904 [     3]: 02112
      0.00689 [    17]: 12102
      0.00475 [     8]: 10221
      0.00264 [    18]: 12111
      0.00263 [    33]: 22101
      0.00262 [    31]: 21210
      0.00261 [     1]: 01212
ROOT   4:  E=   -3418.8363800461 Eh  0.095 eV    763.7 cm**-1
      0.21915 [     2]: 01221
      0.17797 [    10]: 11112
      0.10812 [     8]: 10221
      0.07323 [    28]: 21111
      0.06122 [    11]: 11121
      0.05288 [    22]: 20112
      0.05191 [     6]: 10122
      0.04022 [    26]: 21021
      0.03470 [    18]: 12111
      0.02700 [    13]: 11211
      0.02649 [     1]: 01212
      0.01790 [    25]: 21012
      0.01681 [    30]: 21201
      0.01382 [    16]: 12021
      0.01043 [    17]: 12102
      0.01031 [    32]: 22011
      0.01013 [     4]: 02121
      0.00733 [     3]: 02112
      0.00575 [    34]: 22110
      0.00533 [    14]: 11220
      0.00484 [     0]: 01122
      0.00431 [    15]: 12012
      0.00386 [     9]: 11022
      0.00384 [    20]: 12201
ROOT   5:  E=   -3418.8352570045 Eh  0.125 eV   1010.2 cm**-1
      0.15313 [    28]: 21111
      0.10417 [     8]: 10221
      0.06840 [    29]: 21120
      0.06680 [    10]: 11112
      0.06480 [    27]: 21102
      0.06369 [    14]: 11220
      0.05730 [    15]: 12012
      0.04957 [    18]: 12111
      0.04163 [    26]: 21021
      0.03995 [    30]: 21201
      0.03919 [     7]: 10212
      0.03507 [    16]: 12021
      0.03283 [    34]: 22110
      0.02817 [    31]: 21210
      0.02682 [     3]: 02112
      0.02635 [    11]: 11121
      0.01939 [    13]: 11211
      0.01385 [    23]: 20121
      0.01239 [    17]: 12102
      0.01064 [    19]: 12120
      0.00872 [    32]: 22011
      0.00779 [    12]: 11202
      0.00653 [     0]: 01122
      0.00548 [    25]: 21012
      0.00388 [     6]: 10122
      0.00365 [    21]: 12210
      0.00342 [    20]: 12201
ROOT   6:  E=   -3418.8335308119 Eh  0.172 eV   1389.0 cm**-1
      0.22259 [    13]: 11211
      0.10584 [    14]: 11220
      0.09636 [    18]: 12111
      0.07472 [    11]: 11121
      0.07296 [    28]: 21111
      0.05660 [    12]: 11202
      0.05616 [    23]: 20121
      0.05089 [    24]: 20211
      0.02601 [     3]: 02112
      0.02595 [    30]: 21201
      0.02122 [    22]: 20112
      0.01897 [     1]: 01212
      0.01868 [    17]: 12102
      0.01661 [    33]: 22101
      0.01651 [     7]: 10212
      0.01456 [    25]: 21012
      0.01263 [    20]: 12201
      0.01227 [    19]: 12120
      0.01163 [    10]: 11112
      0.01046 [    15]: 12012
      0.00821 [    16]: 12021
      0.00758 [    32]: 22011
      0.00704 [     5]: 02211
      0.00685 [    29]: 21120
      0.00671 [    21]: 12210
      0.00602 [    31]: 21210
      0.00524 [    27]: 21102
      0.00374 [     4]: 02121
      0.00355 [     2]: 01221
ROOT   7:  E=   -3418.8312194008 Eh  0.235 eV   1896.3 cm**-1
      0.28609 [    18]: 12111
      0.09103 [     3]: 02112
      0.08732 [    31]: 21210
      0.07589 [    10]: 11112
      0.04692 [     4]: 02121
      0.04229 [     1]: 01212
      0.04104 [    30]: 21201
      0.03308 [    32]: 22011
      0.03308 [     2]: 01221
      0.03209 [    11]: 11121
      0.03118 [    19]: 12120
      0.02774 [    13]: 11211
      0.02499 [    24]: 20211
      0.01840 [    14]: 11220
      0.01767 [    28]: 21111
      0.01463 [    12]: 11202
      0.01314 [    17]: 12102
      0.01296 [    16]: 12021
      0.01172 [    20]: 12201
      0.01116 [    26]: 21021
      0.00759 [     8]: 10221
      0.00664 [    33]: 22101
      0.00605 [    34]: 22110
      0.00549 [    22]: 20112
      0.00502 [    23]: 20121
      0.00479 [    29]: 21120
      0.00421 [     9]: 11022
      0.00359 [    27]: 21102
      0.00309 [    25]: 21012
ROOT   8:  E=   -3418.8308891441 Eh  0.244 eV   1968.8 cm**-1
      0.14744 [    18]: 12111
      0.11663 [    10]: 11112
      0.09177 [    34]: 22110
      0.08829 [     3]: 02112
      0.07761 [    11]: 11121
      0.06650 [    28]: 21111
      0.06290 [    13]: 11211
      0.05934 [     9]: 11022
      0.04912 [     5]: 02211
      0.04103 [     8]: 10221
      0.03049 [    31]: 21210
      0.02957 [    12]: 11202
      0.02245 [    25]: 21012
      0.02186 [     2]: 01221
      0.02014 [    23]: 20121
      0.01090 [    19]: 12120
      0.00964 [    32]: 22011
      0.00880 [    22]: 20112
      0.00792 [     7]: 10212
      0.00653 [     0]: 01122
      0.00629 [    29]: 21120
      0.00626 [    20]: 12201
      0.00474 [    14]: 11220
      0.00368 [    15]: 12012
      0.00295 [    27]: 21102
ROOT   9:  E=   -3418.8307588628 Eh  0.248 eV   1997.4 cm**-1
      0.19608 [    13]: 11211
      0.08607 [     5]: 02211
      0.05785 [    32]: 22011
      0.05503 [    33]: 22101
      0.05464 [    28]: 21111
      0.05442 [     4]: 02121
      0.04765 [     8]: 10221
      0.04593 [    10]: 11112
      0.04375 [    18]: 12111
      0.04041 [    14]: 11220
      0.04026 [    17]: 12102
      0.02973 [    15]: 12012
      0.02836 [    34]: 22110
      0.02747 [    11]: 11121
      0.02648 [     0]: 01122
      0.02607 [     6]: 10122
      0.02349 [    25]: 21012
      0.02137 [    23]: 20121
      0.01816 [     7]: 10212
      0.01706 [    19]: 12120
      0.01189 [    31]: 21210
      0.01074 [     3]: 02112
      0.00947 [     1]: 01212
      0.00839 [    24]: 20211
      0.00528 [     2]: 01221
      0.00379 [     9]: 11022
      0.00292 [    12]: 11202
      0.00275 [    26]: 21021
ROOT  10:  E=   -3418.8302768626 Eh  0.261 eV   2103.2 cm**-1
      0.13292 [    15]: 12012
      0.07605 [     1]: 01212
      0.07470 [    32]: 22011
      0.06067 [    28]: 21111
      0.05916 [    13]: 11211
      0.05367 [     2]: 01221
      0.05332 [     8]: 10221
      0.04613 [    21]: 12210
      0.04582 [    11]: 11121
      0.04526 [    10]: 11112
      0.04219 [    18]: 12111
      0.03285 [     6]: 10122
      0.03133 [    33]: 22101
      0.02736 [    26]: 21021
      0.02422 [    23]: 20121
      0.02386 [     4]: 02121
      0.02355 [    29]: 21120
      0.02329 [    24]: 20211
      0.02140 [     0]: 01122
      0.01931 [    14]: 11220
      0.01385 [    19]: 12120
      0.01236 [    17]: 12102
      0.01124 [     7]: 10212
      0.01014 [    20]: 12201
      0.01004 [     3]: 02112
      0.00528 [    12]: 11202
      0.00525 [    34]: 22110
      0.00497 [    25]: 21012
      0.00346 [     9]: 11022
      0.00322 [     5]: 02211
ROOT  11:  E=   -3418.8284551206 Eh  0.310 eV   2503.0 cm**-1
      0.13437 [    10]: 11112
      0.10772 [    11]: 11121
      0.10473 [    28]: 21111
      0.07599 [    13]: 11211
      0.06243 [     8]: 10221
      0.05312 [    14]: 11220
      0.05004 [    29]: 21120
      0.04618 [    25]: 21012
      0.04413 [    17]: 12102
      0.03455 [    31]: 21210
      0.03323 [     3]: 02112
      0.03132 [    26]: 21021
      0.02959 [    27]: 21102
      0.02826 [     9]: 11022
      0.02639 [    16]: 12021
      0.02405 [    18]: 12111
      0.01395 [     7]: 10212
      0.01319 [     0]: 01122
      0.01166 [     4]: 02121
      0.01036 [    32]: 22011
      0.00971 [    19]: 12120
      0.00867 [    33]: 22101
      0.00851 [     2]: 01221
      0.00777 [    34]: 22110
      0.00689 [    23]: 20121
      0.00536 [    21]: 12210
      0.00471 [    12]: 11202
      0.00332 [    22]: 20112
      0.00306 [     6]: 10122
      0.00304 [    20]: 12201
ROOT  12:  E=   -3418.8275917098 Eh  0.334 eV   2692.5 cm**-1
      0.24968 [    28]: 21111
      0.09893 [    13]: 11211
      0.09112 [    18]: 12111
      0.09098 [     8]: 10221
      0.07549 [    29]: 21120
      0.05441 [    15]: 12012
      0.04604 [     9]: 11022
      0.04059 [    27]: 21102
      0.03932 [    30]: 21201
      0.03386 [     0]: 01122
      0.02809 [    10]: 11112
      0.02465 [    34]: 22110
      0.02264 [     2]: 01221
      0.02011 [    33]: 22101
      0.01973 [     4]: 02121
      0.01434 [    16]: 12021
      0.01333 [     6]: 10122
      0.00971 [    31]: 21210
      0.00934 [    14]: 11220
      0.00587 [    11]: 11121
      0.00478 [     7]: 10212
      0.00262 [    17]: 12102
ROOT  13:  E=   -3418.8259279739 Eh  0.379 eV   3057.7 cm**-1
      0.18974 [    17]: 12102
      0.09172 [    11]: 11121
      0.08547 [    18]: 12111
      0.07048 [    13]: 11211
      0.06958 [    25]: 21012
      0.06408 [    19]: 12120
      0.06083 [    10]: 11112
      0.04367 [     9]: 11022
      0.03956 [    27]: 21102
      0.03275 [    23]: 20121
      0.03216 [    16]: 12021
      0.02594 [    28]: 21111
      0.02231 [     8]: 10221
      0.02074 [     6]: 10122
      0.01922 [    15]: 12012
      0.01866 [    29]: 21120
      0.01788 [     7]: 10212
      0.01591 [    12]: 11202
      0.01197 [    31]: 21210
      0.01094 [     0]: 01122
      0.00986 [     4]: 02121
      0.00856 [     1]: 01212
      0.00779 [    24]: 20211
      0.00694 [    34]: 22110
      0.00553 [    14]: 11220
      0.00369 [    22]: 20112
      0.00295 [     5]: 02211
      0.00285 [    30]: 21201
      0.00280 [    26]: 21021
ROOT  14:  E=   -3418.8247509951 Eh  0.411 eV   3316.0 cm**-1
      0.19034 [    11]: 11121
      0.15970 [    10]: 11112
      0.11277 [    24]: 20211
      0.08374 [    32]: 22011
      0.05930 [     1]: 01212
      0.05456 [    23]: 20121
      0.05433 [    28]: 21111
      0.03426 [    18]: 12111
      0.02933 [     8]: 10221
      0.02905 [     7]: 10212
      0.02740 [    13]: 11211
      0.02667 [     4]: 02121
      0.02398 [     0]: 01122
      0.02110 [    19]: 12120
      0.01940 [    25]: 21012
      0.01866 [    30]: 21201
      0.01297 [     9]: 11022
      0.00897 [    17]: 12102
      0.00626 [    14]: 11220
      0.00624 [     2]: 01221
      0.00565 [    29]: 21120
      0.00308 [    16]: 12021
      0.00292 [    20]: 12201
      0.00287 [    27]: 21102
ROOT  15:  E=   -3418.8243958061 Eh  0.421 eV   3393.9 cm**-1
      0.15720 [    34]: 22110
      0.15194 [    10]: 11112
      0.10281 [    18]: 12111
      0.09847 [     8]: 10221
      0.07249 [    13]: 11211
      0.06079 [     6]: 10122
      0.04613 [    15]: 12012
      0.03671 [     3]: 02112
      0.03630 [    28]: 21111
      0.03292 [    19]: 12120
      0.03242 [     1]: 01212
      0.02877 [     2]: 01221
      0.02387 [    11]: 11121
      0.02350 [     0]: 01122
      0.01993 [    33]: 22101
      0.01678 [    20]: 12201
      0.01087 [     5]: 02211
      0.00874 [    31]: 21210
      0.00818 [    26]: 21021
      0.00714 [     4]: 02121
      0.00584 [    17]: 12102
      0.00561 [    24]: 20211
ROOT  16:  E=   -3418.8232158365 Eh  0.453 eV   3652.9 cm**-1
      0.13780 [    15]: 12012
      0.11082 [    28]: 21111
      0.10543 [    30]: 21201
      0.08095 [     2]: 01221
      0.06538 [    32]: 22011
      0.06159 [    12]: 11202
      0.05470 [    11]: 11121
      0.04783 [     1]: 01212
      0.04368 [    31]: 21210
      0.03622 [     9]: 11022
      0.03378 [    14]: 11220
      0.03139 [    18]: 12111
      0.02657 [     0]: 01122
      0.02131 [    20]: 12201
      0.01872 [    21]: 12210
      0.01777 [    13]: 11211
      0.01284 [    34]: 22110
      0.01165 [    24]: 20211
      0.01069 [    16]: 12021
      0.01039 [     8]: 10221
      0.00859 [     3]: 02112
      0.00839 [    22]: 20112
      0.00739 [    25]: 21012
      0.00705 [     7]: 10212
      0.00703 [    19]: 12120
      0.00609 [    26]: 21021
      0.00415 [    10]: 11112
      0.00306 [    27]: 21102
      0.00301 [    23]: 20121
ROOT  17:  E=   -3418.8226704115 Eh  0.468 eV   3772.6 cm**-1
      0.13308 [    13]: 11211
      0.10280 [    31]: 21210
      0.08451 [    15]: 12012
      0.06438 [     3]: 02112
      0.05985 [    11]: 11121
      0.05741 [    33]: 22101
      0.04917 [     8]: 10221
      0.04802 [    18]: 12111
      0.04468 [     0]: 01122
      0.04229 [     7]: 10212
      0.03490 [    10]: 11112
      0.03122 [    29]: 21120
      0.02881 [     1]: 01212
      0.02411 [     4]: 02121
      0.01998 [    24]: 20211
      0.01910 [    23]: 20121
      0.01678 [    34]: 22110
      0.01629 [    28]: 21111
      0.01614 [    17]: 12102
      0.01426 [    25]: 21012
      0.01366 [    16]: 12021
      0.01360 [     5]: 02211
      0.01293 [    14]: 11220
      0.01204 [    32]: 22011
      0.01103 [    26]: 21021
      0.00629 [    30]: 21201
      0.00572 [    12]: 11202
      0.00543 [    20]: 12201
      0.00314 [    21]: 12210
      0.00313 [     2]: 01221
      0.00307 [    27]: 21102
ROOT  18:  E=   -3418.8212886158 Eh  0.505 eV   4075.9 cm**-1
      0.27924 [    13]: 11211
      0.15877 [    18]: 12111
      0.08097 [    31]: 21210
      0.06512 [     3]: 02112
      0.05122 [    17]: 12102
      0.04328 [    28]: 21111
      0.03806 [     9]: 11022
      0.03681 [    21]: 12210
      0.03453 [    22]: 20112
      0.02650 [    33]: 22101
      0.02379 [    11]: 11121
      0.02330 [    32]: 22011
      0.02293 [     8]: 10221
      0.01848 [    16]: 12021
      0.01689 [    10]: 11112
      0.01648 [    29]: 21120
      0.01212 [    27]: 21102
      0.00990 [     6]: 10122
      0.00702 [    25]: 21012
      0.00691 [     4]: 02121
      0.00529 [     1]: 01212
      0.00360 [    34]: 22110
      0.00273 [    15]: 12012
ROOT  19:  E=   -3418.8195640144 Eh  0.552 eV   4454.4 cm**-1
      0.29770 [    33]: 22101
      0.09619 [     3]: 02112
      0.08351 [     2]: 01221
      0.06486 [    27]: 21102
      0.06319 [    11]: 11121
      0.06002 [    13]: 11211
      0.05519 [    28]: 21111
      0.05418 [    22]: 20112
      0.03099 [    18]: 12111
      0.02645 [    17]: 12102
      0.02136 [    15]: 12012
      0.01449 [    12]: 11202
      0.01394 [    10]: 11112
      0.01345 [    30]: 21201
      0.01225 [    21]: 12210
      0.01138 [    29]: 21120
      0.01133 [     5]: 02211
      0.01120 [    32]: 22011
      0.01040 [    26]: 21021
      0.00846 [    31]: 21210
      0.00746 [     9]: 11022
      0.00741 [    20]: 12201
      0.00735 [     0]: 01122
      0.00439 [    14]: 11220
      0.00344 [    23]: 20121
ROOT  20:  E=   -3418.8180033948 Eh  0.595 eV   4796.9 cm**-1
      0.10571 [    13]: 11211
      0.09189 [    20]: 12201
      0.08663 [    16]: 12021
      0.07230 [    10]: 11112
      0.06929 [     2]: 01221
      0.06684 [    24]: 20211
      0.06142 [    33]: 22101
      0.05832 [    28]: 21111
      0.04374 [    11]: 11121
      0.04014 [     5]: 02211
      0.03276 [    22]: 20112
      0.02874 [     3]: 02112
      0.02785 [    30]: 21201
      0.02662 [    26]: 21021
      0.02647 [    12]: 11202
      0.02030 [    21]: 12210
      0.01898 [     0]: 01122
      0.01557 [    25]: 21012
      0.01482 [    34]: 22110
      0.01319 [    14]: 11220
      0.01275 [    18]: 12111
      0.01164 [     1]: 01212
      0.01072 [     4]: 02121
      0.00973 [    15]: 12012
      0.00881 [    19]: 12120
      0.00792 [    32]: 22011
      0.00687 [    23]: 20121
      0.00316 [     8]: 10221
      0.00270 [     7]: 10212
ROOT  21:  E=   -3418.8171565678 Eh  0.618 eV   4982.8 cm**-1
      0.18563 [    28]: 21111
      0.14763 [    14]: 11220
      0.10246 [    18]: 12111
      0.08539 [    11]: 11121
      0.05429 [    34]: 22110
      0.05301 [    21]: 12210
      0.04746 [    13]: 11211
      0.03684 [    17]: 12102
      0.03383 [    10]: 11112
      0.03101 [    26]: 21021
      0.03081 [    23]: 20121
      0.02855 [    31]: 21210
      0.02510 [     7]: 10212
      0.02376 [    29]: 21120
      0.01366 [     4]: 02121
      0.01312 [     6]: 10122
      0.01302 [    19]: 12120
      0.01270 [     0]: 01122
      0.00978 [    12]: 11202
      0.00865 [     2]: 01221
      0.00779 [     1]: 01212
      0.00588 [     9]: 11022
      0.00467 [     8]: 10221
      0.00461 [    20]: 12201
      0.00429 [    30]: 21201
      0.00400 [    33]: 22101
      0.00287 [    15]: 12012
      0.00266 [    22]: 20112
      0.00264 [    16]: 12021
ROOT  22:  E=   -3418.8164458639 Eh  0.637 eV   5138.7 cm**-1
      0.11967 [     1]: 01212
      0.09124 [    24]: 20211
      0.07670 [    15]: 12012
      0.07661 [    11]: 11121
      0.06636 [    26]: 21021
      0.04732 [    10]: 11112
      0.04678 [    18]: 12111
      0.04659 [    16]: 12021
      0.04134 [    32]: 22011
      0.03940 [    13]: 11211
      0.03860 [    25]: 21012
      0.03778 [     7]: 10212
      0.03236 [    28]: 21111
      0.03038 [     6]: 10122
      0.02424 [    34]: 22110
      0.02294 [    19]: 12120
      0.02088 [     4]: 02121
      0.01869 [     0]: 01122
      0.01733 [     5]: 02211
      0.01488 [     8]: 10221
      0.01323 [     9]: 11022
      0.01210 [    29]: 21120
      0.01194 [     3]: 02112
      0.01132 [    17]: 12102
      0.00805 [    31]: 21210
      0.00793 [    23]: 20121
      0.00699 [    12]: 11202
      0.00654 [     2]: 01221
      0.00348 [    22]: 20112
ROOT  23:  E=   -3418.8162852951 Eh  0.641 eV   5174.0 cm**-1
      0.14389 [    11]: 11121
      0.10226 [    28]: 21111
      0.08716 [    34]: 22110
      0.08051 [    32]: 22011
      0.07396 [    31]: 21210
      0.05908 [    16]: 12021
      0.05895 [    18]: 12111
      0.05338 [    24]: 20211
      0.04520 [    13]: 11211
      0.03946 [    19]: 12120
      0.03118 [    33]: 22101
      0.03013 [    22]: 20112
      0.02562 [    10]: 11112
      0.02364 [    27]: 21102
      0.02237 [     4]: 02121
      0.01664 [     6]: 10122
      0.01662 [     7]: 10212
      0.01382 [    21]: 12210
      0.01364 [    25]: 21012
      0.01309 [     8]: 10221
      0.01226 [    17]: 12102
      0.01029 [    15]: 12012
      0.00994 [    30]: 21201
      0.00349 [    26]: 21021
      0.00320 [    12]: 11202
      0.00292 [     5]: 02211
ROOT  24:  E=   -3418.8157679372 Eh  0.656 eV   5287.5 cm**-1
      0.10248 [    11]: 11121
      0.08082 [    14]: 11220
      0.08002 [    21]: 12210
      0.07807 [    28]: 21111
      0.07647 [    17]: 12102
      0.07553 [     7]: 10212
      0.07330 [    10]: 11112
      0.07237 [    13]: 11211
      0.05651 [    31]: 21210
      0.05005 [    29]: 21120
      0.03436 [     9]: 11022
      0.03244 [    19]: 12120
      0.02970 [     6]: 10122
      0.02661 [    27]: 21102
      0.01982 [     8]: 10221
      0.01944 [    18]: 12111
      0.01699 [    20]: 12201
      0.01455 [    33]: 22101
      0.01302 [     4]: 02121
      0.00974 [    32]: 22011
      0.00662 [    23]: 20121
      0.00582 [     5]: 02211
      0.00575 [    26]: 21021
      0.00375 [     2]: 01221
      0.00350 [    34]: 22110
      0.00295 [     1]: 01212
      0.00290 [    25]: 21012
ROOT  25:  E=   -3418.8147525682 Eh  0.683 eV   5510.4 cm**-1
      0.13996 [    32]: 22011
      0.11288 [    17]: 12102
      0.10952 [    28]: 21111
      0.10643 [    12]: 11202
      0.07261 [    10]: 11112
      0.07232 [    18]: 12111
      0.04879 [     5]: 02211
      0.04556 [     1]: 01212
      0.04268 [    13]: 11211
      0.03990 [    15]: 12012
      0.03502 [     7]: 10212
      0.02108 [    33]: 22101
      0.02097 [    22]: 20112
      0.02014 [     9]: 11022
      0.01750 [     6]: 10122
      0.01371 [    34]: 22110
      0.01154 [    19]: 12120
      0.00981 [    23]: 20121
      0.00831 [    29]: 21120
      0.00778 [     4]: 02121
      0.00613 [    14]: 11220
      0.00606 [    27]: 21102
      0.00554 [    21]: 12210
      0.00554 [    30]: 21201
      0.00458 [     0]: 01122
      0.00433 [    20]: 12201
      0.00319 [    24]: 20211
      0.00250 [    26]: 21021
ROOT  26:  E=   -3418.8139463382 Eh  0.705 eV   5687.3 cm**-1
      0.17811 [    10]: 11112
      0.14846 [    18]: 12111
      0.10312 [    20]: 12201
      0.07759 [    33]: 22101
      0.06288 [    27]: 21102
      0.04506 [    13]: 11211
      0.03614 [    12]: 11202
      0.03326 [    14]: 11220
      0.03108 [     4]: 02121
      0.03087 [    11]: 11121
      0.02722 [     2]: 01221
      0.02603 [    28]: 21111
      0.02263 [    25]: 21012
      0.02237 [     5]: 02211
      0.02152 [     1]: 01212
      0.01932 [    29]: 21120
      0.01466 [    26]: 21021
      0.01421 [    19]: 12120
      0.01396 [     0]: 01122
      0.01337 [     8]: 10221
      0.01085 [    17]: 12102
      0.01063 [    24]: 20211
      0.01028 [    31]: 21210
      0.00997 [    23]: 20121
      0.00483 [    32]: 22011
      0.00308 [    15]: 12012
      0.00279 [     9]: 11022
ROOT  27:  E=   -3418.8129267186 Eh  0.733 eV   5911.1 cm**-1
      0.14517 [    28]: 21111
      0.11936 [    10]: 11112
      0.08009 [    18]: 12111
      0.07335 [    12]: 11202
      0.06331 [    23]: 20121
      0.06264 [    21]: 12210
      0.05610 [    11]: 11121
      0.05236 [    20]: 12201
      0.04521 [    32]: 22011
      0.04110 [    17]: 12102
      0.03711 [     6]: 10122
      0.03312 [     7]: 10212
      0.03127 [    13]: 11211
      0.02967 [    33]: 22101
      0.01851 [    27]: 21102
      0.01274 [     9]: 11022
      0.01156 [    14]: 11220
      0.01152 [    30]: 21201
      0.01086 [    26]: 21021
      0.00917 [    19]: 12120
      0.00899 [     5]: 02211
      0.00800 [    16]: 12021
      0.00799 [     1]: 01212
      0.00724 [    24]: 20211
      0.00497 [     3]: 02112
      0.00382 [    22]: 20112
      0.00370 [     8]: 10221
ROOT  28:  E=   -3418.8111727991 Eh  0.781 eV   6296.0 cm**-1
      0.34497 [    18]: 12111
      0.18974 [    30]: 21201
      0.11539 [    28]: 21111
      0.06731 [    26]: 21021
      0.04936 [    19]: 12120
      0.03778 [     2]: 01221
      0.02339 [    20]: 12201
      0.02153 [     3]: 02112
      0.01836 [    11]: 11121
      0.01723 [    25]: 21012
      0.01704 [    31]: 21210
      0.01578 [    10]: 11112
      0.01053 [    33]: 22101
      0.00906 [     4]: 02121
      0.00884 [    29]: 21120
      0.00789 [    17]: 12102
      0.00697 [    12]: 11202
      0.00670 [    13]: 11211
      0.00532 [     6]: 10122
      0.00489 [     1]: 01212
      0.00476 [    22]: 20112
      0.00314 [    15]: 12012
      0.00308 [    32]: 22011
      0.00298 [    16]: 12021
ROOT  29:  E=   -3418.8105750934 Eh  0.797 eV   6427.2 cm**-1
      0.31659 [    13]: 11211
      0.13793 [    34]: 22110
      0.07128 [     3]: 02112
      0.05432 [    18]: 12111
      0.04785 [    25]: 21012
      0.04782 [     9]: 11022
      0.04152 [    28]: 21111
      0.03908 [    10]: 11112
      0.02778 [    24]: 20211
      0.02526 [    30]: 21201
      0.02526 [    11]: 11121
      0.02034 [    23]: 20121
      0.01921 [    21]: 12210
      0.01816 [    22]: 20112
      0.01778 [    12]: 11202
      0.01691 [    15]: 12012
      0.01428 [    33]: 22101
      0.01210 [     5]: 02211
      0.01130 [    31]: 21210
      0.01086 [     6]: 10122
      0.00570 [    29]: 21120
      0.00358 [    26]: 21021
      0.00336 [     1]: 01212
      0.00296 [     7]: 10212
      0.00296 [     8]: 10221
ROOT  30:  E=   -3418.7919206504 Eh  1.304 eV  10521.4 cm**-1
      0.12969 [    13]: 11211
      0.10912 [    18]: 12111
      0.09607 [     6]: 10122
      0.07967 [    25]: 21012
      0.07885 [    28]: 21111
      0.05851 [    11]: 11121
      0.04467 [    24]: 20211
      0.04432 [    23]: 20121
      0.04368 [     4]: 02121
      0.03243 [    27]: 21102
      0.03215 [     1]: 01212
      0.03133 [    19]: 12120
      0.03103 [    29]: 21120
      0.02807 [    32]: 22011
      0.02622 [    10]: 11112
      0.02596 [     9]: 11022
      0.02459 [     7]: 10212
      0.01943 [    15]: 12012
      0.01196 [    17]: 12102
      0.00881 [     2]: 01221
      0.00775 [    20]: 12201
      0.00746 [    12]: 11202
      0.00709 [    21]: 12210
      0.00681 [    31]: 21210
      0.00420 [     3]: 02112
      0.00328 [    14]: 11220
      0.00295 [     5]: 02211
ROOT  31:  E=   -3418.7907688941 Eh  1.336 eV  10774.2 cm**-1
      0.15256 [    28]: 21111
      0.13241 [    11]: 11121
      0.12307 [    10]: 11112
      0.06945 [     5]: 02211
      0.06054 [    20]: 12201
      0.05440 [    18]: 12111
      0.05014 [     0]: 01122
      0.04755 [    13]: 11211
      0.04447 [     2]: 01221
      0.03381 [    29]: 21120
      0.03378 [     3]: 02112
      0.03254 [    16]: 12021
      0.02289 [    14]: 11220
      0.02244 [    22]: 20112
      0.02130 [    26]: 21021
      0.02078 [    24]: 20211
      0.01680 [    32]: 22011
      0.01391 [    12]: 11202
      0.00956 [    19]: 12120
      0.00601 [     4]: 02121
      0.00569 [     7]: 10212
      0.00530 [    15]: 12012
      0.00467 [    21]: 12210
      0.00276 [    31]: 21210
      0.00255 [    25]: 21012
ROOT  32:  E=   -3418.7901303834 Eh  1.353 eV  10914.3 cm**-1
      0.10284 [    16]: 12021
      0.09529 [    27]: 21102
      0.08864 [    20]: 12201
      0.07234 [    11]: 11121
      0.06732 [     4]: 02121
      0.06279 [    21]: 12210
      0.06039 [     7]: 10212
      0.05913 [    18]: 12111
      0.05653 [    23]: 20121
      0.04600 [    13]: 11211
      0.04318 [    24]: 20211
      0.04292 [    25]: 21012
      0.04026 [    29]: 21120
      0.03703 [    28]: 21111
      0.03448 [     1]: 01212
      0.02763 [     5]: 02211
      0.01272 [     9]: 11022
      0.01219 [     0]: 01122
      0.00881 [    26]: 21021
      0.00669 [    14]: 11220
      0.00666 [    30]: 21201
      0.00373 [    19]: 12120
      0.00310 [     6]: 10122
      0.00277 [    31]: 21210
ROOT  33:  E=   -3418.7895184348 Eh  1.370 eV  11048.6 cm**-1
      0.12788 [    13]: 11211
      0.11721 [    10]: 11112
      0.10066 [    28]: 21111
      0.09104 [    18]: 12111
      0.07291 [    21]: 12210
      0.06520 [    11]: 11121
      0.05847 [    22]: 20112
      0.05625 [     7]: 10212
      0.05077 [    31]: 21210
      0.02857 [     4]: 02121
      0.02747 [     6]: 10122
      0.02617 [    23]: 20121
      0.02264 [    34]: 22110
      0.01710 [    16]: 12021
      0.01696 [    26]: 21021
      0.01530 [     5]: 02211
      0.01200 [    14]: 11220
      0.01191 [     2]: 01221
      0.01183 [    27]: 21102
      0.01138 [    25]: 21012
      0.01061 [     1]: 01212
      0.00713 [    12]: 11202
      0.00643 [    32]: 22011
      0.00610 [     3]: 02112
      0.00578 [    30]: 21201
      0.00545 [    20]: 12201
      0.00344 [     9]: 11022
      0.00295 [    19]: 12120
      0.00272 [    15]: 12012
ROOT  34:  E=   -3418.7873667016 Eh  1.428 eV  11520.9 cm**-1
      0.22590 [    18]: 12111
      0.19933 [    10]: 11112
      0.12706 [    28]: 21111
      0.07978 [    30]: 21201
      0.06797 [    26]: 21021
      0.03686 [    33]: 22101
      0.02786 [     1]: 01212
      0.02457 [    11]: 11121
      0.02396 [    19]: 12120
      0.02301 [    22]: 20112
      0.02241 [    31]: 21210
      0.02226 [     4]: 02121
      0.01871 [    14]: 11220
      0.01321 [     2]: 01221
      0.01320 [    32]: 22011
      0.01070 [    13]: 11211
      0.01027 [    24]: 20211
      0.00939 [    17]: 12102
      0.00922 [     6]: 10122
      0.00714 [    21]: 12210
      0.00665 [    34]: 22110
      0.00499 [    12]: 11202
      0.00439 [    23]: 20121
ROOT  35:  E=   -3418.7285762373 Eh  3.028 eV  24423.9 cm**-1
      0.25874 [     5]: 02211
      0.20257 [     4]: 02121
      0.08937 [     3]: 02112
      0.05767 [     1]: 01212
      0.04895 [    22]: 20112
      0.04588 [    23]: 20121
      0.03709 [     2]: 01221
      0.03186 [    33]: 22101
      0.02881 [    30]: 21201
      0.02403 [     0]: 01122
      0.02401 [    34]: 22110
      0.01785 [    26]: 21021
      0.01709 [    25]: 21012
      0.01561 [    27]: 21102
      0.01362 [    19]: 12120
      0.01334 [    32]: 22011
      0.01069 [    24]: 20211
      0.00572 [    12]: 11202
      0.00569 [    21]: 12210
      0.00561 [    31]: 21210
      0.00527 [    11]: 11121
      0.00523 [    13]: 11211
      0.00510 [    10]: 11112
      0.00476 [    28]: 21111
      0.00429 [    29]: 21120
      0.00427 [     7]: 10212
      0.00362 [     9]: 11022
      0.00281 [    18]: 12111
ROOT  36:  E=   -3418.7223187479 Eh  3.198 eV  25797.3 cm**-1
      0.20665 [    27]: 21102
      0.16504 [    25]: 21012
      0.08928 [    29]: 21120
      0.08481 [     0]: 01122
      0.05154 [     1]: 01212
      0.04099 [    11]: 11121
      0.03786 [    31]: 21210
      0.03626 [    12]: 11202
      0.02651 [    13]: 11211
      0.02400 [     7]: 10212
      0.02400 [     4]: 02121
      0.02288 [     3]: 02112
      0.02195 [    19]: 12120
      0.02175 [    22]: 20112
      0.01964 [    21]: 12210
      0.01910 [    18]: 12111
      0.01844 [    28]: 21111
      0.01326 [    16]: 12021
      0.01248 [    30]: 21201
      0.01075 [    10]: 11112
      0.01037 [     6]: 10122
      0.00908 [    34]: 22110
      0.00845 [    15]: 12012
      0.00656 [    23]: 20121
      0.00624 [    26]: 21021
      0.00566 [     9]: 11022
ROOT  37:  E=   -3418.7217553760 Eh  3.214 eV  25920.9 cm**-1
      0.18039 [    19]: 12120
      0.12218 [    21]: 12210
      0.11132 [    17]: 12102
      0.08461 [    12]: 11202
      0.07643 [     6]: 10122
      0.04287 [     1]: 01212
      0.04134 [    27]: 21102
      0.03788 [     9]: 11022
      0.03741 [    26]: 21021
      0.03550 [    11]: 11121
      0.03320 [    20]: 12201
      0.03200 [    10]: 11112
      0.03119 [     5]: 02211
      0.02708 [    13]: 11211
      0.01512 [     2]: 01221
      0.01294 [    15]: 12012
      0.01098 [    18]: 12111
      0.01022 [    14]: 11220
      0.00881 [    28]: 21111
      0.00740 [     4]: 02121
      0.00728 [     3]: 02112
      0.00640 [    33]: 22101
      0.00556 [     0]: 01122
      0.00473 [     8]: 10221
      0.00399 [    32]: 22011
      0.00389 [     7]: 10212
ROOT  38:  E=   -3418.7203024902 Eh  3.253 eV  26239.8 cm**-1
      0.10884 [    20]: 12201
      0.08688 [    30]: 21201
      0.06504 [    16]: 12021
      0.06237 [    10]: 11112
      0.05637 [    18]: 12111
      0.05549 [     2]: 01221
      0.05011 [     5]: 02211
      0.04393 [    25]: 21012
      0.04283 [    21]: 12210
      0.04166 [    32]: 22011
      0.03751 [    31]: 21210
      0.03491 [     8]: 10221
      0.03411 [    26]: 21021
      0.02986 [    13]: 11211
      0.02921 [     4]: 02121
      0.02889 [    19]: 12120
      0.02880 [     1]: 01212
      0.02544 [    23]: 20121
      0.02358 [    15]: 12012
      0.02342 [     7]: 10212
      0.01399 [    11]: 11121
      0.01301 [    29]: 21120
      0.01074 [    24]: 20211
      0.01061 [     3]: 02112
      0.01016 [     9]: 11022
      0.00923 [    28]: 21111
      0.00851 [    33]: 22101
      0.00817 [     0]: 01122
      0.00320 [    22]: 20112
ROOT  39:  E=   -3418.7179688368 Eh  3.317 eV  26752.0 cm**-1
      0.25909 [    22]: 20112
      0.08321 [     9]: 11022
      0.07939 [    12]: 11202
      0.06155 [    14]: 11220
      0.06027 [    30]: 21201
      0.03950 [     6]: 10122
      0.03561 [     3]: 02112
      0.03459 [    18]: 12111
      0.03305 [    24]: 20211
      0.03226 [    34]: 22110
      0.03194 [     7]: 10212
      0.02676 [    10]: 11112
      0.02400 [    28]: 21111
      0.02048 [    26]: 21021
      0.01920 [    25]: 21012
      0.01878 [     5]: 02211
      0.01870 [    23]: 20121
      0.01305 [    16]: 12021
      0.01270 [     8]: 10221
      0.01259 [    31]: 21210
      0.01217 [     2]: 01221
      0.01077 [    19]: 12120
      0.00968 [    32]: 22011
      0.00953 [     4]: 02121
      0.00924 [     1]: 01212
      0.00681 [    29]: 21120
      0.00532 [    17]: 12102
      0.00478 [    13]: 11211
      0.00429 [     0]: 01122
      0.00353 [    20]: 12201
      0.00329 [    15]: 12012
ROOT  40:  E=   -3418.7174896976 Eh  3.330 eV  26857.1 cm**-1
      0.17463 [    12]: 11202
      0.12828 [    22]: 20112
      0.10742 [    14]: 11220
      0.10138 [     9]: 11022
      0.07391 [    28]: 21111
      0.04625 [    20]: 12201
      0.04412 [    21]: 12210
      0.03395 [    19]: 12120
      0.03200 [    29]: 21120
      0.02463 [     7]: 10212
      0.02192 [    10]: 11112
      0.02045 [    26]: 21021
      0.02021 [     3]: 02112
      0.01917 [    27]: 21102
      0.01910 [    24]: 20211
      0.01891 [    33]: 22101
      0.01548 [    23]: 20121
      0.01424 [    34]: 22110
      0.01192 [    17]: 12102
      0.01170 [    25]: 21012
      0.00929 [    11]: 11121
      0.00911 [     4]: 02121
      0.00719 [     5]: 02211
      0.00690 [     0]: 01122
      0.00630 [    13]: 11211
      0.00466 [     8]: 10221
      0.00348 [    18]: 12111
      0.00290 [     6]: 10122
      0.00257 [    32]: 22011
ROOT  41:  E=   -3418.7144935124 Eh  3.411 eV  27514.7 cm**-1
      0.10922 [    23]: 20121
      0.09750 [    20]: 12201
      0.07512 [     5]: 02211
      0.07182 [     7]: 10212
      0.06735 [    24]: 20211
      0.06419 [    11]: 11121
      0.05404 [    25]: 21012
      0.04614 [    27]: 21102
      0.03953 [    21]: 12210
      0.03757 [    16]: 12021
      0.03621 [    28]: 21111
      0.03551 [    18]: 12111
      0.03209 [    13]: 11211
      0.02949 [    26]: 21021
      0.02537 [    15]: 12012
      0.02374 [     1]: 01212
      0.02155 [     4]: 02121
      0.01944 [    33]: 22101
      0.01532 [    17]: 12102
      0.01340 [    29]: 21120
      0.01174 [    34]: 22110
      0.01114 [    31]: 21210
      0.00936 [     8]: 10221
      0.00909 [    22]: 20112
      0.00845 [    14]: 11220
      0.00776 [    30]: 21201
      0.00737 [    19]: 12120
      0.00709 [    32]: 22011
      0.00434 [     0]: 01122
ROOT  42:  E=   -3418.7138155372 Eh  3.430 eV  27663.5 cm**-1
      0.13416 [    26]: 21021
      0.07899 [    34]: 22110
      0.07808 [    19]: 12120
      0.07490 [    21]: 12210
      0.06717 [    29]: 21120
      0.06557 [     6]: 10122
      0.05295 [    16]: 12021
      0.04955 [     7]: 10212
      0.04150 [    30]: 21201
      0.04112 [     9]: 11022
      0.04066 [    28]: 21111
      0.03792 [    13]: 11211
      0.03612 [    20]: 12201
      0.03577 [    15]: 12012
      0.03077 [    17]: 12102
      0.02134 [     2]: 01221
      0.02084 [    31]: 21210
      0.01668 [    10]: 11112
      0.01588 [     3]: 02112
      0.01148 [    33]: 22101
      0.01121 [    11]: 11121
      0.00977 [    12]: 11202
      0.00806 [    25]: 21012
      0.00399 [    23]: 20121
      0.00391 [    32]: 22011
      0.00315 [     8]: 10221
      0.00298 [     4]: 02121
ROOT  43:  E=   -3418.7111910117 Eh  3.501 eV  28239.5 cm**-1
      0.10824 [    23]: 20121
      0.10074 [    16]: 12021
      0.10024 [    24]: 20211
      0.08410 [    32]: 22011
      0.07772 [     5]: 02211
      0.06266 [    20]: 12201
      0.04912 [    11]: 11121
      0.04570 [     4]: 02121
      0.04068 [     6]: 10122
      0.03750 [    25]: 21012
      0.03535 [    15]: 12012
      0.03519 [    21]: 12210
      0.03202 [    28]: 21111
      0.03038 [    27]: 21102
      0.02724 [    33]: 22101
      0.01746 [    17]: 12102
      0.01533 [    10]: 11112
      0.01468 [     7]: 10212
      0.01202 [    22]: 20112
      0.01147 [    26]: 21021
      0.01063 [     8]: 10221
      0.00997 [    18]: 12111
      0.00913 [    13]: 11211
      0.00617 [    19]: 12120
      0.00614 [    31]: 21210
      0.00528 [    34]: 22110
      0.00462 [     9]: 11022
      0.00359 [     0]: 01122
ROOT  44:  E=   -3418.7086759615 Eh  3.570 eV  28791.5 cm**-1
      0.12034 [    26]: 21021
      0.07978 [    29]: 21120
      0.06693 [    19]: 12120
      0.06582 [    21]: 12210
      0.06088 [    30]: 21201
      0.06087 [    31]: 21210
      0.05688 [    25]: 21012
      0.05116 [    16]: 12021
      0.05038 [    22]: 20112
      0.04675 [    13]: 11211
      0.03738 [    34]: 22110
      0.03487 [    20]: 12201
      0.03034 [     9]: 11022
      0.02640 [    23]: 20121
      0.02310 [    27]: 21102
      0.02101 [     8]: 10221
      0.01845 [     4]: 02121
      0.01841 [     1]: 01212
      0.01745 [     7]: 10212
      0.01726 [    28]: 21111
      0.01510 [    12]: 11202
      0.01420 [    18]: 12111
      0.01114 [    11]: 11121
      0.01098 [     0]: 01122
      0.01013 [     2]: 01221
      0.01010 [    24]: 20211
      0.00945 [    33]: 22101
      0.00438 [    10]: 11112
      0.00259 [     5]: 02211
      0.00255 [    14]: 11220

                 <<<<<<<<<<<<<<<<<<INITIAL CI STATE CHECK>>>>>>>>>>>>>>>>>>

   E(CAS)= -3418.848726137 Eh DE=    0.000000e+00
   --- Energy gap subspaces: Ext-Act = 0.177   Act-Int = 0.072
   N(occ)=  1.20000 1.20000 1.20000 1.20000 1.20000
   ||g|| =     2.770159e+00 Max(G)=   -4.774172e-01 Rot=592,1
   --- Orbital Update [SuperCI(PT)]
   --- Canonicalize Internal Space
   --- Canonicalize External Space
   --- SX_PT (Skipped TA=0 IT=0): ||X|| =      0.576824310 Max(X)(163,161) =     -0.095074559 
   --- SFit(Active Orbitals)

MACRO-ITERATION   2: 
   --- Inactive Energy E0 = -3404.52386362 Eh
CI-ITERATION   0: 
 -3419.391927125   0.000000000000 (    0.00)
 -3419.388865549   0.000000000000
 -3419.386645997   0.000000000000
 -3419.382324845   0.000000000000
 -3419.380309844   0.000000000000
   CI-PROBLEM SOLVED
   DENSITIES MADE
CI-ITERATION   0: 
 -3419.309211816   0.000000000000 (    0.00)
 -3419.308349801   0.000000000000
 -3419.308023662   0.000000000000
 -3419.306922408   0.000000000000
 -3419.305926841   0.000000000000
 -3419.304926852   0.000000000000
 -3419.304342290   0.000000000000
 -3419.302349448   0.000000000000
 -3419.301815724   0.000000000000
 -3419.299984320   0.000000000000
 -3419.299413840   0.000000000000
 -3419.295582466   0.000000000000
 -3419.294837074   0.000000000000
 -3419.294379270   0.000000000000
 -3419.293509365   0.000000000000
 -3419.291304701   0.000000000000
 -3419.290486076   0.000000000000
 -3419.289805385   0.000000000000
 -3419.288759662   0.000000000000
 -3419.288118111   0.000000000000
 -3419.287449263   0.000000000000
 -3419.283668684   0.000000000000
 -3419.281741667   0.000000000000
 -3419.281243176   0.000000000000
 -3419.280692641   0.000000000000
 -3419.278280454   0.000000000000
 -3419.276999985   0.000000000000
 -3419.276792691   0.000000000000
 -3419.276018146   0.000000000000
 -3419.275787483   0.000000000000
 -3419.252739186   0.000000000000
 -3419.249040687   0.000000000000
 -3419.248253053   0.000000000000
 -3419.247066129   0.000000000000
 -3419.246294623   0.000000000000
 -3419.169236115   0.000000000000
 -3419.167492157   0.000000000000
 -3419.162937621   0.000000000000
 -3419.160410555   0.000000000000
 -3419.158342558   0.000000000000
 -3419.157162563   0.000000000000
 -3419.155659086   0.000000000000
 -3419.152169165   0.000000000000
 -3419.148435548   0.000000000000
 -3419.144336984   0.000000000000
   CI-PROBLEM SOLVED
   DENSITIES MADE
   E(CAS)= -3419.321855106 Eh DE=   -4.731290e-01
   --- Energy gap subspaces: Ext-Act = 0.323   Act-Int = -0.092
   N(occ)=  1.20000 1.20000 1.20000 1.20000 1.20000
   ||g|| =     1.017384e+00 Max(G)=   -9.753330e-02 Rot=167,162
   --- Orbital Update [SuperCI(PT)]
   --- Canonicalize Internal Space
   --- Canonicalize External Space
   --- SX_PT (Skipped TA=0 IT=0): ||X|| =      0.221156162 Max(X)(167,162) =     -0.058621559 
   --- SFit(Active Orbitals)

MACRO-ITERATION   3: 
   --- Inactive Energy E0 = -3404.50100620 Eh
CI-ITERATION   0: 
 -3419.448220815   0.000000000000 (    0.00)
 -3419.445445408   0.000000000000
 -3419.443937584   0.000000000000
 -3419.443183439   0.000000000000
 -3419.440195957   0.000000000000
   CI-PROBLEM SOLVED
   DENSITIES MADE
CI-ITERATION   0: 
 -3419.355916143   0.000000000000 (    0.00)
 -3419.355604359   0.000000000000
 -3419.354962069   0.000000000000
 -3419.354528251   0.000000000000
 -3419.353222083   0.000000000000
 -3419.353137890   0.000000000000
 -3419.352439070   0.000000000000
 -3419.351416238   0.000000000000
 -3419.350770092   0.000000000000
 -3419.349555169   0.000000000000
 -3419.349420394   0.000000000000
 -3419.344119974   0.000000000000
[...]
      dx2y2   :     2.001416
      dxy     :     1.979040
      f0      :     0.000637  f :     0.004480
      f+1     :     0.000737
      f-1     :     0.000719
      f+2     :     0.000714
      f-2     :     0.000637
      f+3     :     0.000577
      f-3     :     0.000459
 16 Fes       :     6.258819  s :     6.258819
      pz      :     4.184202  p :    12.597551
      px      :     4.174473
      py      :     4.238876
      dz2     :     1.458129  d :     7.229166
      dxz     :     1.420003
      dyz     :     1.486686
      dx2y2   :     1.413438
      dxy     :     1.450909
      f0      :     0.000048  f :     0.000430
      f+1     :     0.000051
      f-1     :     0.000088
      f+2     :     0.000060
      f-2     :     0.000049
      f+3     :     0.000082
      f-3     :     0.000052

SPIN
  0 Aus       :     0.000250  s :     0.000250
      pz      :     0.000271  p :     0.000691
      px      :     0.000068
      py      :     0.000352
      dz2     :     0.000040  d :     0.000257
      dxz     :     0.000071
      dyz     :     0.000023
      dx2y2   :     0.000058
      dxy     :     0.000065
      f0      :     0.000000  f :     0.000002
      f+1     :     0.000000
      f-1     :     0.000000
      f+2     :     0.000000
      f-2     :     0.000000
      f+3     :     0.000001
      f-3     :     0.000000
  1 Aus       :     0.001005  s :     0.001005
      pz      :     0.000567  p :     0.001351
      px      :     0.000156
      py      :     0.000628
      dz2     :     0.000814  d :     0.005909
      dxz     :     0.000860
      dyz     :     0.002748
      dx2y2   :     0.000818
      dxy     :     0.000668
      f0      :     0.000008  f :     0.000111
      f+1     :     0.000007
      f-1     :     0.000040
      f+2     :     0.000027
      f-2     :     0.000019
      f+3     :     0.000007
      f-3     :     0.000003
  2 Aus       :     0.001303  s :     0.001303
      pz      :     0.000372  p :     0.001933
      px      :     0.000936
      py      :     0.000625
      dz2     :     0.000853  d :     0.003016
      dxz     :     0.001584
      dyz     :     0.000208
      dx2y2   :     0.000205
      dxy     :     0.000167
      f0      :     0.000003  f :     0.000037
      f+1     :     0.000024
      f-1     :     0.000000
      f+2     :     0.000007
      f-2     :     0.000001
      f+3     :     0.000001
      f-3     :     0.000001
  3 Aus       :     0.001092  s :     0.001092
      pz      :     0.000383  p :     0.001579
      px      :     0.000185
      py      :     0.001011
      dz2     :     0.000136  d :     0.000757
      dxz     :     0.000238
      dyz     :     0.000067
      dx2y2   :     0.000199
      dxy     :     0.000118
      f0      :     0.000000  f :     0.000002
      f+1     :     0.000000
      f-1     :     0.000000
      f+2     :     0.000001
      f-2     :     0.000000
      f+3     :     0.000000
      f-3     :     0.000000
  4 Aus       :     0.001054  s :     0.001054
      pz      :     0.000651  p :     0.001310
      px      :     0.000116
      py      :     0.000543
      dz2     :     0.000077  d :     0.000410
      dxz     :     0.000119
      dyz     :     0.000096
      dx2y2   :     0.000028
      dxy     :     0.000090
      f0      :     0.000000  f :     0.000002
      f+1     :     0.000000
      f-1     :     0.000000
      f+2     :     0.000000
      f-2     :     0.000001
      f+3     :     0.000000
      f-3     :     0.000000
  5 Aus       :     0.001367  s :     0.001367
      pz      :     0.000884  p :     0.002346
      px      :     0.001197
      py      :     0.000265
      dz2     :     0.000042  d :     0.000532
      dxz     :     0.000117
      dyz     :     0.000185
      dx2y2   :     0.000071
      dxy     :     0.000117
      f0      :     0.000001  f :     0.000003
      f+1     :     0.000001
      f-1     :     0.000000
      f+2     :     0.000000
      f-2     :     0.000000
      f+3     :     0.000000
      f-3     :     0.000001
  6 Aus       :     0.001325  s :     0.001325
      pz      :     0.001008  p :     0.002235
      px      :     0.000179
      py      :     0.001049
      dz2     :     0.001434  d :     0.006870
      dxz     :     0.000265
      dyz     :     0.001132
      dx2y2   :     0.002197
      dxy     :     0.001842
      f0      :     0.000011  f :     0.000108
      f+1     :     0.000003
      f-1     :     0.000020
      f+2     :     0.000013
      f-2     :     0.000007
      f+3     :     0.000033
      f-3     :     0.000021
  7 Aus       :     0.000806  s :     0.000806
      pz      :     0.000545  p :     0.002500
      px      :     0.001340
      py      :     0.000615
      dz2     :     0.000816  d :     0.006805
      dxz     :     0.001135
      dyz     :     0.001021
      dx2y2   :     0.001192
      dxy     :     0.002641
      f0      :     0.000010  f :     0.000107
      f+1     :     0.000009
      f-1     :     0.000014
      f+2     :     0.000003
      f-2     :     0.000017
      f+3     :     0.000027
      f-3     :     0.000026
  8 Aus       :     0.001921  s :     0.001921
      pz      :     0.000496  p :     0.002172
      px      :     0.000384
      py      :     0.001292
      dz2     :     0.000284  d :     0.000854
      dxz     :     0.000203
      dyz     :     0.000186
      dx2y2   :     0.000083
      dxy     :     0.000098
      f0      :     0.000000  f :     0.000003
      f+1     :     0.000001
      f-1     :     0.000000
      f+2     :     0.000000
      f-2     :     0.000000
      f+3     :     0.000000
      f-3     :     0.000000
  9 Aus       :     0.001438  s :     0.001438
      pz      :     0.000247  p :     0.001559
      px      :     0.000355
      py      :     0.000958
      dz2     :     0.000152  d :     0.000607
      dxz     :     0.000134
      dyz     :     0.000040
      dx2y2   :     0.000082
      dxy     :     0.000199
      f0      :     0.000000  f :     0.000002
      f+1     :     0.000000
      f-1     :     0.000001
      f+2     :     0.000001
      f-2     :     0.000000
      f+3     :     0.000000
      f-3     :     0.000000
 10 Aus       :     0.001273  s :     0.001273
      pz      :     0.001033  p :     0.001634
      px      :     0.000306
      py      :     0.000295
      dz2     :     0.000076  d :     0.000750
      dxz     :     0.000201
      dyz     :     0.000191
      dx2y2   :     0.000110
      dxy     :     0.000172
      f0      :     0.000001  f :     0.000003
      f+1     :     0.000000
      f-1     :     0.000000
      f+2     :     0.000001
      f-2     :     0.000001
      f+3     :     0.000001
      f-3     :     0.000000
 11 Aus       :     0.001328  s :     0.001328
      pz      :     0.000648  p :     0.001165
      px      :     0.000101
      py      :     0.000416
      dz2     :     0.001752  d :     0.005290
      dxz     :     0.001295
      dyz     :     0.001731
      dx2y2   :     0.000245
      dxy     :     0.000267
      f0      :     0.000010  f :     0.000081
      f+1     :     0.000022
      f-1     :     0.000029
      f+2     :     0.000004
      f-2     :     0.000013
      f+3     :     0.000001
      f-3     :     0.000001
 12 Aus       :     0.001211  s :     0.001211
      pz      :     0.000840  p :     0.001720
      px      :     0.000366
      py      :     0.000514
      dz2     :     0.000909  d :     0.006078
      dxz     :     0.002595
      dyz     :     0.000463
      dx2y2   :     0.001588
      dxy     :     0.000523
      f0      :     0.000013  f :     0.000097
      f+1     :     0.000015
      f-1     :     0.000000
      f+2     :     0.000035
      f-2     :     0.000008
      f+3     :     0.000021
      f-3     :     0.000004
 13 Aus       :     0.001385  s :     0.001385
      pz      :     0.000459  p :     0.001873
      px      :     0.000516
      py      :     0.000898
      dz2     :     0.000801  d :     0.007305
      dxz     :     0.000666
      dyz     :     0.001421
      dx2y2   :     0.002498
      dxy     :     0.001920
      f0      :     0.000014  f :     0.000127
      f+1     :     0.000004
      f-1     :     0.000018
      f+2     :     0.000014
      f-2     :     0.000017
      f+3     :     0.000041
      f-3     :     0.000021
 14 Aus       :     0.000924  s :     0.000924
      pz      :     0.001384  p :     0.002568
      px      :     0.000788
      py      :     0.000396
      dz2     :     0.001878  d :     0.006749
      dxz     :     0.001183
      dyz     :     0.002672
      dx2y2   :     0.000682
      dxy     :     0.000335
      f0      :     0.000019  f :     0.000107
      f+1     :     0.000009
      f-1     :     0.000041
      f+2     :     0.000020
      f-2     :     0.000013
      f+3     :     0.000002
      f-3     :     0.000004
 15 Aus       :     0.000765  s :     0.000765
      pz      :     0.000700  p :     0.001516
      px      :     0.000440
      py      :     0.000376
      dz2     :     0.000772  d :     0.004628
      dxz     :     0.000248
      dyz     :     0.000511
      dx2y2   :     0.001059
      dxy     :     0.002038
      f0      :     0.000002  f :     0.000085
      f+1     :     0.000010
      f-1     :     0.000016
      f+2     :     0.000001
      f-2     :     0.000004
      f+3     :     0.000039
      f-3     :     0.000013
 16 Fes       :     0.000693  s :     0.000693
      pz      :     0.000674  p :     0.001125
      px      :     0.000141
      py      :     0.000309
      dz2     :     0.578376  d :     2.893888
      dxz     :     0.582795
      dyz     :     0.575216
      dx2y2   :     0.580755
      dxy     :     0.576747
      f0      :     0.000000  f :     0.000001
      f+1     :     0.000000
      f-1     :     0.000000
      f+2     :     0.000000
      f-2     :     0.000000
      f+3     :     0.000000
      f-3     :     0.000000


                      *****************************
                      * MAYER POPULATION ANALYSIS *
                      *****************************

  NA   - Mulliken gross atomic population
  ZA   - Total nuclear charge
  QA   - Mulliken gross atomic charge
  VA   - Mayer's total valence
  BVA  - Mayer's bonded valence
  FA   - Mayer's free valence

  ATOM       NA         ZA         QA         VA         BVA        FA
  0 Au    18.3622    19.0000     0.6378     0.8746     0.8739     0.0007
  1 Au    18.6679    19.0000     0.3321     1.2828     1.2763     0.0066
  2 Au    18.7064    19.0000     0.2936     1.4345     1.4301     0.0043
  3 Au    19.4062    19.0000    -0.4062     2.1228     2.1197     0.0030
  4 Au    19.2381    19.0000    -0.2381     1.8592     1.8565     0.0028
  5 Au    18.7777    19.0000     0.2223     1.4092     1.4059     0.0033
  6 Au    18.9566    19.0000     0.0434     1.5430     1.5347     0.0083
  7 Au    19.1832    19.0000    -0.1832     1.8540     1.8460     0.0080
  8 Au    18.9100    19.0000     0.0900     1.5029     1.4990     0.0039
  9 Au    18.8063    19.0000     0.1937     1.2900     1.2869     0.0032
 10 Au    19.2881    19.0000    -0.2881     1.9835     1.9801     0.0035
 11 Au    18.7008    19.0000     0.2992     1.2507     1.2449     0.0058
 12 Au    18.6973    19.0000     0.3027     1.2963     1.2895     0.0069
 13 Au    18.9042    19.0000     0.0958     1.4940     1.4853     0.0087
 14 Au    19.0923    19.0000    -0.0923     1.8353     1.8275     0.0078
 15 Au    18.6955    19.0000     0.3045     1.3650     1.3597     0.0054
 16 Fe    27.6073    26.0000    -1.6073     8.9262     4.3048     4.6214

  Mayer bond orders larger than 0.100000
B(  0-Au,  3-Au) :   0.2717 B(  0-Au,  4-Au) :   0.2446 B(  0-Au, 10-Au) :   0.2490 
B(  1-Au,  2-Au) :   0.1525 B(  1-Au,  6-Au) :   0.2255 B(  1-Au,  7-Au) :   0.1411 
B(  1-Au, 11-Au) :   0.1623 B(  1-Au, 16-Fe) :   0.4021 B(  2-Au,  3-Au) :   0.3872 
B(  2-Au,  7-Au) :   0.1779 B(  2-Au, 11-Au) :   0.1996 B(  2-Au, 16-Fe) :   0.2749 
B(  3-Au,  4-Au) :   0.3793 B(  3-Au,  7-Au) :   0.2451 B(  3-Au, 10-Au) :   0.3402 
B(  3-Au, 13-Au) :   0.1872 B(  3-Au, 16-Fe) :   0.1852 B(  4-Au,  5-Au) :   0.3180 
B(  4-Au,  7-Au) :   0.3399 B(  4-Au,  9-Au) :   0.1457 B(  4-Au, 10-Au) :   0.2917 
B(  5-Au,  6-Au) :   0.2447 B(  5-Au,  7-Au) :   0.2363 B(  5-Au,  8-Au) :   0.2059 
B(  5-Au,  9-Au) :   0.1786 B(  5-Au, 16-Fe) :   0.1070 B(  6-Au,  7-Au) :   0.1102 
B(  6-Au,  8-Au) :   0.2653 B(  6-Au, 16-Fe) :   0.4199 B(  7-Au, 16-Fe) :   0.4599 
B(  8-Au,  9-Au) :   0.2568 B(  8-Au, 12-Au) :   0.2789 B(  8-Au, 14-Au) :   0.1378 
B(  8-Au, 16-Fe) :   0.1902 B(  9-Au, 10-Au) :   0.1927 B(  9-Au, 14-Au) :   0.3385 
B( 10-Au, 13-Au) :   0.2786 B( 10-Au, 14-Au) :   0.3345 B( 10-Au, 16-Fe) :   0.1946 
B( 11-Au, 13-Au) :   0.1374 B( 11-Au, 15-Au) :   0.1718 B( 11-Au, 16-Fe) :   0.3651 
B( 12-Au, 14-Au) :   0.2137 B( 12-Au, 15-Au) :   0.1938 B( 12-Au, 16-Fe) :   0.3246 
B( 13-Au, 15-Au) :   0.1654 B( 13-Au, 16-Fe) :   0.4285 B( 14-Au, 15-Au) :   0.2261 
B( 14-Au, 16-Fe) :   0.4413 B( 15-Au, 16-Fe) :   0.3771 


-------------------------------------------------------------
 Forming the transition density       ... done in 0.025625 sec
-------------------------------------------------------------



==========================================
CASSCF UV, CD spectra and dipole moments
==========================================
-------------------
ABSORPTION SPECTRUM
-------------------

Center of mass           = ( 12.9388, 13.8792, 15.0561)
Nuclear contribution to the dipole moment =   -35.869185,   -1.293275,   23.099447 au

Calculating the Dipole integrals                  ... done
Transforming integrals                            ... done
Calculating the Linear Momentum integrals         ... done
Transforming integrals                            ... done
Calculating the Angular Momentum integrals        ... done
Transforming integrals                            ... done

------------------------------------------------------------------------------------------
                                ABSORPTION SPECTRUM
------------------------------------------------------------------------------------------
  States           Energy   Wavelength   fosc          T2        TX         TY        TZ  
                   (cm-1)     (nm)                   (D**2)      (D)        (D)       (D) 
------------------------------------------------------------------------------------------
  0( 0)-> 1( 0) 5     924.3   10819.5   0.000001019   0.00234   0.04630  -0.00853   0.01115
  0( 0)-> 2( 0) 5    1493.3   6696.7   0.000000808   0.00115  -0.01813  -0.00343  -0.02843
  0( 0)-> 3( 0) 5    1897.8   5269.2   0.000000754   0.00084  -0.00461  -0.02311  -0.01696
  0( 0)-> 4( 0) 5    2455.6   4072.4   0.000001029   0.00089   0.00217  -0.02829   0.00920
------------------------------------------------------------------------------------------



------------------------------------------------------------------------------
                             CD SPECTRUM
------------------------------------------------------------------------------
      States        Energy   Wavelength   R*T        RX        RY        RZ   
                    (cm-1)      (nm)   (1e40*sgs)   (au)      (au)      (au)  
------------------------------------------------------------------------------
  0( 0)-> 1( 0) 5     924.3   10819.5    -2.25001  -0.25635  -0.58691  -0.47241
  0( 0)-> 2( 0) 5    1493.3   6696.7     2.80531  -0.12567   0.52144  -0.51484
  0( 0)-> 3( 0) 5    1897.8   5269.2    -1.01935   0.05557   0.33949  -0.15364
  0( 0)-> 4( 0) 5    2455.6   4072.4     0.64654   0.11324  -0.03239   0.25271
------------------------------------------------------------------------------

------------------------------------------------------------------------------
                                 DIPOLE MOMENTS
------------------------------------------------------------------------------
  Root  Block           TX        TY        TZ           |T|
                      (Debye)   (Debye)   (Debye)      (Debye)
------------------------------------------------------------------------------
    0    0           -0.28616  -0.57535   0.54474      0.84241

--------------
CASSCF TIMINGS
--------------

Total time                       ...     3026.6 sec
Sum of individual times          ...     3017.1 sec ( 99.7%)

Calculation of AO operators
   F(Core) operator              ...     1513.0 sec ( 50.0%)
   G(Act) operator               ...     1356.7 sec ( 44.8%)
   J(AO) operators               ...        0.0 sec (  0.0%)
Calculation of MO transformed quantities
   J(MO) operators               ...      126.0 sec (  4.2%)
   (pq|rs) integrals             ...        0.0 sec (  0.0%)
   AO->MO one electron integrals ...        1.1 sec (  0.0%)
Configuration interaction steps
   CI-setup phase                ...        0.0 sec (  0.0%)
   CI-solution phase             ...       13.3 sec (  0.4%)
   Generation of densities       ...        0.0 sec (  0.0%)
Orbital improvement steps
   Orbital gradient              ...        0.2 sec (  0.0%)
   O(1) converger                ...        6.7 sec (  0.2%)
Properties                       ...        0.0 sec (  0.0%)
   SOC integral calculation      ...        0.0 sec (  0.0%)
   SSC RMEs (incl. integrals)    ...        0.0 sec (  0.0%)
   SOC RMEs                      ...        0.0 sec (  0.0%)

Maximum memory used throughout the entire CASSCF-calculation: 445.6 MB

-------------------------   --------------------
FINAL SINGLE POINT ENERGY     -3419.404511187806
-------------------------   --------------------


                            ***************************************
                            *     ORCA property calculations      *
                            ***************************************

                                    ---------------------
                                    Active property flags
                                    ---------------------
   (+) Dipole Moment


------------------------------------------------------------------------------
                       ORCA ELECTRIC PROPERTIES CALCULATION
------------------------------------------------------------------------------

Dipole Moment Calculation                       ... on
Quadrupole Moment Calculation                   ... off
Polarizability Calculation                      ... off
GBWName                                         ... casscf.gbw
Electron density                                ... casscf.scfp
The origin for moment calculation is the CENTER OF MASS  = (12.938781, 13.879191 15.056135)

-------------
DIPOLE MOMENT
-------------
                                X             Y             Z
Electronic contribution:     35.74116       1.05598     -22.86201
Nuclear contribution   :    -35.86919      -1.29328      23.09945
                        -----------------------------------------
Total Dipole Moment    :     -0.12803      -0.23729       0.23743
                        -----------------------------------------
Magnitude (a.u.)       :      0.35927
Magnitude (Debye)      :      0.91319



--------------------
Rotational spectrum 
--------------------
 
Rotational constants in cm-1:     0.000938     0.000796     0.000699 
Rotational constants in MHz :    28.122525    23.874549    20.955644 

 Dipole components along the rotational axes: 
x,y,z [a.u.] :    -0.203161    -0.261526     0.139302 
x,y,z [Debye]:    -0.516393    -0.664746     0.354077 

 

Timings for individual modules:

Sum of individual times         ...     3048.972 sec (=  50.816 min)
GTO integral calculation        ...       13.102 sec (=   0.218 min)   0.4 %
SCF iterations                  ...        6.467 sec (=   0.108 min)   0.2 %
CASSCF iterations               ...     3029.402 sec (=  50.490 min)  99.4 %
                             ****ORCA TERMINATED NORMALLY****
TOTAL RUN TIME: 0 days 0 hours 51 minutes 11 seconds 387 msec
