
                                 *****************
                                 * O   R   C   A *
                                 *****************

                                            #,                                       
                                            ###                                      
                                            ####                                     
                                            #####                                    
                                            ######                                   
                                           ########,                                 
                                     ,,################,,,,,                         
                               ,,#################################,,                 
                          ,,##########################################,,             
                       ,#########################################, ''#####,          
                    ,#############################################,,   '####,        
                  ,##################################################,,,,####,       
                ,###########''''           ''''###############################       
              ,#####''   ,,,,##########,,,,          '''####'''          '####       
            ,##' ,,,,###########################,,,                        '##       
           ' ,,###''''                  '''############,,,                           
         ,,##''                                '''############,,,,        ,,,,,,###''
      ,#''                                            '''#######################'''  
     '                                                          ''''####''''         
             ,#######,   #######,   ,#######,      ##                                
            ,#'     '#,  ##    ##  ,#'     '#,    #''#        ######   ,####,        
            ##       ##  ##   ,#'  ##            #'  '#       #        #'  '#        
            ##       ##  #######   ##           ,######,      #####,   #    #        
            '#,     ,#'  ##    ##  '#,     ,#' ,#      #,         ##   #,  ,#        
             '#######'   ##     ##  '#######'  #'      '#     #####' # '####'        



                  #######################################################
                  #                        -***-                        #
                  #          Department of theory and spectroscopy      #
                  #    Directorship and core code : Frank Neese         #
                  #        Max Planck Institute fuer Kohlenforschung    #
                  #                Kaiser Wilhelm Platz 1               #
                  #                 D-45470 Muelheim/Ruhr               #
                  #                      Germany                        #
                  #                                                     #
                  #                  All rights reserved                #
                  #                        -***-                        #
                  #######################################################


                         Program Version 5.0.3 -  RELEASE  -


 With contributions from (in alphabetic order):
   Daniel Aravena         : Magnetic Suceptibility
   Michael Atanasov       : Ab Initio Ligand Field Theory (pilot matlab implementation)
   Alexander A. Auer      : GIAO ZORA, VPT2 properties, NMR spectrum
   Ute Becker             : Parallelization
   Giovanni Bistoni       : ED, misc. LED, open-shell LED, HFLD
   Martin Brehm           : Molecular dynamics
   Dmytro Bykov           : SCF Hessian
   Vijay G. Chilkuri      : MRCI spin determinant printing, contributions to CSF-ICE
   Dipayan Datta          : RHF DLPNO-CCSD density
   Achintya Kumar Dutta   : EOM-CC, STEOM-CC
   Dmitry Ganyushin       : Spin-Orbit,Spin-Spin,Magnetic field MRCI
   Miquel Garcia          : C-PCM and meta-GGA Hessian, CC/C-PCM, Gaussian charge scheme
   Yang Guo               : DLPNO-NEVPT2, F12-NEVPT2, CIM, IAO-localization
   Andreas Hansen         : Spin unrestricted coupled pair/coupled cluster methods
   Benjamin Helmich-Paris : MC-RPA, TRAH-SCF, COSX integrals
   Lee Huntington         : MR-EOM, pCC
   Robert Izsak           : Overlap fitted RIJCOSX, COSX-SCS-MP3, EOM
   Marcus Kettner         : VPT2
   Christian Kollmar      : KDIIS, OOCD, Brueckner-CCSD(T), CCSD density, CASPT2, CASPT2-K
   Simone Kossmann        : Meta GGA functionals, TD-DFT gradient, OOMP2, MP2 Hessian
   Martin Krupicka        : Initial AUTO-CI
   Lucas Lang             : DCDCAS
   Marvin Lechner         : AUTO-CI (C++ implementation), FIC-MRCC
   Dagmar Lenk            : GEPOL surface, SMD
   Dimitrios Liakos       : Extrapolation schemes; Compound Job, initial MDCI parallelization
   Dimitrios Manganas     : Further ROCIS development; embedding schemes
   Dimitrios Pantazis     : SARC Basis sets
   Anastasios Papadopoulos: AUTO-CI, single reference methods and gradients
   Taras Petrenko         : DFT Hessian,TD-DFT gradient, ASA, ECA, R-Raman, ABS, FL, XAS/XES, NRVS
   Peter Pinski           : DLPNO-MP2, DLPNO-MP2 Gradient
   Christoph Reimann      : Effective Core Potentials
   Marius Retegan         : Local ZFS, SOC
   Christoph Riplinger    : Optimizer, TS searches, QM/MM, DLPNO-CCSD(T), (RO)-DLPNO pert. Triples
   Tobias Risthaus        : Range-separated hybrids, TD-DFT gradient, RPA, STAB
   Michael Roemelt        : Original ROCIS implementation
   Masaaki Saitow         : Open-shell DLPNO-CCSD energy and density
   Barbara Sandhoefer     : DKH picture change effects
   Avijit Sen             : IP-ROCIS
   Kantharuban Sivalingam : CASSCF convergence, NEVPT2, FIC-MRCI
   Bernardo de Souza      : ESD, SOC TD-DFT
   Georgi Stoychev        : AutoAux, RI-MP2 NMR, DLPNO-MP2 response
   Willem Van den Heuvel  : Paramagnetic NMR
   Boris Wezisla          : Elementary symmetry handling
   Frank Wennmohs         : Technical directorship


 We gratefully acknowledge several colleagues who have allowed us to
 interface, adapt or use parts of their codes:
   Stefan Grimme, W. Hujo, H. Kruse, P. Pracht,  : VdW corrections, initial TS optimization,
                  C. Bannwarth, S. Ehlert          DFT functionals, gCP, sTDA/sTD-DF
   Ed Valeev, F. Pavosevic, A. Kumar             : LibInt (2-el integral package), F12 methods
   Garnet Chan, S. Sharma, J. Yang, R. Olivares  : DMRG
   Ulf Ekstrom                                   : XCFun DFT Library
   Mihaly Kallay                                 : mrcc  (arbitrary order and MRCC methods)
   Jiri Pittner, Ondrej Demel                    : Mk-CCSD
   Frank Weinhold                                : gennbo (NPA and NBO analysis)
   Christopher J. Cramer and Donald G. Truhlar   : smd solvation model
   Lars Goerigk                                  : TD-DFT with DH, B97 family of functionals
   V. Asgeirsson, H. Jonsson                     : NEB implementation
   FAccTs GmbH                                   : IRC, NEB, NEB-TS, DLPNO-Multilevel, CI-OPT
                                                   MM, QMMM, 2- and 3-layer-ONIOM, Crystal-QMMM,
                                                   LR-CPCM, SF, NACMEs, symmetry and pop. for TD-DFT,
                                                   nearIR, NL-DFT gradient (VV10), updates on ESD,
                                                   ML-optimized integration grids
   S Lehtola, MJT Oliveira, MAL Marques          : LibXC Library
   Liviu Ungur et al                             : ANISO software


 Your calculation uses the libint2 library for the computation of 2-el integrals
 For citations please refer to: http://libint.valeyev.net

 Your ORCA version has been built with support for libXC version: 5.1.0
 For citations please refer to: https://tddft.org/programs/libxc/

 This ORCA versions uses:
   CBLAS   interface :  Fast vector & matrix operations
   LAPACKE interface :  Fast linear algebra routines
   SCALAPACK package :  Parallel linear algebra routines
   Shared memory     :  Shared parallel matrices
   BLAS/LAPACK       :  OpenBLAS 0.3.15  USE64BITINT DYNAMIC_ARCH NO_AFFINITY Haswell SINGLE_THREADED
        Core in use  :  Haswell
   Copyright (c) 2011-2014, The OpenBLAS Project




***************************************
The coordinates will be read from file: pbe.xyz
***************************************


================================================================================

cite the ECPs for Au [Def2-ECP] as follows:
Ce-Yb(ecp-28): M. Dolg, H. Stoll, H.Preuss, J. Chem. Phys., 1989, 90, 1730-1734.
Y-Cd(ecp-28), Hf-Hg(ecp-46): D. Andrae,U. Haeussermann, M. Dolg, H. Stoll, H. Preuss, Theor. Chim. Acta, 1990, 77, 123-141.
In-Sb(ecp-28), Tl-Bi(ecp-46): B. Metz, H. Stoll, M. Dolg, J. Chem. Phys., 2000, 113, 2563-2569.
Te-Xe(ecp-28), Po-Rn(ecp-46): K. A. Peterson, D. Figgen, E. Goll, H. Stoll, M. Dolg, J. Chem. Phys., 2003, 119, 11113-11123.
Rb(ecp-28), Cs(ecp-46): T. Leininger, A. Nicklass, W. Kuechle, H. Stoll, M. Dolg, A. Bergner, Chem. Phys. Lett., 1996, 255, 274-280.
Sr(ecp-28), Ba(ecp-46): M. Kaupp, P. V. Schleyer, H. Stoll and H. Preuss, J. Chem. Phys., 1991, 94, 1360-1366.
La(ecp-46): M. Dolg, H. Stoll, A. Savin, H. Preuss, Theor. Chim. Acta, 1989, 75, 173-194.
Lu(ecp-28): X. Cao, M. Dolg, J. Chem. Phys., 2001, 115, 7348-7355.

ECP parameters for Au [Def2-ECP] have been obtained from:
TURBOMOLE (7.0.2)

----- Orbital basis set information -----
Your calculation utilizes the basis: def2-TZVP
   F. Weigend and R. Ahlrichs, Phys. Chem. Chem. Phys. 7, 3297 (2005).

----- AuxJ basis set information -----
Your calculation utilizes the auxiliary basis: def2/J
   F. Weigend, Phys. Chem. Chem. Phys. 8, 1057 (2006).

----- AuxC basis set information -----
Your calculation utilizes the auxiliary basis: def2-TZVP/C
  H-La, Hf-Rn : A. Hellweg, C. Hattig, S. Hofener and W. Klopper, Theor. Chem. Acc. 117, 587 (2007).
        Ce-Lu : J. Chmela and M. E. Harding, Mol. Phys. (2018).

================================================================================
                                        WARNINGS
                       Please study these warnings very carefully!
================================================================================


IMPORTANT NOTE: CASSCF must signal convergence for a subsequent CASPT2/NEVPT2! 
                Set maxiter=1 to run CASPT2/NEVPT2 with arbitrary orbitals.


INFO   : the flag for use of the SHARK integral package has been found!

================================================================================
                                       INPUT FILE
================================================================================
NAME = nevpt2.inp
|  1> !SC-NEVPT2 def2-TZVP def2-TZVP/C
|  2> !MOREAD RIJCOSX def2/J
|  3> %maxcore 4000
|  4> %moinp "casscf.gbw"
|  5> %pal nprocs 2 end 
|  6> 
|  7> %casscf
|  8>  mult 5,3
|  9>  bweight 1,1
| 10>  nroots 5,45
| 11>  nel 6
| 12>  norb 5
| 13>  ptsettings
| 14>   d4tpre 1e-14 # default = 1e-10
| 15>   d3tpre 1e-14
| 16>  end
| 17>  rel           
| 18>    dosoc true   
| 19>    gtensor true 
| 20>  end           
| 21> end
| 22> 
| 23> 
| 24> *xyzfile 0 5 pbe.xyz
| 25> 
| 26> 
| 27>                          ****END OF INPUT****
================================================================================

                       ****************************
                       * Single Point Calculation *
                       ****************************

---------------------------------
CARTESIAN COORDINATES (ANGSTROEM)
---------------------------------
  Au    10.957578    6.031971    7.021700
  Au     5.361030    9.046427   10.530731
  Au     7.533380    7.294619   11.001785
  Au     9.341546    6.680263    9.140317
  Au     9.555219    8.362764    6.907185
  Au     7.433026    9.969783    6.351829
  Au     5.113603    9.796674    7.925486
  Au     7.812672    9.194024    8.980092
  Au     5.194151    8.640084    5.393103
  Au     7.656368    7.421276    5.056093
  Au     8.312161    5.373539    6.809477
  Au     4.972714    6.288429   10.917855
  Au     3.551985    7.436970    7.224629
  Au     7.018729    4.997384    9.237041
  Au     5.709743    5.874611    6.282554
  Au     4.287731    5.113419    8.529789
  Fe     5.926053    7.311350    8.560386

----------------------------
CARTESIAN COORDINATES (A.U.)
----------------------------
  NO LB      ZA    FRAG     MASS         X           Y           Z
   0 Au   19.0000*   0   196.966   20.706822   11.398773   13.269090
   1 Au   19.0000*   0   196.966   10.130879   17.095269   19.900198
   2 Au   19.0000*   0   196.966   14.236025   13.784832   20.790360
   3 Au   19.0000*   0   196.966   17.652964   12.623867   17.272696
   4 Au   19.0000*   0   196.966   18.056746   15.803334   13.052687
   5 Au   19.0000*   0   196.966   14.046384   18.840159   12.003217
   6 Au   19.0000*   0   196.966    9.663309   18.513032   14.976997
   7 Au   19.0000*   0   196.966   14.763810   17.374187   16.969914
   8 Au   19.0000*   0   196.966    9.815523   16.327393   10.191487
   9 Au   19.0000*   0   196.966   14.468439   14.024179    9.554630
  10 Au   19.0000*   0   196.966   15.707708   10.154517   12.868046
  11 Au   19.0000*   0   196.966    9.397068   11.883409   20.631756
  12 Au   19.0000*   0   196.966    6.712278   14.053837   13.652570
  13 Au   19.0000*   0   196.966   13.263476    9.443688   17.455478
  14 Au   19.0000*   0   196.966   10.789851   11.101407   11.872306
  15 Au   19.0000*   0   196.966    8.102638    9.662961   16.118964
  16 Fe   26.0000    0    55.850   11.198617   13.816449   16.176785
* core charge reduced due to ECP

--------------------------------
INTERNAL COORDINATES (ANGSTROEM)
--------------------------------
 Au     0   0   0     0.000000000000     0.00000000     0.00000000
 Au     1   0   0     7.260963841245     0.00000000     0.00000000
 Au     2   1   0     2.830163291338    39.81106968     0.00000000
 Au     3   2   1     2.666826004512   123.15093152     2.57462724
 Au     1   2   3     2.722558527948    42.93656310   211.99100780
 Au     5   1   2     2.719306693615   156.42004723   286.45593507
 Au     2   1   3     2.722388024354    73.85825155   184.42921507
 Au     6   5   1     2.766531863719    62.17148602   102.59565021
 Au     6   5   1     2.774854421499   114.64832962     4.73702062
 Au     9   6   5     2.767956354009    62.31223590   336.09718751
 Au     1   2   3     2.734374613509    52.53918365   105.90331972
 Au     3   2   1     2.752538728053    60.47042479   252.02260979
 Au     9   6   5     2.738372275455   117.60049891    81.32745856
 Au    11   1   2     2.776243041196   114.55058326   310.89823436
 Au    11   1   2     2.702091818253   154.45688531    58.99341006
 Au    12   3   2     2.748219928098   114.49787498    99.67599265
 Fe    14  11   1     2.646930179948    81.39317196   107.53023554

---------------------------
INTERNAL COORDINATES (A.U.)
---------------------------
 Au     0   0   0     0.000000000000     0.00000000     0.00000000
 Au     1   0   0    13.721233128257     0.00000000     0.00000000
 Au     2   1   0     5.348233534905    39.81106968     0.00000000
 Au     3   2   1     5.039570795348   123.15093152     2.57462724
 Au     1   2   3     5.144890001394    42.93656310   211.99100780
 Au     5   1   2     5.138744925072   156.42004723   286.45593507
 Au     2   1   3     5.144567796296    73.85825155   184.42921507
 Au     6   5   1     5.227987563197    62.17148602   102.59565021
 Au     6   5   1     5.243714918134   114.64832962     4.73702062
 Au     9   6   5     5.230679459725    62.31223590   336.09718751
 Au     1   2   3     5.167219167078    52.53918365   105.90331972
 Au     3   2   1     5.201544369033    60.47042479   252.02260979
 Au     9   6   5     5.174773653334   117.60049891    81.32745856
 Au    11   1   2     5.246339029066   114.55058326   310.89823436
 Au    11   1   2     5.106213525208   154.45688531    58.99341006
 Au    12   3   2     5.193383019890   114.49787498    99.67599265
 Fe    14  11   1     5.001973135713    81.39317196   107.53023554

---------------------
BASIS SET INFORMATION
---------------------
There are 2 groups of distinct atoms

 Group   1 Type Au  : 8s7p6d1f contracted to 6s4p3d1f pattern {311111/4111/411/1}
 Group   2 Type Fe  : 17s11p7d1f contracted to 6s4p4d1f pattern {842111/6311/4111/1}

Atom   0Au   basis set group =>   1
Atom   1Au   basis set group =>   1
Atom   2Au   basis set group =>   1
Atom   3Au   basis set group =>   1
Atom   4Au   basis set group =>   1
Atom   5Au   basis set group =>   1
Atom   6Au   basis set group =>   1
Atom   7Au   basis set group =>   1
Atom   8Au   basis set group =>   1
Atom   9Au   basis set group =>   1
Atom  10Au   basis set group =>   1
Atom  11Au   basis set group =>   1
Atom  12Au   basis set group =>   1
Atom  13Au   basis set group =>   1
Atom  14Au   basis set group =>   1
Atom  15Au   basis set group =>   1
Atom  16Fe   basis set group =>   2
---------------------------------
AUXILIARY/J BASIS SET INFORMATION
---------------------------------
There are 2 groups of distinct atoms

 Group   1 Type Au  : 11s5p5d3f3g contracted to 8s5p5d2f3g pattern {41111111/11111/11111/21/111}
 Group   2 Type Fe  : 19s5p5d3f3g contracted to 8s5p5d2f3g pattern {121111111/11111/11111/21/111}

Atom   0Au   basis set group =>   1
Atom   1Au   basis set group =>   1
Atom   2Au   basis set group =>   1
Atom   3Au   basis set group =>   1
Atom   4Au   basis set group =>   1
Atom   5Au   basis set group =>   1
Atom   6Au   basis set group =>   1
Atom   7Au   basis set group =>   1
Atom   8Au   basis set group =>   1
Atom   9Au   basis set group =>   1
Atom  10Au   basis set group =>   1
Atom  11Au   basis set group =>   1
Atom  12Au   basis set group =>   1
Atom  13Au   basis set group =>   1
Atom  14Au   basis set group =>   1
Atom  15Au   basis set group =>   1
Atom  16Fe   basis set group =>   2
---------------------------------
AUXILIARY/C BASIS SET INFORMATION
---------------------------------
There are 2 groups of distinct atoms

 Group   1 Type Au  : 8s8p7d5f3g2h contracted to 8s8p7d5f3g2h pattern {11111111/11111111/1111111/11111/111/11}
 Group   2 Type Fe  : 11s9p8d6f5g2h contracted to 9s8p8d6f5g2h pattern {311111111/21111111/11111111/111111/11111/11}

Atom   0Au   basis set group =>   1
Atom   1Au   basis set group =>   1
Atom   2Au   basis set group =>   1
Atom   3Au   basis set group =>   1
Atom   4Au   basis set group =>   1
Atom   5Au   basis set group =>   1
Atom   6Au   basis set group =>   1
Atom   7Au   basis set group =>   1
Atom   8Au   basis set group =>   1
Atom   9Au   basis set group =>   1
Atom  10Au   basis set group =>   1
Atom  11Au   basis set group =>   1
Atom  12Au   basis set group =>   1
Atom  13Au   basis set group =>   1
Atom  14Au   basis set group =>   1
Atom  15Au   basis set group =>   1
Atom  16Fe   basis set group =>   2
-------------------------
ECP PARAMETER INFORMATION
-------------------------

 Group 1, Type Au ECP Def2-ECP (replacing 60 core electrons, lmax=3)

Atom   0Au   ECP group =>   1
Atom   1Au   ECP group =>   1
Atom   2Au   ECP group =>   1
Atom   3Au   ECP group =>   1
Atom   4Au   ECP group =>   1
Atom   5Au   ECP group =>   1
Atom   6Au   ECP group =>   1
Atom   7Au   ECP group =>   1
Atom   8Au   ECP group =>   1
Atom   9Au   ECP group =>   1
Atom  10Au   ECP group =>   1
Atom  11Au   ECP group =>   1
Atom  12Au   ECP group =>   1
Atom  13Au   ECP group =>   1
Atom  14Au   ECP group =>   1
Atom  15Au   ECP group =>   1



           ************************************************************
           *        Program running with 2 parallel MPI-processes     *
           *              working on a common directory               *
           ************************************************************
------------------------------------------------------------------------------
                           ORCA GTO INTEGRAL CALCULATION
                           -- RI-GTO INTEGRALS CHOSEN --
------------------------------------------------------------------------------
------------------------------------------------------------------------------
                   ___                                                        
                  /   \      - P O W E R E D   B Y -                         
                 /     \                                                     
                 |  |  |   _    _      __       _____    __    __             
                 |  |  |  | |  | |    /  \     |  _  \  |  |  /  |          
                  \  \/   | |  | |   /    \    | | | |  |  | /  /          
                 / \  \   | |__| |  /  /\  \   | |_| |  |  |/  /          
                |  |  |   |  __  | /  /__\  \  |    /   |      \           
                |  |  |   | |  | | |   __   |  |    \   |  |\   \          
                \     /   | |  | | |  |  |  |  | |\  \  |  | \   \       
                 \___/    |_|  |_| |__|  |__|  |_| \__\ |__|  \__/        
                                                                              
                      - O R C A' S   B I G   F R I E N D -                    
                                      &                                       
                       - I N T E G R A L  F E E D E R -                       
                                                                              
 v1 FN, 2020, v2 2021                                                         
------------------------------------------------------------------------------


Reading SHARK input file nevpt2.SHARKINP.tmp ... ok
----------------------
SHARK INTEGRAL PACKAGE
----------------------

Number of atoms                             ...     17
Number of basis functions                   ...    685
Number of shells                            ...    239
Maximum angular momentum                    ...      3
Integral batch strategy                     ... SHARK/LIBINT Hybrid
RI-J (if used) integral strategy            ... SPLIT-RIJ (Revised 2003 algorithm where possible)
Printlevel                                  ...      1
Contraction scheme used                     ... SEGMENTED contraction
Coulomb Range Separation                    ... NOT USED
Exchange Range Separation                   ... NOT USED
Finite Nucleus Model                        ... NOT USED
Auxiliary Coulomb fitting basis             ... AVAILABLE
   # of basis functions in Aux-J            ...   1513
   # of shells in Aux-J                     ...    391
   Maximum angular momentum in Aux-J        ...      4
Auxiliary J/K fitting basis                 ... NOT available
Auxiliary Correlation fitting basis         ... AVAILABLE
   # of basis functions in Aux-C            ...   2598
   # of shells in Aux-C                     ...    566
   Maximum angular momentum in Aux-C        ...      5
Auxiliary 'external' fitting basis          ... NOT available
Integral threshold                          ...     1.000000e-10
Primitive cut-off                           ...     1.000000e-11
Primitive pair pre-selection threshold      ...     1.000000e-11

Calculating pre-screening integrals         ... done (  0.8 sec) Dimension = 239
Organizing shell pair data                  ... done (  0.8 sec)
Shell pair information
Total number of shell pairs                 ...     28680
Shell pairs after pre-screening             ...     22096
Total number of primitive shell pairs       ...     75765
Primitive shell pairs kept                  ...     41700
          la=0 lb=0:   3494 shell pairs
          la=1 lb=0:   5033 shell pairs
          la=1 lb=1:   1884 shell pairs
          la=2 lb=0:   4402 shell pairs
          la=2 lb=1:   3098 shell pairs
          la=2 lb=2:   1285 shell pairs
          la=3 lb=0:   1130 shell pairs
          la=3 lb=1:    874 shell pairs
          la=3 lb=2:    781 shell pairs
          la=3 lb=3:    115 shell pairs

Calculating one electron integrals          ... done (  0.2 sec)
Calculating ECP integrals                   ... done ( 30.1 sec)
Calculating RI/J V-Matrix + Cholesky decomp.... done (  0.4 sec)
Calculating RI/C V-Matrix + Cholesky decomp.... done (  5.2 sec)
Calculating Nuclear repulsion               ... done (  0.0 sec) ENN=   7022.022056390531 Eh

SHARK setup successfully completed in  38.9 seconds

Maximum memory used throughout the entire GTOINT-calculation: 112.3 MB


           ************************************************************
           *        Program running with 2 parallel MPI-processes     *
           *              working on a common directory               *
           ************************************************************
-------------------------------------------------------------------------------
                                 ORCA SCF
-------------------------------------------------------------------------------

------------
SCF SETTINGS
------------
Hamiltonian:
 Ab initio Hamiltonian  Method          .... Hartree-Fock(GTOs)
 RI-approximation to the Coulomb term is turned on
   Number of AuxJ basis functions       .... 1513
   RIJ-COSX (HFX calculated with COS-X)).... on


General Settings:
 Integral files         IntName         .... nevpt2
 Hartree-Fock type      HFTyp           .... CASSCF
 Total Charge           Charge          ....    0
 Multiplicity           Mult            ....    5
 Number of Electrons    NEL             ....  330
 Basis Dimension        Dim             ....  685
 Nuclear Repulsion      ENuc            ....   7022.0220563905 Eh


Diagonalization of the overlap matrix:
Smallest eigenvalue                        ... 3.851e-04
Time for diagonalization                   ...    0.206 sec
Threshold for overlap eigenvalues          ... 1.000e-08
Number of eigenvalues below threshold      ... 0
Time for construction of square roots      ...    0.097 sec
Total time needed                          ...    0.304 sec

---------------------
INITIAL GUESS: MOREAD
---------------------
Guess MOs are being read from file: casscf.gbw
Input Geometry matches current geometry (good)
Input basis set matches current basis set (good)
MOs were renormalized
Gram-Schmidt orthogonalization of all MOs with pivot on actives
                      ------------------
                      INITIAL GUESS DONE (   6.2 sec)
                      ------------------
--------------------
COSX GRID GENERATION
--------------------

GRIDX 1
-------
General Integration Accuracy     IntAcc      ... 3.816
Radial Grid Type                 RadialGrid  ... OptM3 with GC (2021)
Angular Grid (max. ang.)         AngularGrid ... 1 (Lebedev-50)
Angular grid pruning method      GridPruning ... 4 (adaptive)
Weight generation scheme         WeightScheme... Becke
Basis function cutoff            BFCut       ... 1.0000e-10
Integration weight cutoff        WCut        ... 1.0000e-14
Angular grids for H and He will be reduced by one unit
Partially contracted basis set               ... on
Rotationally invariant grid construction     ... off

Total number of grid points                  ...    19571
Total number of batches                      ...      313
Average number of points per batch           ...       62
Average number of grid points per atom       ...     1151
UseSFitting                                  ... on

GRIDX 2
-------
General Integration Accuracy     IntAcc      ... 4.020
Radial Grid Type                 RadialGrid  ... OptM3 with GC (2021)
Angular Grid (max. ang.)         AngularGrid ... 2 (Lebedev-110)
Angular grid pruning method      GridPruning ... 4 (adaptive)
Weight generation scheme         WeightScheme... Becke
Basis function cutoff            BFCut       ... 1.0000e-10
Integration weight cutoff        WCut        ... 1.0000e-14
Angular grids for H and He will be reduced by one unit
Partially contracted basis set               ... on
Rotationally invariant grid construction     ... off

Total number of grid points                  ...    59285
Total number of batches                      ...      934
Average number of points per batch           ...       63
Average number of grid points per atom       ...     3487
UseSFitting                                  ... on

GRIDX 3
-------
General Integration Accuracy     IntAcc      ... 4.338
Radial Grid Type                 RadialGrid  ... OptM3 with GC (2021)
Angular Grid (max. ang.)         AngularGrid ... 3 (Lebedev-194)
Angular grid pruning method      GridPruning ... 4 (adaptive)
Weight generation scheme         WeightScheme... Becke
Basis function cutoff            BFCut       ... 1.0000e-10
Integration weight cutoff        WCut        ... 1.0000e-14
Angular grids for H and He will be reduced by one unit
Partially contracted basis set               ... on
Rotationally invariant grid construction     ... off

Total number of grid points                  ...   107530
Total number of batches                      ...     1688
Average number of points per batch           ...       63
Average number of grid points per atom       ...     6325
UseSFitting                                  ... on

Time for X-Grid setup             =    7.934 sec



 ... the calculation is a CASSCF calculation -I'm leaving here GOOD LUCK!!!



           ************************************************************
           *        Program running with 2 parallel MPI-processes     *
           *              working on a common directory               *
           ************************************************************
-------------------------------------------------------------------------------
                              ORCA-CASSCF
-------------------------------------------------------------------------------

Setting up the integral package       ... done
Setting up the integral package (RI)  ... done
Building the CAS space                ... done (5 configurations for Mult=5)
Building the CAS space                ... done (35 configurations for Mult=3)

 CASSCF (estimated) memory needed     ... 192.6 MB
 NEVPT2 (estimated) memory needed     ... 763.8 MB


SYSTEM-SPECIFIC SETTINGS:
Number of active electrons          ...    6
Number of active orbitals           ...    5
Total number of electrons           ...  330
Total number of orbitals            ...  685
Total number aux. functions         ... 2598

Determined orbital ranges:
   Internal       0 -  161 ( 162 orbitals)
   Active       162 -  166 (   5 orbitals)
   External     167 -  684 ( 518 orbitals)
Number of rotation parameters      ...  87316

CI-STEP:
CI strategy                         ... General CI
Number of multiplicity blocks       ...    2
BLOCK  1 WEIGHT=   0.5000
  Multiplicity                      ...    5
  #(Configurations)                 ...    5
  #(CSFs)                           ...    5
  #(Roots)                          ...    5
    ROOT=0 WEIGHT=    0.100000
    ROOT=1 WEIGHT=    0.100000
    ROOT=2 WEIGHT=    0.100000
    ROOT=3 WEIGHT=    0.100000
    ROOT=4 WEIGHT=    0.100000

BLOCK  2 WEIGHT=   0.5000
  Multiplicity                      ...    3
  #(Configurations)                 ...   35
  #(CSFs)                           ...   45
  #(Roots)                          ...   45
    ROOT=0 WEIGHT=    0.011111
    ROOT=1 WEIGHT=    0.011111
    ROOT=2 WEIGHT=    0.011111
    ROOT=3 WEIGHT=    0.011111
    ROOT=4 WEIGHT=    0.011111
    ROOT=5 WEIGHT=    0.011111
    ROOT=6 WEIGHT=    0.011111
    ROOT=7 WEIGHT=    0.011111
    ROOT=8 WEIGHT=    0.011111
    ROOT=9 WEIGHT=    0.011111
    ROOT=10 WEIGHT=    0.011111
    ROOT=11 WEIGHT=    0.011111
    ROOT=12 WEIGHT=    0.011111
    ROOT=13 WEIGHT=    0.011111
    ROOT=14 WEIGHT=    0.011111
    ROOT=15 WEIGHT=    0.011111
    ROOT=16 WEIGHT=    0.011111
    ROOT=17 WEIGHT=    0.011111
    ROOT=18 WEIGHT=    0.011111
    ROOT=19 WEIGHT=    0.011111
    ROOT=20 WEIGHT=    0.011111
    ROOT=21 WEIGHT=    0.011111
    ROOT=22 WEIGHT=    0.011111
    ROOT=23 WEIGHT=    0.011111
    ROOT=24 WEIGHT=    0.011111
    ROOT=25 WEIGHT=    0.011111
    ROOT=26 WEIGHT=    0.011111
    ROOT=27 WEIGHT=    0.011111
    ROOT=28 WEIGHT=    0.011111
    ROOT=29 WEIGHT=    0.011111
    ROOT=30 WEIGHT=    0.011111
    ROOT=31 WEIGHT=    0.011111
    ROOT=32 WEIGHT=    0.011111
    ROOT=33 WEIGHT=    0.011111
    ROOT=34 WEIGHT=    0.011111
    ROOT=35 WEIGHT=    0.011111
    ROOT=36 WEIGHT=    0.011111
    ROOT=37 WEIGHT=    0.011111
    ROOT=38 WEIGHT=    0.011111
    ROOT=39 WEIGHT=    0.011111
    ROOT=40 WEIGHT=    0.011111
    ROOT=41 WEIGHT=    0.011111
    ROOT=42 WEIGHT=    0.011111
    ROOT=43 WEIGHT=    0.011111
    ROOT=44 WEIGHT=    0.011111

  PrintLevel                        ...    1
  N(GuessMat)                       ...       512
  MaxDim(CI)                        ...        10
  MaxIter(CI)                       ...        64
  Energy Tolerance CI               ...  1.00e-08
  Residual Tolerance CI             ...  1.00e-08
  Shift(CI)                         ...  1.00e-04

INTEGRAL-TRANSFORMATION-STEP:
  Algorithm                         ... RI-MO

ORBITAL-IMPROVEMENT-STEP:
  Algorithm                         ... SuperCI(PT)
  Default Parametrization           ... CAYLEY
  Act-Act rotations                 ... depends on algorithm used

  Note: SuperCI(PT) will ignore FreezeIE, FreezeAct and FreezeGrad. In general Default settings are encouraged.
        In conjunction with ShiftUp, ShiftDn or GradScaling the performance of SuperCI(PT) is less optimal.  

  MaxRot                            ... 2.00e-01 
  Max. no of vectors (DIIS)         ... 15
  DThresh (cut-off) metric          ... 1.00e-06
  Switch step at gradient           ...  3.00e-02 
  Switch step at iteration          ...        50   
  Switch step to                    ... SuperCI(PT)    

SCF-SETTINGS:
  Incremental                       ... off
  RIJCOSX approximation             ... on
  UseFinalGrid                      ... on
  RI-JK approximation               ... off
  AO integral handling              ... DIRECT
  Integral Neglect Thresh           ...  1.00e-10
  Primitive cutoff TCut             ...  1.00e-11
  Energy convergence tolerance      ...  1.00e-07
  Orbital gradient convergence      ...  1.00e-03
  Max. number of iterations         ...        75  

PT2-SETTINGS:
  A PT2 calculation will be performed on top of the CASSCF wave function (PT2 = SC-NEVPT2)   
 CI step strategy                   ... General CI
  D4C handling                      ... on the fly 
  CI truncation for D4C at          ...  1.00e-14
  CI truncation for D3  at          ...  1.00e-14
  Orbitals                          ... canonical for each state 
  Last  frozen  orbital             ... 4
  First deleted orbital             ... 685
  RI Step                           ... store IJV(array) (MC_ONDISK during integral transformation) 

PROPERTIES-SETTINGS:
  Spin orbit coupling               ... true
  GTensor                           ... true
  QDPT diagonal energies            ... NEVPT2 energies 

FINAL ORBITALS:
  Active   Orbitals                 ... natural 
  Internal Orbitals                 ... canonical 
  External Orbitals                 ... canonical 

------------------
CAS-SCF ITERATIONS
------------------


MACRO-ITERATION   1: 
   --- Inactive Energy E0 = -3403.48161336 Eh
CI-ITERATION   0: 
 -3419.484389519   0.000000000000 (    0.00)
 -3419.480178310   0.000000000000
 -3419.477585640   0.000000000000
 -3419.475742384   0.000000000000
 -3419.473201198   0.000000000000
   CI-PROBLEM SOLVED
   DENSITIES MADE
CI-ITERATION   0: 
 -3419.387319798   0.000000000000 (    0.00)
 -3419.386783385   0.000000000000
 -3419.386248157   0.000000000000
 -3419.385906203   0.000000000000
 -3419.383852257   0.000000000000
 -3419.383006640   0.000000000000
 -3419.382772556   0.000000000000
 -3419.382539403   0.000000000000
 -3419.381499528   0.000000000000
 -3419.379783317   0.000000000000
 -3419.379667934   0.000000000000
 -3419.374376974   0.000000000000
 -3419.372375920   0.000000000000
 -3419.372175842   0.000000000000
 -3419.369812055   0.000000000000
 -3419.369188888   0.000000000000
 -3419.368565495   0.000000000000
 -3419.368179405   0.000000000000
 -3419.366696005   0.000000000000
 -3419.366115596   0.000000000000
 -3419.363703806   0.000000000000
 -3419.360173667   0.000000000000
 -3419.359391284   0.000000000000
 -3419.358133295   0.000000000000
 -3419.356924747   0.000000000000
 -3419.356647355   0.000000000000
 -3419.355647053   0.000000000000
 -3419.354390815   0.000000000000
 -3419.352679714   0.000000000000
 -3419.352631281   0.000000000000
 -3419.322973069   0.000000000000
 -3419.321874801   0.000000000000
 -3419.320994447   0.000000000000
 -3419.319456322   0.000000000000
 -3419.319061600   0.000000000000
 -3419.223409634   0.000000000000
 -3419.222703546   0.000000000000
 -3419.220497262   0.000000000000
 -3419.219061638   0.000000000000
 -3419.217703008   0.000000000000
 -3419.217059251   0.000000000000
 -3419.215824579   0.000000000000
 -3419.213239666   0.000000000000
 -3419.210627185   0.000000000000
 -3419.204459047   0.000000000000
   CI-PROBLEM SOLVED
   DENSITIES MADE

                 <<<<<<<<<<<<<<<<<<INITIAL CI STATE CHECK>>>>>>>>>>>>>>>>>>

BLOCK  1 MULT= 5 NROOTS= 5 
ROOT   0:  E=   -3419.4843895190 Eh
      0.85501 [     3]: 12111
      0.12169 [     2]: 11211
      0.02037 [     0]: 11112
ROOT   1:  E=   -3419.4801783101 Eh  0.115 eV    924.3 cm**-1
      0.46913 [     0]: 11112
      0.45970 [     4]: 21111
      0.04075 [     2]: 11211
      0.02597 [     1]: 11121
      0.00445 [     3]: 12111
ROOT   2:  E=   -3419.4775856404 Eh  0.185 eV   1493.3 cm**-1
      0.35985 [     1]: 11121
      0.33078 [     4]: 21111
      0.19811 [     2]: 11211
      0.09559 [     0]: 11112
      0.01566 [     3]: 12111
ROOT   3:  E=   -3419.4757423843 Eh  0.235 eV   1897.8 cm**-1
      0.36473 [     0]: 11112
      0.33518 [     2]: 11211
      0.17113 [     4]: 21111
      0.08102 [     3]: 12111
      0.04793 [     1]: 11121
ROOT   4:  E=   -3419.4732011978 Eh  0.304 eV   2455.6 cm**-1
      0.56513 [     1]: 11121
      0.30426 [     2]: 11211
      0.05018 [     0]: 11112
      0.04387 [     3]: 12111
      0.03656 [     4]: 21111

BLOCK  2 MULT= 3 NROOTS=45 
ROOT   0:  E=   -3419.3873197981 Eh
      0.20890 [    18]: 12111
      0.15247 [    33]: 22101
      0.13621 [    17]: 12102
      0.06154 [    13]: 11211
      0.03772 [    10]: 11112
      0.03743 [    32]: 22011
      0.03616 [    21]: 12210
      0.03530 [    12]: 11202
      0.03338 [    19]: 12120
      0.03051 [     4]: 02121
      0.02977 [    28]: 21111
      0.02766 [     1]: 01212
      0.02366 [    20]: 12201
      0.02254 [    15]: 12012
      0.01994 [    27]: 21102
      0.01826 [    25]: 21012
      0.01817 [    14]: 11220
      0.01546 [    29]: 21120
      0.01416 [    23]: 20121
      0.01174 [    11]: 11121
      0.00776 [    30]: 21201
      0.00463 [     7]: 10212
      0.00350 [    16]: 12021
      0.00343 [     5]: 02211
      0.00313 [     6]: 10122
      0.00278 [     2]: 01221
ROOT   1:  E=   -3419.3867833847 Eh  0.015 eV    117.7 cm**-1
      0.15946 [    20]: 12201
      0.15091 [    18]: 12111
      0.06640 [    17]: 12102
      0.06599 [    10]: 11112
      0.06366 [    32]: 22011
      0.06328 [    34]: 22110
      0.06268 [    28]: 21111
      0.04705 [    13]: 11211
      0.04306 [    16]: 12021
      0.04275 [    21]: 12210
      0.04258 [     5]: 02211
      0.03672 [    11]: 11121
      0.03158 [    15]: 12012
      0.02412 [     3]: 02112
      0.01790 [    12]: 11202
      0.01646 [    14]: 11220
      0.01583 [    19]: 12120
      0.01485 [     8]: 10221
      0.00685 [    33]: 22101
      0.00632 [    31]: 21210
      0.00611 [    22]: 20112
      0.00338 [     1]: 01212
      0.00337 [     7]: 10212
ROOT   2:  E=   -3419.3862481565 Eh  0.029 eV    235.2 cm**-1
      0.16944 [    17]: 12102
      0.16924 [    32]: 22011
      0.13619 [    18]: 12111
      0.06188 [     5]: 02211
      0.06045 [    28]: 21111
      0.04443 [     3]: 02112
      0.04390 [    27]: 21102
      0.03552 [    30]: 21201
      0.03175 [    10]: 11112
      0.03094 [    20]: 12201
      0.02912 [    19]: 12120
      0.02258 [    11]: 11121
      0.02030 [    34]: 22110
      0.01804 [    26]: 21021
      0.01631 [     6]: 10122
      0.01521 [    21]: 12210
      0.01472 [     9]: 11022
      0.01244 [    16]: 12021
      0.01229 [    13]: 11211
      0.01151 [     1]: 01212
      0.00985 [    29]: 21120
      0.00682 [    33]: 22101
      0.00431 [    12]: 11202
      0.00383 [    14]: 11220
      0.00371 [     0]: 01122
      0.00280 [    24]: 20211
ROOT   3:  E=   -3419.3859062027 Eh  0.038 eV    310.2 cm**-1
      0.43817 [    18]: 12111
      0.11465 [     5]: 02211
      0.07255 [    25]: 21012
      0.06578 [    27]: 21102
      0.06355 [    10]: 11112
      0.03963 [    32]: 22011
      0.03242 [    13]: 11211
      0.03201 [     9]: 11022
      0.02371 [    31]: 21210
      0.01950 [    20]: 12201
      0.01896 [     0]: 01122
      0.01740 [    12]: 11202
      0.00942 [    28]: 21111
      0.00803 [     2]: 01221
      0.00682 [    17]: 12102
      0.00602 [    26]: 21021
      0.00580 [    15]: 12012
      0.00439 [    29]: 21120
      0.00400 [     8]: 10221
      0.00320 [    34]: 22110
      0.00280 [    33]: 22101
ROOT   4:  E=   -3419.3838522573 Eh  0.094 eV    761.0 cm**-1
      0.34499 [    10]: 11112
      0.09559 [    18]: 12111
      0.07302 [    28]: 21111
      0.04937 [    33]: 22101
      0.04006 [    15]: 12012
      0.03712 [    32]: 22011
      0.03472 [    24]: 20211
      0.03425 [    12]: 11202
      0.02844 [    34]: 22110
      0.02831 [    17]: 12102
      0.02717 [    14]: 11220
      0.02627 [    11]: 11121
      0.01982 [    23]: 20121
      0.01916 [    30]: 21201
      0.01690 [    13]: 11211
      0.01668 [     3]: 02112
      0.01633 [    26]: 21021
      0.01513 [    16]: 12021
      0.01442 [    25]: 21012
      0.01327 [     1]: 01212
      0.00933 [    21]: 12210
      0.00727 [    20]: 12201
      0.00712 [     0]: 01122
      0.00640 [    22]: 20112
      0.00639 [     6]: 10122
      0.00349 [     5]: 02211
      0.00266 [     7]: 10212
ROOT   5:  E=   -3419.3830066402 Eh  0.117 eV    946.6 cm**-1
      0.19825 [    10]: 11112
      0.15604 [    13]: 11211
      0.10085 [    28]: 21111
      0.05208 [    26]: 21021
      0.05187 [    25]: 21012
      0.05010 [    11]: 11121
      0.04620 [     3]: 02112
      0.04244 [    29]: 21120
      0.04242 [     2]: 01221
      0.03686 [     0]: 01122
      0.03539 [    33]: 22101
      0.03343 [     1]: 01212
      0.02486 [    23]: 20121
      0.02384 [    22]: 20112
      0.01963 [     7]: 10212
      0.01804 [    32]: 22011
      0.01261 [    18]: 12111
      0.01189 [    12]: 11202
      0.00981 [    15]: 12012
      0.00538 [    31]: 21210
      0.00458 [    14]: 11220
      0.00431 [    21]: 12210
      0.00415 [    20]: 12201
      0.00400 [    16]: 12021
ROOT   6:  E=   -3419.3827725560 Eh  0.124 eV    998.0 cm**-1
      0.21697 [    11]: 11121
      0.09181 [    27]: 21102
      0.07314 [    33]: 22101
      0.07126 [    28]: 21111
      0.06519 [    25]: 21012
      0.06108 [     1]: 01212
      0.05120 [     5]: 02211
      0.04810 [    29]: 21120
      0.03926 [     8]: 10221
      0.03124 [    13]: 11211
      0.03013 [     9]: 11022
      0.02878 [    18]: 12111
      0.02164 [    16]: 12021
      0.02087 [    32]: 22011
      0.01970 [    14]: 11220
      0.01766 [    10]: 11112
      0.01724 [    17]: 12102
      0.01184 [    23]: 20121
      0.01004 [    20]: 12201
      0.00945 [    24]: 20211
      0.00854 [     2]: 01221
      0.00823 [    26]: 21021
      0.00775 [    30]: 21201
      0.00774 [    22]: 20112
      0.00765 [    34]: 22110
      0.00590 [    19]: 12120
      0.00534 [    31]: 21210
      0.00449 [     7]: 10212
      0.00311 [    15]: 12012
      0.00286 [    21]: 12210
ROOT   7:  E=   -3419.3825394029 Eh  0.130 eV   1049.2 cm**-1
      0.22903 [    13]: 11211
      0.12544 [    28]: 21111
      0.07532 [    26]: 21021
      0.05641 [    34]: 22110
      0.05410 [    11]: 11121
      0.05135 [    10]: 11112
      0.04977 [    18]: 12111
      0.03770 [     3]: 02112
      0.03547 [     1]: 01212
      0.03268 [     4]: 02121
      0.03229 [    33]: 22101
      0.03119 [    17]: 12102
      0.02180 [    27]: 21102
      0.02082 [    25]: 21012
      0.01812 [    30]: 21201
      0.01746 [    14]: 11220
      0.01544 [    12]: 11202
      0.01526 [    20]: 12201
      0.01106 [     6]: 10122
      0.00992 [     9]: 11022
      0.00984 [    15]: 12012
      0.00945 [    31]: 21210
      0.00815 [     2]: 01221
      0.00623 [    16]: 12021
      0.00561 [    29]: 21120
      0.00484 [     7]: 10212
      0.00459 [    24]: 20211
      0.00358 [     8]: 10221
ROOT   8:  E=   -3419.3814995279 Eh  0.158 eV   1277.4 cm**-1
      0.22214 [    28]: 21111
      0.09330 [    12]: 11202
      0.08175 [    10]: 11112
      0.07767 [    17]: 12102
      0.06366 [    26]: 21021
      0.06332 [    20]: 12201
      0.04304 [     6]: 10122
      0.04288 [    34]: 22110
      0.03795 [    21]: 12210
      0.03019 [    22]: 20112
      0.02663 [    15]: 12012
      0.02586 [    11]: 11121
      0.02388 [     5]: 02211
      0.02338 [     2]: 01221
      0.01933 [    18]: 12111
      0.01639 [    31]: 21210
      0.01637 [     8]: 10221
      0.01305 [    13]: 11211
      0.01160 [    25]: 21012
      0.01033 [    14]: 11220
      0.00969 [    29]: 21120
      0.00827 [     9]: 11022
      0.00738 [    27]: 21102
      0.00695 [    23]: 20121
      0.00598 [    19]: 12120
      0.00426 [     3]: 02112
      0.00405 [     4]: 02121
      0.00401 [    32]: 22011
      0.00298 [    24]: 20211
ROOT   9:  E=   -3419.3797833175 Eh  0.205 eV   1654.1 cm**-1
      0.14274 [    13]: 11211
      0.12259 [    11]: 11121
      0.07954 [    26]: 21021
      0.06375 [     0]: 01122
      0.05831 [    29]: 21120
      0.05829 [    21]: 12210
      0.05316 [    10]: 11112
      0.03299 [     1]: 01212
      0.03269 [     2]: 01221
      0.03105 [    22]: 20112
      0.02676 [     3]: 02112
      0.02642 [    18]: 12111
      0.02559 [    33]: 22101
      0.02470 [     5]: 02211
      0.02350 [    28]: 21111
      0.02000 [    12]: 11202
      0.01814 [    19]: 12120
      0.01813 [     8]: 10221
      0.01776 [    24]: 20211
      0.01668 [     7]: 10212
      0.01380 [     6]: 10122
      0.01319 [    20]: 12201
      0.01124 [    32]: 22011
      0.01116 [    16]: 12021
      0.01107 [    25]: 21012
      0.00953 [    14]: 11220
      0.00920 [    23]: 20121
      0.00814 [    34]: 22110
      0.00662 [    31]: 21210
      0.00537 [     9]: 11022
      0.00382 [    30]: 21201
ROOT  10:  E=   -3419.3796679340 Eh  0.208 eV   1679.4 cm**-1
      0.11768 [    13]: 11211
      0.10524 [    28]: 21111
      0.10501 [    11]: 11121
      0.06388 [    19]: 12120
      0.05603 [     7]: 10212
      0.05236 [     1]: 01212
      0.04936 [    14]: 11220
      0.04643 [     9]: 11022
      0.04570 [    23]: 20121
      0.04359 [     4]: 02121
      0.03312 [    31]: 21210
      0.03288 [    18]: 12111
      0.03052 [     6]: 10122
      0.02958 [    10]: 11112
      0.02893 [     2]: 01221
      0.02460 [    29]: 21120
      0.02406 [    27]: 21102
      0.02096 [    21]: 12210
      0.01925 [    20]: 12201
      0.01833 [    15]: 12012
      0.01344 [    33]: 22101
      0.00659 [     8]: 10221
      0.00607 [    26]: 21021
      0.00594 [    16]: 12021
      0.00501 [    24]: 20211
      0.00425 [     5]: 02211
      0.00370 [    22]: 20112
      0.00364 [    25]: 21012
      0.00353 [    17]: 12102
ROOT  11:  E=   -3419.3743769744 Eh  0.352 eV   2840.6 cm**-1
      0.15204 [     5]: 02211
      0.10589 [    32]: 22011
      0.06952 [    21]: 12210
      0.06809 [    20]: 12201
      0.06595 [    10]: 11112
      0.06485 [    19]: 12120
      0.06330 [    18]: 12111
      0.05896 [    28]: 21111
      0.05192 [    25]: 21012
      0.04921 [    17]: 12102
      0.03799 [    14]: 11220
      0.03077 [     3]: 02112
      0.02820 [    11]: 11121
      0.02093 [    15]: 12012
      0.02000 [    24]: 20211
      0.01644 [    29]: 21120
      0.01620 [     7]: 10212
      0.01336 [    33]: 22101
      0.01149 [    22]: 20112
      0.01025 [    12]: 11202
      0.00923 [    34]: 22110
      0.00776 [    30]: 21201
      0.00631 [    13]: 11211
      0.00542 [     8]: 10221
      0.00479 [    31]: 21210
      0.00413 [    16]: 12021
      0.00349 [    23]: 20121
ROOT  12:  E=   -3419.3723759203 Eh  0.407 eV   3279.8 cm**-1
      0.14289 [    18]: 12111
      0.11465 [    25]: 21012
      0.09064 [    21]: 12210
      0.07171 [    28]: 21111
      0.06357 [    10]: 11112
      0.05211 [     7]: 10212
      0.05060 [    11]: 11121
      0.04805 [    17]: 12102
      0.03585 [     4]: 02121
      0.03175 [    14]: 11220
      0.03133 [    20]: 12201
      0.03009 [    34]: 22110
      0.02845 [     1]: 01212
      0.02366 [    23]: 20121
      0.02234 [     2]: 01221
      0.02065 [     8]: 10221
      0.01925 [     6]: 10122
      0.01720 [    19]: 12120
      0.01696 [    29]: 21120
      0.01631 [     9]: 11022
      0.01498 [    12]: 11202
      0.01372 [    16]: 12021
      0.01242 [    13]: 11211
      0.00811 [    27]: 21102
      0.00566 [    22]: 20112
      0.00513 [     0]: 01122
      0.00317 [     3]: 02112
      0.00268 [    26]: 21021
ROOT  13:  E=   -3419.3721758424 Eh  0.412 eV   3323.7 cm**-1
      0.16171 [    10]: 11112
      0.11008 [    33]: 22101
      0.06977 [    23]: 20121
      0.06580 [    11]: 11121
      0.06453 [    28]: 21111
      0.04902 [    18]: 12111
      0.04714 [     1]: 01212
      0.04092 [    25]: 21012
      0.04066 [    13]: 11211
      0.03633 [     4]: 02121
      0.03587 [     6]: 10122
      0.03557 [    32]: 22011
      0.03369 [     5]: 02211
      0.03132 [    21]: 12210
      0.02208 [    26]: 21021
      0.02057 [    24]: 20211
      0.02019 [    27]: 21102
      0.01852 [    34]: 22110
      0.01615 [    17]: 12102
      0.01486 [    29]: 21120
      0.01272 [    22]: 20112
      0.00953 [    16]: 12021
      0.00789 [     8]: 10221
      0.00631 [    15]: 12012
      0.00624 [     0]: 01122
      0.00557 [     7]: 10212
      0.00450 [     2]: 01221
      0.00393 [    31]: 21210
      0.00331 [    20]: 12201
      0.00283 [    12]: 11202
ROOT  14:  E=   -3419.3698120551 Eh  0.476 eV   3842.5 cm**-1
      0.21464 [    18]: 12111
      0.11985 [    26]: 21021
      0.10682 [    29]: 21120
      0.09301 [    31]: 21210
      0.08332 [    12]: 11202
      0.07580 [    10]: 11112
      0.04843 [    28]: 21111
      0.04388 [    34]: 22110
      0.02976 [    13]: 11211
      0.02492 [    16]: 12021
      0.02207 [    33]: 22101
      0.01407 [    14]: 11220
      0.01282 [    11]: 11121
      0.01183 [    17]: 12102
      0.01182 [    27]: 21102
      0.01154 [     1]: 01212
      0.00990 [     2]: 01221
      0.00918 [    23]: 20121
      0.00881 [    32]: 22011
      0.00810 [     4]: 02121
      0.00694 [    15]: 12012
      0.00674 [     5]: 02211
      0.00538 [     3]: 02112
      0.00457 [    30]: 21201
      0.00406 [     7]: 10212
      0.00322 [     9]: 11022
      0.00255 [    19]: 12120
ROOT  15:  E=   -3419.3691888880 Eh  0.493 eV   3979.3 cm**-1
      0.21346 [    10]: 11112
      0.12787 [    20]: 12201
      0.09276 [    26]: 21021
      0.08728 [    13]: 11211
      0.07631 [    32]: 22011
      0.06175 [    24]: 20211
      0.05301 [    28]: 21111
      0.04631 [    31]: 21210
      0.03569 [    14]: 11220
      0.02767 [    17]: 12102
      0.02641 [    18]: 12111
      0.01746 [     9]: 11022
      0.01709 [    25]: 21012
      0.01581 [     2]: 01221
      0.01567 [    29]: 21120
      0.01501 [    15]: 12012
      0.01463 [    23]: 20121
      0.01365 [    11]: 11121
      0.00742 [     7]: 10212
      0.00526 [    19]: 12120
      0.00373 [     8]: 10221
      0.00361 [     6]: 10122
      0.00347 [     5]: 02211
      0.00334 [    16]: 12021
ROOT  16:  E=   -3419.3685654954 Eh  0.510 eV   4116.1 cm**-1
      0.21763 [     1]: 01212
      0.10213 [    29]: 21120
      0.08447 [    13]: 11211
      0.06407 [    19]: 12120
      0.04960 [    26]: 21021
      0.04433 [    17]: 12102
      0.04325 [    28]: 21111
      0.04204 [    10]: 11112
      0.03846 [    16]: 12021
      0.03454 [    33]: 22101
      0.03137 [    14]: 11220
      0.03071 [    11]: 11121
      0.02274 [    18]: 12111
      0.02140 [     4]: 02121
      0.02059 [    31]: 21210
      0.01710 [    20]: 12201
      0.01537 [     5]: 02211
      0.01508 [     3]: 02112
      0.01507 [    23]: 20121
      0.01368 [    32]: 22011
      0.01223 [     2]: 01221
      0.01142 [    27]: 21102
      0.01027 [    25]: 21012
      0.00910 [    15]: 12012
      0.00708 [     0]: 01122
      0.00681 [    34]: 22110
      0.00473 [     9]: 11022
      0.00445 [    21]: 12210
      0.00294 [    22]: 20112
      0.00285 [     6]: 10122
ROOT  17:  E=   -3419.3681794055 Eh  0.521 eV   4200.8 cm**-1
      0.25552 [    11]: 11121
      0.12664 [    13]: 11211
      0.11150 [     8]: 10221
      0.06650 [     5]: 02211
      0.06027 [    18]: 12111
      0.05230 [    25]: 21012
      0.04683 [     3]: 02112
      0.04265 [    28]: 21111
      0.02823 [    29]: 21120
      0.01767 [     0]: 01122
      0.01618 [    20]: 12201
      0.01600 [    30]: 21201
      0.01594 [    27]: 21102
      0.01531 [    16]: 12021
      0.01452 [    22]: 20112
      0.01347 [    34]: 22110
      0.01346 [    10]: 11112
      0.01249 [    31]: 21210
      0.01241 [    32]: 22011
      0.00908 [    14]: 11220
      0.00790 [    21]: 12210
      0.00757 [     7]: 10212
      0.00710 [    26]: 21021
      0.00655 [    33]: 22101
      0.00553 [    19]: 12120
      0.00520 [    17]: 12102
      0.00385 [     9]: 11022
      0.00288 [     6]: 10122
ROOT  18:  E=   -3419.3666960050 Eh  0.561 eV   4526.4 cm**-1
      0.10142 [    13]: 11211
      0.09809 [    10]: 11112
      0.08903 [    28]: 21111
      0.08445 [    18]: 12111
      0.08328 [     9]: 11022
      0.07310 [    14]: 11220
      0.06432 [     1]: 01212
      0.05765 [    11]: 11121
      0.05228 [     2]: 01221
      0.03683 [    23]: 20121
      0.03555 [    21]: 12210
      0.03343 [    19]: 12120
      0.03307 [     7]: 10212
      0.02166 [    33]: 22101
      0.01800 [    31]: 21210
      0.01694 [    15]: 12012
      0.01480 [     0]: 01122
      0.01285 [    12]: 11202
      0.01217 [    22]: 20112
      0.01198 [    20]: 12201
      0.01144 [     6]: 10122
      0.01080 [    34]: 22110
      0.00897 [    17]: 12102
      0.00811 [     5]: 02211
      0.00732 [    25]: 21012
ROOT  19:  E=   -3419.3661155958 Eh  0.577 eV   4653.8 cm**-1
      0.14808 [     2]: 01221
      0.13751 [    11]: 11121
      0.09110 [     8]: 10221
      0.09040 [     0]: 01122
      0.06546 [    13]: 11211
      0.06343 [    10]: 11112
      0.06182 [    34]: 22110
      0.05142 [    25]: 21012
      0.04490 [    14]: 11220
      0.04242 [    30]: 21201
      0.03468 [    18]: 12111
      0.03012 [     3]: 02112
      0.02008 [    28]: 21111
      0.01734 [     4]: 02121
      0.01389 [    23]: 20121
      0.01304 [    27]: 21102
      0.01236 [     6]: 10122
      0.00897 [    16]: 12021
      0.00626 [    26]: 21021
      0.00595 [     9]: 11022
      0.00547 [    29]: 21120
      0.00528 [    20]: 12201
      0.00525 [    21]: 12210
      0.00384 [     5]: 02211
      0.00379 [    32]: 22011
      0.00353 [    17]: 12102
      0.00333 [    24]: 20211
      0.00332 [    22]: 20112
ROOT  20:  E=   -3419.3637038059 Eh  0.643 eV   5183.1 cm**-1
      0.28096 [     6]: 10122
      0.14561 [    23]: 20121
      0.07886 [    10]: 11112
      0.06731 [    13]: 11211
      0.06429 [     7]: 10212
      0.06248 [    28]: 21111
      0.04863 [    26]: 21021
      0.03056 [     8]: 10221
      0.02978 [    27]: 21102
      0.02631 [    11]: 11121
      0.01820 [     0]: 01122
      0.01774 [     9]: 11022
      0.01444 [    29]: 21120
      0.01289 [    15]: 12012
      0.01284 [    24]: 20211
      0.01145 [    18]: 12111
      0.01123 [    14]: 11220
      0.00807 [    30]: 21201
      0.00781 [    31]: 21210
      0.00748 [     2]: 01221
      0.00668 [    19]: 12120
      0.00624 [     5]: 02211
      0.00556 [     1]: 01212
      0.00555 [    21]: 12210
      0.00470 [    33]: 22101
      0.00260 [     4]: 02121
ROOT  21:  E=   -3419.3601736667 Eh  0.739 eV   5957.9 cm**-1
      0.11504 [    34]: 22110
      0.09451 [     3]: 02112
      0.08928 [    18]: 12111
      0.08173 [    10]: 11112
      0.07294 [    28]: 21111
      0.06290 [    13]: 11211
      0.05778 [    20]: 12201
      0.04828 [    16]: 12021
      0.04814 [    19]: 12120
      0.04030 [     5]: 02211
      0.03540 [    11]: 11121
      0.03365 [    21]: 12210
      0.02994 [    27]: 21102
      0.02179 [    25]: 21012
      0.02176 [    30]: 21201
      0.01910 [    15]: 12012
      0.01845 [    17]: 12102
      0.01579 [     1]: 01212
      0.01452 [    23]: 20121
      0.01258 [     9]: 11022
      0.01183 [     0]: 01122
      0.00990 [    29]: 21120
      0.00765 [    32]: 22011
      0.00755 [     2]: 01221
      0.00666 [     8]: 10221
      0.00638 [    33]: 22101
      0.00518 [    12]: 11202
      0.00375 [    24]: 20211
      0.00347 [    26]: 21021
ROOT  22:  E=   -3419.3593912845 Eh  0.760 eV   6129.6 cm**-1
      0.13413 [    12]: 11202
      0.12626 [    18]: 12111
      0.11878 [    10]: 11112
      0.09805 [    28]: 21111
      0.08324 [    15]: 12012
      0.06915 [     9]: 11022
      0.06632 [    21]: 12210
      0.03770 [    16]: 12021
      0.03058 [    33]: 22101
      0.02956 [     0]: 01122
      0.02656 [    26]: 21021
      0.02422 [    23]: 20121
      0.02278 [    32]: 22011
      0.02054 [    20]: 12201
      0.01696 [    22]: 20112
      0.01450 [    29]: 21120
      0.01388 [    11]: 11121
      0.01095 [    14]: 11220
      0.01030 [     4]: 02121
      0.00829 [     1]: 01212
      0.00756 [    13]: 11211
      0.00668 [     2]: 01221
      0.00665 [     5]: 02211
      0.00395 [    25]: 21012
      0.00334 [    34]: 22110
ROOT  23:  E=   -3419.3581332955 Eh  0.794 eV   6405.7 cm**-1
      0.15240 [    28]: 21111
      0.12439 [    13]: 11211
      0.07993 [    10]: 11112
      0.05661 [    27]: 21102
      0.05480 [     1]: 01212
      0.05475 [    22]: 20112
      0.05269 [     5]: 02211
      0.05209 [    15]: 12012
      0.04506 [     0]: 01122
      0.03894 [    11]: 11121
      0.03842 [     3]: 02112
      0.03232 [    32]: 22011
      0.02722 [    33]: 22101
      0.02452 [    30]: 21201
      0.02411 [    21]: 12210
      0.02348 [     2]: 01221
      0.02336 [    18]: 12111
      0.01980 [     4]: 02121
      0.01565 [     8]: 10221
      0.01196 [     7]: 10212
      0.00860 [    25]: 21012
      0.00833 [    23]: 20121
      0.00703 [     9]: 11022
      0.00563 [    20]: 12201
      0.00542 [    26]: 21021
      0.00434 [    12]: 11202
      0.00393 [    31]: 21210
ROOT  24:  E=   -3419.3569247470 Eh  0.827 eV   6670.9 cm**-1
      0.21565 [    28]: 21111
      0.09597 [    15]: 12012
      0.09042 [    13]: 11211
      0.07729 [     3]: 02112
      0.06789 [    12]: 11202
      0.06468 [    18]: 12111
      0.06089 [     2]: 01221
      0.05224 [    30]: 21201
      0.04746 [    34]: 22110
      0.04367 [     7]: 10212
      0.03603 [    10]: 11112
      0.02058 [    14]: 11220
      0.01398 [    27]: 21102
      0.01242 [     1]: 01212
      0.01235 [    21]: 12210
      0.01220 [     9]: 11022
      0.01172 [    25]: 21012
      0.01066 [    17]: 12102
      0.00916 [     6]: 10122
      0.00675 [    11]: 11121
      0.00618 [     0]: 01122
      0.00565 [    23]: 20121
      0.00546 [    24]: 20211
      0.00466 [    19]: 12120
      0.00385 [     8]: 10221
      0.00315 [    33]: 22101
      0.00291 [    31]: 21210
ROOT  25:  E=   -3419.3566473553 Eh  0.835 eV   6731.8 cm**-1
      0.18179 [    29]: 21120
      0.13481 [    11]: 11121
      0.11714 [    18]: 12111
      0.11393 [    28]: 21111
      0.08724 [     8]: 10221
      0.05103 [    24]: 20211
      0.03547 [     0]: 01122
      0.03330 [    26]: 21021
      0.02829 [    10]: 11112
      0.02762 [    27]: 21102
      0.02575 [    16]: 12021
      0.02401 [    32]: 22011
      0.01939 [    25]: 21012
      0.01649 [     3]: 02112
      0.01632 [    15]: 12012
      0.01551 [     4]: 02121
      0.01545 [    34]: 22110
      0.01257 [     2]: 01221
      0.00811 [     7]: 10212
      0.00698 [    33]: 22101
      0.00696 [    31]: 21210
      0.00423 [     6]: 10122
      0.00396 [    20]: 12201
      0.00384 [     1]: 01212
      0.00287 [    19]: 12120
ROOT  26:  E=   -3419.3556470527 Eh  0.862 eV   6951.4 cm**-1
      0.18751 [    13]: 11211
      0.10799 [    14]: 11220
      0.10126 [    28]: 21111
      0.07473 [    11]: 11121
      0.06431 [    18]: 12111
      0.05814 [     2]: 01221
      0.05679 [    10]: 11112
      0.05222 [    29]: 21120
      0.04008 [    26]: 21021
      0.03892 [     5]: 02211
      0.03800 [    27]: 21102
      0.02320 [    31]: 21210
      0.02276 [    12]: 11202
      0.02182 [     9]: 11022
      0.01955 [     8]: 10221
      0.01931 [    23]: 20121
      0.01827 [     7]: 10212
      0.01018 [     1]: 01212
      0.00738 [    22]: 20112
      0.00666 [     4]: 02121
      0.00662 [    32]: 22011
      0.00447 [    21]: 12210
      0.00413 [    20]: 12201
      0.00321 [     6]: 10122
ROOT  27:  E=   -3419.3543908147 Eh  0.896 eV   7227.1 cm**-1
      0.36031 [    11]: 11121
      0.32983 [    13]: 11211
      0.04886 [    28]: 21111
      0.04583 [    14]: 11220
      0.02964 [     7]: 10212
      0.02961 [    10]: 11112
      0.02366 [    18]: 12111
      0.02238 [     9]: 11022
      0.01926 [     0]: 01122
      0.01709 [    26]: 21021
      0.01456 [    27]: 21102
      0.00882 [    21]: 12210
      0.00817 [     8]: 10221
      0.00770 [    33]: 22101
      0.00541 [     4]: 02121
      0.00530 [    15]: 12012
      0.00455 [    16]: 12021
      0.00353 [    31]: 21210
ROOT  28:  E=   -3419.3526797144 Eh  0.943 eV   7602.6 cm**-1
      0.25128 [    22]: 20112
      0.20208 [    11]: 11121
      0.15597 [     8]: 10221
      0.04753 [    34]: 22110
      0.04415 [     3]: 02112
      0.04347 [     6]: 10122
      0.03851 [    28]: 21111
      0.02593 [    18]: 12111
      0.02451 [    24]: 20211
      0.02239 [    10]: 11112
      0.02014 [    19]: 12120
      0.01972 [    20]: 12201
      0.01865 [    16]: 12021
      0.01717 [     5]: 02211
      0.01431 [     2]: 01221
      0.01126 [    21]: 12210
      0.01076 [    25]: 21012
      0.00827 [     1]: 01212
      0.00652 [    15]: 12012
      0.00506 [    17]: 12102
      0.00379 [    26]: 21021
ROOT  29:  E=   -3419.3526312806 Eh  0.944 eV   7613.2 cm**-1
      0.26853 [    23]: 20121
      0.17715 [     7]: 10212
      0.12788 [    10]: 11112
      0.07455 [     4]: 02121
      0.05674 [    26]: 21021
      0.04832 [    21]: 12210
      0.03413 [     2]: 01221
      0.02070 [    14]: 11220
      0.01960 [    24]: 20211
      0.01817 [    13]: 11211
      0.01760 [     0]: 01122
      0.01683 [    15]: 12012
      0.01653 [    33]: 22101
      0.01616 [    28]: 21111
      0.01479 [     9]: 11022
      0.01447 [    18]: 12111
      0.01097 [    32]: 22011
      0.00703 [    19]: 12120
      0.00627 [    16]: 12021
      0.00565 [    31]: 21210
      0.00479 [    20]: 12201
      0.00426 [    27]: 21102
      0.00332 [    29]: 21120
      0.00322 [     6]: 10122
      0.00260 [    11]: 11121
ROOT  30:  E=   -3419.3229730686 Eh  1.751 eV  14122.5 cm**-1
      0.20422 [    18]: 12111
      0.15202 [    10]: 11112
      0.10966 [    12]: 11202
      0.09759 [    28]: 21111
      0.07309 [    31]: 21210
      0.06641 [    25]: 21012
      0.04497 [    24]: 20211
      0.04283 [     9]: 11022
      0.04182 [    32]: 22011
      0.04067 [    20]: 12201
      0.03392 [    11]: 11121
      0.01133 [    16]: 12021
      0.01001 [    34]: 22110
      0.00962 [    14]: 11220
      0.00874 [    13]: 11211
      0.00851 [     8]: 10221
      0.00830 [    15]: 12012
      0.00774 [     6]: 10122
      0.00598 [     3]: 02112
      0.00427 [     2]: 01221
      0.00284 [     7]: 10212
      0.00264 [    19]: 12120
      0.00263 [    17]: 12102
      0.00256 [    27]: 21102
ROOT  31:  E=   -3419.3218748012 Eh  1.781 eV  14363.5 cm**-1
      0.12942 [    28]: 21111
      0.10167 [    11]: 11121
      0.06445 [    30]: 21201
      0.06246 [    15]: 12012
      0.05628 [    14]: 11220
      0.05057 [    16]: 12021
      0.04907 [    10]: 11112
      0.04710 [     3]: 02112
      0.04495 [    31]: 21210
      0.04338 [    27]: 21102
      0.03992 [     2]: 01221
      0.03362 [     9]: 11022
      0.03331 [     0]: 01122
      0.02424 [     1]: 01212
      0.02362 [    34]: 22110
      0.02259 [    19]: 12120
      0.02257 [    21]: 12210
      0.02060 [     6]: 10122
      0.01880 [    33]: 22101
      0.01803 [    20]: 12201
      0.01711 [    18]: 12111
      0.01687 [     5]: 02211
      0.01146 [     8]: 10221
      0.00898 [    24]: 20211
      0.00868 [    13]: 11211
      0.00702 [    25]: 21012
      0.00650 [     4]: 02121
      0.00547 [     7]: 10212
      0.00363 [    22]: 20112
      0.00340 [    23]: 20121
ROOT  32:  E=   -3419.3209944473 Eh  1.805 eV  14556.7 cm**-1
      0.21451 [    13]: 11211
      0.10833 [    11]: 11121
      0.06068 [    18]: 12111
      0.05367 [     0]: 01122
      0.04215 [     1]: 01212
      0.03935 [     9]: 11022
      0.03745 [    12]: 11202
      0.03688 [    17]: 12102
      0.03679 [     2]: 01221
      0.03654 [    28]: 21111
      0.03610 [     4]: 02121
      0.03302 [    27]: 21102
      0.03209 [    16]: 12021
      0.02713 [    34]: 22110
      0.02682 [    24]: 20211
      0.02515 [    10]: 11112
      0.02229 [    30]: 21201
      0.01994 [    33]: 22101
      0.01866 [     5]: 02211
      0.01672 [    31]: 21210
      0.01487 [     3]: 02112
      0.01336 [    19]: 12120
      0.01188 [    29]: 21120
      0.01055 [     8]: 10221
      0.00582 [    26]: 21021
      0.00438 [    20]: 12201
      0.00319 [    32]: 22011
      0.00264 [    15]: 12012
ROOT  33:  E=   -3419.3194563215 Eh  1.847 eV  14894.3 cm**-1
      0.19978 [    28]: 21111
      0.12349 [    19]: 12120
      0.09087 [     6]: 10122
      0.08123 [    15]: 12012
      0.07769 [    11]: 11121
      0.04492 [    30]: 21201
      0.04256 [     7]: 10212
      0.04226 [    13]: 11211
      0.03720 [     4]: 02121
      0.03579 [    24]: 20211
      0.02720 [     2]: 01221
      0.02655 [     3]: 02112
      0.02473 [     5]: 02211
      0.01793 [    29]: 21120
      0.01654 [    16]: 12021
      0.01476 [     9]: 11022
      0.01475 [    12]: 11202
      0.01439 [    23]: 20121
      0.01273 [     8]: 10221
      0.01145 [    18]: 12111
      0.00981 [    27]: 21102
      0.00661 [    22]: 20112
      0.00619 [    34]: 22110
      0.00574 [    33]: 22101
      0.00338 [    10]: 11112
      0.00257 [    21]: 12210
ROOT  34:  E=   -3419.3190616001 Eh  1.857 eV  14980.9 cm**-1
      0.26455 [    11]: 11121
      0.19691 [    13]: 11211
      0.14568 [    22]: 20112
      0.05810 [    28]: 21111
      0.04961 [    34]: 22110
      0.03181 [    10]: 11112
      0.03144 [     8]: 10221
      0.03043 [     3]: 02112
      0.02862 [    30]: 21201
      0.02559 [     2]: 01221
      0.01469 [     4]: 02121
      0.01439 [    17]: 12102
      0.01379 [    16]: 12021
      0.01337 [    18]: 12111
      0.01321 [    21]: 12210
      0.00999 [    20]: 12201
      0.00965 [    23]: 20121
      0.00717 [     6]: 10122
      0.00648 [    24]: 20211
      0.00602 [    14]: 11220
      0.00564 [    15]: 12012
      0.00532 [    29]: 21120
      0.00320 [    12]: 11202
      0.00275 [    32]: 22011
      0.00259 [    25]: 21012
ROOT  35:  E=   -3419.2234096343 Eh  4.460 eV  35974.1 cm**-1
      0.15560 [    33]: 22101
      0.13267 [     4]: 02121
      0.09410 [    27]: 21102
      0.07685 [    15]: 12012
      0.06346 [    23]: 20121
      0.06254 [    32]: 22011
      0.05577 [     7]: 10212
      0.04232 [    16]: 12021
      0.04215 [    18]: 12111
      0.03984 [    20]: 12201
      0.03356 [    21]: 12210
      0.03196 [    24]: 20211
      0.02344 [    13]: 11211
      0.01878 [     9]: 11022
      0.01623 [    10]: 11112
      0.01552 [    29]: 21120
      0.01299 [    17]: 12102
      0.01263 [    11]: 11121
      0.01135 [    25]: 21012
      0.01134 [     0]: 01122
      0.00788 [    14]: 11220
      0.00758 [    22]: 20112
      0.00693 [     5]: 02211
      0.00345 [     6]: 10122
      0.00343 [     3]: 02112
      0.00326 [     2]: 01221
      0.00295 [    19]: 12120
ROOT  36:  E=   -3419.2227035458 Eh  4.479 eV  36129.1 cm**-1
      0.13857 [    16]: 12021
      0.11332 [    34]: 22110
      0.10095 [     3]: 02112
      0.09652 [    22]: 20112
      0.08200 [    30]: 21201
      0.05578 [     8]: 10221
      0.04052 [    20]: 12201
      0.03345 [    21]: 12210
      0.03139 [    14]: 11220
      0.02949 [    18]: 12111
      0.02945 [    26]: 21021
      0.02788 [    28]: 21111
      0.02283 [     7]: 10212
      0.02218 [    17]: 12102
      0.01868 [    12]: 11202
      0.01768 [    15]: 12012
      0.01735 [    11]: 11121
      0.01559 [    10]: 11112
      0.01444 [     0]: 01122
      0.01387 [    13]: 11211
      0.01315 [     5]: 02211
      0.01286 [     6]: 10122
      0.01131 [    32]: 22011
      0.01003 [     4]: 02121
      0.00698 [    31]: 21210
      0.00608 [     1]: 01212
      0.00595 [     2]: 01221
      0.00318 [    33]: 22101
      0.00277 [    27]: 21102
ROOT  37:  E=   -3419.2204972620 Eh  4.539 eV  36613.3 cm**-1
      0.13915 [    15]: 12012
      0.11761 [    21]: 12210
      0.10695 [     7]: 10212
      0.07976 [     9]: 11022
      0.05751 [    27]: 21102
      0.05604 [    30]: 21201
      0.05355 [    10]: 11112
      0.05263 [    19]: 12120
      0.04716 [    17]: 12102
      0.03635 [    12]: 11202
      0.03442 [    33]: 22101
      0.02846 [    13]: 11211
      0.02686 [    16]: 12021
      0.02476 [    28]: 21111
      0.01868 [     4]: 02121
      0.01830 [    20]: 12201
      0.01386 [     8]: 10221
      0.01386 [     2]: 01221
      0.01269 [    22]: 20112
      0.01249 [    11]: 11121
      0.01161 [    25]: 21012
      0.00590 [    14]: 11220
      0.00585 [    18]: 12111
      0.00532 [     0]: 01122
      0.00458 [    23]: 20121
      0.00425 [    31]: 21210
      0.00419 [     3]: 02112
      0.00305 [    24]: 20211
ROOT  38:  E=   -3419.2190616384 Eh  4.579 eV  36928.4 cm**-1
      0.16766 [    30]: 21201
      0.10252 [     2]: 01221
      0.09692 [     3]: 02112
      0.06864 [    31]: 21210
      0.05714 [     1]: 01212
      0.04809 [    18]: 12111
      0.04808 [    25]: 21012
      0.04751 [    13]: 11211
      0.04374 [    22]: 20112
      0.04267 [     9]: 11022
      0.03942 [    10]: 11112
      0.02826 [    26]: 21021
      0.02761 [    24]: 20211
      0.02520 [    12]: 11202
      0.02460 [     5]: 02211
      0.02443 [     0]: 01122
      0.02111 [    19]: 12120
      0.01302 [    28]: 21111
      0.01069 [    14]: 11220
      0.01028 [    34]: 22110
      0.01022 [     7]: 10212
      0.00893 [    16]: 12021
      0.00848 [    27]: 21102
      0.00618 [    33]: 22101
      0.00503 [    11]: 11121
      0.00390 [     8]: 10221
      0.00357 [     6]: 10122
      0.00319 [    21]: 12210
ROOT  39:  E=   -3419.2177030080 Eh  4.616 eV  37226.6 cm**-1
      0.24789 [    31]: 21210
      0.14355 [     0]: 01122
      0.12931 [    27]: 21102
      0.10991 [    29]: 21120
      0.09785 [    25]: 21012
      0.04249 [    30]: 21201
      0.03437 [    18]: 12111
      0.03393 [    14]: 11220
      0.02680 [     4]: 02121
      0.02647 [    19]: 12120
      0.01961 [    16]: 12021
      0.01689 [    32]: 22011
      0.00925 [    28]: 21111
      0.00859 [     1]: 01212
      0.00708 [    13]: 11211
      0.00677 [    10]: 11112
      0.00563 [    23]: 20121
      0.00553 [    11]: 11121
      0.00483 [    15]: 12012
      0.00445 [     2]: 01221
      0.00322 [     6]: 10122
      0.00299 [     7]: 10212
      0.00288 [    21]: 12210
      0.00275 [    34]: 22110
ROOT  40:  E=   -3419.2170592506 Eh  4.633 eV  37367.9 cm**-1
      0.14767 [    19]: 12120
      0.13291 [    16]: 12021
      0.10710 [     8]: 10221
      0.09003 [     6]: 10122
      0.07311 [    22]: 20112
      0.05138 [    34]: 22110
      0.05031 [    28]: 21111
      0.04568 [    21]: 12210
      0.04372 [    10]: 11112
      0.02863 [    20]: 12201
      0.02742 [    24]: 20211
      0.02366 [     3]: 02112
      0.01989 [    30]: 21201
      0.01909 [    17]: 12102
      0.01661 [     0]: 01122
      0.01565 [     2]: 01221
      0.01507 [    26]: 21021
      0.01217 [    27]: 21102
      0.01216 [     9]: 11022
      0.01147 [    13]: 11211
      0.00997 [    31]: 21210
      0.00895 [    18]: 12111
      0.00885 [    15]: 12012
      0.00612 [     7]: 10212
      0.00546 [     5]: 02211
      0.00517 [    33]: 22101
      0.00477 [    11]: 11121
ROOT  41:  E=   -3419.2158245793 Eh  4.667 eV  37638.8 cm**-1
      0.19579 [     4]: 02121
      0.13772 [    24]: 20211
      0.09128 [    16]: 12021
      0.07377 [     5]: 02211
      0.07259 [    11]: 11121
      0.05606 [    32]: 22011
      0.04969 [     6]: 10122
      0.04399 [    23]: 20121
      0.03349 [    19]: 12120
      0.03211 [    22]: 20112
      0.02070 [    17]: 12102
      0.01949 [    10]: 11112
      0.01891 [    34]: 22110
      0.01884 [    13]: 11211
      0.01879 [    18]: 12111
      0.01728 [     0]: 01122
      0.01645 [    33]: 22101
      0.01390 [    20]: 12201
      0.01062 [     3]: 02112
      0.00991 [    31]: 21210
      0.00896 [     7]: 10212
      0.00779 [     9]: 11022
      0.00672 [    14]: 11220
      0.00662 [    15]: 12012
      0.00584 [    26]: 21021
      0.00292 [    12]: 11202
      0.00252 [    28]: 21111
ROOT  42:  E=   -3419.2132396662 Eh  4.737 eV  38206.2 cm**-1
      0.18792 [     9]: 11022
      0.18524 [    30]: 21201
      0.10218 [    12]: 11202
      0.07382 [    14]: 11220
      0.06496 [    10]: 11112
      0.05199 [     0]: 01122
      0.04827 [     2]: 01221
      0.03828 [     4]: 02121
      0.03769 [    13]: 11211
      0.03516 [    26]: 21021
      0.03256 [    24]: 20211
      0.01940 [    25]: 21012
      0.01697 [     1]: 01212
      0.01565 [    21]: 12210
      0.01442 [     8]: 10221
      0.01375 [    33]: 22101
      0.01355 [    28]: 21111
      0.00870 [    20]: 12201
      0.00868 [    18]: 12111
      0.00647 [    29]: 21120
      0.00646 [    17]: 12102
      0.00493 [    19]: 12120
      0.00282 [    23]: 20121
      0.00273 [    11]: 11121
      0.00259 [    16]: 12021
ROOT  43:  E=   -3419.2106271848 Eh  4.808 eV  38779.5 cm**-1
      0.14920 [     0]: 01122
      0.13686 [    31]: 21210
      0.10921 [     4]: 02121
      0.08016 [    14]: 11220
      0.05980 [     1]: 01212
      0.04244 [    19]: 12120
      0.03881 [    22]: 20112
      0.03704 [    11]: 11121
      0.03570 [    18]: 12111
      0.03413 [     9]: 11022
      0.03353 [    24]: 20211
      0.02966 [    12]: 11202
      0.02633 [    27]: 21102
      0.02465 [    34]: 22110
      0.02351 [    13]: 11211
      0.02203 [     3]: 02112
      0.01557 [    29]: 21120
      0.01448 [    10]: 11112
      0.01413 [     2]: 01221
      0.01244 [    16]: 12021
      0.01016 [    25]: 21012
      0.00849 [    21]: 12210
      0.00834 [    23]: 20121
      0.00786 [    15]: 12012
      0.00606 [    17]: 12102
      0.00518 [    28]: 21111
      0.00497 [     7]: 10212
      0.00304 [     6]: 10122
      0.00281 [    32]: 22011
ROOT  44:  E=   -3419.2044590468 Eh  4.976 eV  40133.3 cm**-1
      0.26802 [    24]: 20211
      0.13890 [     6]: 10122
      0.13039 [     7]: 10212
      0.04703 [     8]: 10221
      0.04089 [    19]: 12120
      0.03439 [    28]: 21111
      0.03244 [    32]: 22011
      0.03081 [    10]: 11112
      0.02699 [    23]: 20121
      0.02620 [    22]: 20112
      0.02479 [     9]: 11022
      0.02184 [    11]: 11121
      0.02168 [     5]: 02211
      0.01943 [    17]: 12102
      0.01907 [    15]: 12012
      0.01870 [    25]: 21012
      0.01454 [     0]: 01122
      0.01223 [    16]: 12021
      0.01083 [     1]: 01212
      0.00963 [    13]: 11211
      0.00925 [    26]: 21021
      0.00765 [    20]: 12201
      0.00697 [    31]: 21210
      0.00617 [    21]: 12210
      0.00518 [     2]: 01221
      0.00492 [    29]: 21120
      0.00345 [    14]: 11220
      0.00263 [    18]: 12111

                 <<<<<<<<<<<<<<<<<<INITIAL CI STATE CHECK>>>>>>>>>>>>>>>>>>

   E(CAS)= -3419.404511188 Eh DE=    0.000000e+00
   --- Energy gap subspaces: Ext-Act = 0.243   Act-Int = -0.055
   N(occ)=  1.20000 1.20000 1.20000 1.20000 1.20000
   ||g|| =     8.584155e-04 Max(G)=   -1.080258e-04 Rot=592,21
                     ---- THE CAS-SCF GRADIENT HAS CONVERGED ----
                            --- FINALIZING ORBITALS ---
                    ---- DOING ONE FINAL ITERATION FOR PRINTING ----
   --- Forming Natural Orbitals
   --- Canonicalize Internal Space
   --- Canonicalize External Space

MACRO-ITERATION   2: 
   --- Inactive Energy E0 = -3403.48161336 Eh
   --- All densities will be recomputed
CI-ITERATION   0: 
 -3419.484389520   0.000000000000 (    0.00)
 -3419.480178312   0.000000000000
 -3419.477585643   0.000000000000
 -3419.475742386   0.000000000000
 -3419.473201200   0.000000000000
   CI-PROBLEM SOLVED
   DENSITIES MADE
CI-ITERATION   0: 
 -3419.387319800   0.000000000000 (    0.00)
 -3419.386783386   0.000000000000
 -3419.386248158   0.000000000000
 -3419.385906204   0.000000000000
 -3419.383852259   0.000000000000
 -3419.383006642   0.000000000000
 -3419.382772558   0.000000000000
 -3419.382539405   0.000000000000
 -3419.381499530   0.000000000000
 -3419.379783319   0.000000000000
 -3419.379667936   0.000000000000
 -3419.374376976   0.000000000000
 -3419.372375922   0.000000000000
 -3419.372175844   0.000000000000
 -3419.369812058   0.000000000000
 -3419.369188890   0.000000000000
 -3419.368565497   0.000000000000
 -3419.368179407   0.000000000000
 -3419.366696007   0.000000000000
 -3419.366115598   0.000000000000
 -3419.363703809   0.000000000000
 -3419.360173668   0.000000000000
 -3419.359391286   0.000000000000
 -3419.358133297   0.000000000000
 -3419.356924749   0.000000000000
 -3419.356647358   0.000000000000
 -3419.355647055   0.000000000000
 -3419.354390817   0.000000000000
 -3419.352679717   0.000000000000
 -3419.352631283   0.000000000000
 -3419.322973071   0.000000000000
 -3419.321874803   0.000000000000
 -3419.320994449   0.000000000000
 -3419.319456324   0.000000000000
 -3419.319061602   0.000000000000
 -3419.223409636   0.000000000000
 -3419.222703548   0.000000000000
 -3419.220497264   0.000000000000
 -3419.219061640   0.000000000000
 -3419.217703011   0.000000000000
 -3419.217059253   0.000000000000
 -3419.215824581   0.000000000000
 -3419.213239668   0.000000000000
 -3419.210627186   0.000000000000
 -3419.204459050   0.000000000000
   CI-PROBLEM SOLVED
   DENSITIES MADE
   E(CAS)= -3419.404511190 Eh DE=   -2.004981e-09
   --- Energy gap subspaces: Ext-Act = 0.243   Act-Int = -0.055
   N(occ)=  1.20000 1.20000 1.20000 1.20000 1.20000
   ||g|| =     8.584155e-04 Max(G)=    1.080258e-04 Rot=592,21
--------------
CASSCF RESULTS
--------------

Final CASSCF energy       : -3419.404511190 Eh  -93046.7272 eV

----------------
ORBITAL ENERGIES
----------------

  NO   OCC          E(Eh)            E(eV) 
   0   2.0000    -261.407129     -7113.2496 
[...]
 3 117   31268.8    319.8   0.000000000   0.00000   0.00003   0.00003   0.00009
 3 118   31662.8    315.8   0.000000000   0.00000   0.00017   0.00015   0.00021
 3 119   31666.6    315.8   0.000000000   0.00000   0.00018   0.00012   0.00031
 3 120   31670.9    315.7   0.000000001   0.00000   0.00045   0.00020   0.00047
 3 121   31969.1    312.8   0.000000000   0.00000   0.00002   0.00031   0.00018
 3 122   31973.0    312.8   0.000000000   0.00000   0.00005   0.00013   0.00021
 3 123   31974.5    312.7   0.000000000   0.00000   0.00001   0.00016   0.00008
 3 124   32502.5    307.7   0.000000000   0.00000   0.00027   0.00013   0.00022
 3 125   32502.9    307.7   0.000000000   0.00000   0.00013   0.00001   0.00009
 3 126   32539.2    307.3   0.000000000   0.00000   0.00006   0.00009   0.00013
 3 127   32611.6    306.6   0.000000000   0.00000   0.00000   0.00011   0.00015
 3 128   32647.1    306.3   0.000000002   0.00000   0.00024   0.00053   0.00064
 3 129   32648.0    306.3   0.000000000   0.00000   0.00020   0.00002   0.00031
 3 130   47967.7    208.5   0.000000000   0.00000   0.00003   0.00035   0.00007
 3 131   47982.9    208.4   0.000000000   0.00000   0.00026   0.00007   0.00008
 3 132   47984.8    208.4   0.000000000   0.00000   0.00004   0.00008   0.00004
 3 133   48430.3    206.5   0.000000000   0.00000   0.00009   0.00029   0.00008
 3 134   48433.3    206.5   0.000000000   0.00000   0.00004   0.00015   0.00010
 3 135   48435.4    206.5   0.000000000   0.00000   0.00005   0.00010   0.00011
 3 136   48535.0    206.0   0.000000000   0.00000   0.00003   0.00010   0.00007
 3 137   48574.8    205.9   0.000000000   0.00000   0.00001   0.00001   0.00002
 3 138   48607.4    205.7   0.000000000   0.00000   0.00005   0.00025   0.00016
 3 139   49105.3    203.6   0.000000000   0.00000   0.00021   0.00019   0.00012
 3 140   49150.2    203.5   0.000000001   0.00000   0.00019   0.00007   0.00041
 3 141   49175.1    203.4   0.000000000   0.00000   0.00006   0.00000   0.00018
 3 142   49680.6    201.3   0.000000000   0.00000   0.00026   0.00007   0.00005
 3 143   49685.8    201.3   0.000000000   0.00000   0.00023   0.00022   0.00008
 3 144   49694.1    201.2   0.000000001   0.00000   0.00018   0.00006   0.00044
 3 145   49946.8    200.2   0.000000000   0.00000   0.00004   0.00009   0.00033
 3 146   49960.8    200.2   0.000000000   0.00000   0.00014   0.00018   0.00022
 3 147   49975.8    200.1   0.000000000   0.00000   0.00001   0.00002   0.00027
 3 148   50281.6    198.9   0.000000002   0.00000   0.00052   0.00005   0.00032
 3 149   50304.3    198.8   0.000000003   0.00000   0.00071   0.00029   0.00035
 3 150   50308.9    198.8   0.000000001   0.00000   0.00043   0.00019   0.00015
 3 151   50991.9    196.1   0.000000000   0.00000   0.00012   0.00008   0.00004
 3 152   51002.5    196.1   0.000000000   0.00000   0.00024   0.00018   0.00007
 3 153   51010.3    196.0   0.000000000   0.00000   0.00002   0.00007   0.00001
 3 154   51807.3    193.0   0.000000000   0.00000   0.00001   0.00003   0.00002
 3 155   51863.1    192.8   0.000000000   0.00000   0.00013   0.00000   0.00014
 3 156   51872.3    192.8   0.000000000   0.00000   0.00003   0.00015   0.00009
 3 157   53965.8    185.3   0.000000000   0.00000   0.00019   0.00004   0.00013
 3 158   53974.3    185.3   0.000000000   0.00000   0.00001   0.00001   0.00009
 3 159   53999.3    185.2   0.000000000   0.00000   0.00002   0.00002   0.00002
 4  5    1431.9   6983.7   0.000000131   0.00115   0.03273   0.00729   0.00485
 4  6    1433.3   6976.7   0.000000084   0.00074   0.02479   0.00210   0.01088
 4  7    1502.6   6655.2   0.000000013   0.00011   0.00882   0.00443   0.00315
 4  8    1525.1   6557.0   0.000000013   0.00010   0.00992   0.00200   0.00152
 4  9    1543.5   6478.7   0.000000012   0.00010   0.00956   0.00115   0.00241
 4 10    2329.7   4292.4   0.000000002   0.00001   0.00317   0.00056   0.00120
 4 11    2335.1   4282.5   0.000000001   0.00001   0.00263   0.00046   0.00080
 4 12    2384.6   4193.5   0.000000063   0.00033   0.01211   0.00012   0.01363
 4 13    2418.1   4135.5   0.000000127   0.00066   0.01727   0.00536   0.01820
 4 14    2430.6   4114.3   0.000000022   0.00011   0.00077   0.00222   0.01043
 4 15    2684.6   3724.9   0.000000026   0.00012   0.00406   0.00831   0.00588
 4 16    2690.1   3717.3   0.000000137   0.00064   0.00230   0.02080   0.01430
 4 17    2813.3   3554.5   0.000000043   0.00019   0.00534   0.00623   0.01112
 4 18    2845.1   3514.8   0.000000005   0.00002   0.00006   0.00020   0.00459
 4 19    2880.4   3471.8   0.000000007   0.00003   0.00150   0.00299   0.00463
 4 20    3857.9   2592.1   0.000000013   0.00004   0.00039   0.00530   0.00379
 4 21    3884.7   2574.2   0.000000017   0.00006   0.00599   0.00177   0.00411
 4 22    3893.8   2568.2   0.000000008   0.00003   0.00165   0.00315   0.00364
 4 23    3969.9   2519.0   0.000000108   0.00034   0.00370   0.01563   0.00924
 4 24    3970.1   2518.8   0.000000144   0.00046   0.00043   0.02137   0.00047
 4 25   19526.0    512.1   0.000000001   0.00000   0.00060   0.00028   0.00038
 4 26   19542.2    511.7   0.000000000   0.00000   0.00013   0.00030   0.00020
 4 27   19554.7    511.4   0.000000002   0.00000   0.00082   0.00059   0.00032
 4 28   19892.7    502.7   0.000000001   0.00000   0.00033   0.00048   0.00062
 4 29   19919.3    502.0   0.000000000   0.00000   0.00030   0.00031   0.00015
 4 30   19976.2    500.6   0.000000000   0.00000   0.00000   0.00002   0.00015
 4 31   20019.0    499.5   0.000000001   0.00000   0.00067   0.00010   0.00062
 4 32   20085.1    497.9   0.000000001   0.00000   0.00065   0.00057   0.00012
 4 33   20101.0    497.5   0.000000000   0.00000   0.00005   0.00019   0.00011
 4 34   20268.6    493.4   0.000000000   0.00000   0.00023   0.00003   0.00001
 4 35   20281.4    493.1   0.000000001   0.00000   0.00019   0.00056   0.00020
 4 36   20296.0    492.7   0.000000000   0.00000   0.00017   0.00040   0.00028
 4 37   20604.5    485.3   0.000000000   0.00000   0.00038   0.00017   0.00023
 4 38   20657.0    484.1   0.000000000   0.00000   0.00039   0.00004   0.00004
 4 39   20667.1    483.9   0.000000000   0.00000   0.00009   0.00031   0.00005
 4 40   20952.3    477.3   0.000000000   0.00000   0.00016   0.00014   0.00043
 4 41   20958.3    477.1   0.000000001   0.00000   0.00038   0.00002   0.00057
 4 42   20975.8    476.7   0.000000000   0.00000   0.00027   0.00011   0.00011
 4 43   21151.6    472.8   0.000000001   0.00000   0.00052   0.00032   0.00025
 4 44   21158.2    472.6   0.000000000   0.00000   0.00047   0.00009   0.00000
 4 45   21229.5    471.0   0.000000000   0.00000   0.00031   0.00032   0.00001
 4 46   21237.6    470.9   0.000000001   0.00000   0.00028   0.00051   0.00008
 4 47   21316.5    469.1   0.000000000   0.00000   0.00007   0.00036   0.00024
 4 48   21395.6    467.4   0.000000001   0.00000   0.00089   0.00001   0.00005
 4 49   21410.4    467.1   0.000000000   0.00000   0.00024   0.00016   0.00015
 4 50   21427.7    466.7   0.000000002   0.00000   0.00011   0.00007   0.00097
 4 51   21457.2    466.0   0.000000000   0.00000   0.00037   0.00012   0.00004
 4 52   21572.9    463.5   0.000000001   0.00000   0.00058   0.00000   0.00031
 4 53   21589.2    463.2   0.000000001   0.00000   0.00016   0.00008   0.00051
 4 54   21701.8    460.8   0.000000000   0.00000   0.00031   0.00016   0.00041
 4 55   21755.5    459.7   0.000000001   0.00000   0.00068   0.00040   0.00016
 4 56   21785.4    459.0   0.000000000   0.00000   0.00008   0.00002   0.00009
 4 57   21824.8    458.2   0.000000000   0.00000   0.00001   0.00012   0.00050
 4 58   21867.8    457.3   0.000000000   0.00000   0.00019   0.00010   0.00015
 4 59   21990.3    454.7   0.000000000   0.00000   0.00026   0.00013   0.00007
 4 60   22070.1    453.1   0.000000001   0.00000   0.00090   0.00007   0.00012
 4 61   22118.3    452.1   0.000000001   0.00000   0.00061   0.00016   0.00019
 4 62   22187.5    450.7   0.000000000   0.00000   0.00043   0.00015   0.00011
 4 63   22267.2    449.1   0.000000000   0.00000   0.00005   0.00006   0.00003
 4 64   22338.9    447.6   0.000000000   0.00000   0.00008   0.00020   0.00024
 4 65   22423.4    446.0   0.000000001   0.00000   0.00059   0.00010   0.00022
 4 66   22444.8    445.5   0.000000001   0.00000   0.00045   0.00002   0.00037
 4 67   22549.6    443.5   0.000000000   0.00000   0.00020   0.00006   0.00014
 4 68   22567.7    443.1   0.000000000   0.00000   0.00011   0.00032   0.00003
 4 69   22710.4    440.3   0.000000000   0.00000   0.00033   0.00007   0.00015
 4 70   22815.5    438.3   0.000000000   0.00000   0.00007   0.00029   0.00027
 4 71   22846.8    437.7   0.000000001   0.00000   0.00041   0.00039   0.00029
 4 72   22869.9    437.3   0.000000000   0.00000   0.00020   0.00023   0.00025
 4 73   23047.8    433.9   0.000000001   0.00000   0.00047   0.00015   0.00044
 4 74   23067.8    433.5   0.000000000   0.00000   0.00008   0.00004   0.00003
 4 75   23117.1    432.6   0.000000001   0.00000   0.00033   0.00007   0.00054
 4 76   23207.1    430.9   0.000000001   0.00000   0.00045   0.00029   0.00031
 4 77   23234.2    430.4   0.000000000   0.00000   0.00029   0.00002   0.00037
 4 78   23269.7    429.7   0.000000000   0.00000   0.00009   0.00006   0.00012
 4 79   23644.1    422.9   0.000000000   0.00000   0.00014   0.00038   0.00016
 4 80   23672.0    422.4   0.000000000   0.00000   0.00034   0.00007   0.00030
 4 81   23698.8    422.0   0.000000000   0.00000   0.00027   0.00019   0.00005
 4 82   23894.5    418.5   0.000000001   0.00000   0.00056   0.00025   0.00006
 4 83   23908.6    418.3   0.000000000   0.00000   0.00007   0.00006   0.00009
 4 84   23915.9    418.1   0.000000000   0.00000   0.00006   0.00006   0.00002
 4 85   24491.2    408.3   0.000000000   0.00000   0.00017   0.00017   0.00004
 4 86   24514.4    407.9   0.000000000   0.00000   0.00029   0.00019   0.00018
 4 87   24555.5    407.2   0.000000000   0.00000   0.00002   0.00030   0.00007
 4 88   24858.7    402.3   0.000000001   0.00000   0.00045   0.00021   0.00005
 4 89   24879.4    401.9   0.000000001   0.00000   0.00012   0.00010   0.00053
 4 90   24988.8    400.2   0.000000001   0.00000   0.00034   0.00035   0.00042
 4 91   25244.4    396.1   0.000000000   0.00000   0.00007   0.00004   0.00012
 4 92   25268.1    395.8   0.000000004   0.00000   0.00132   0.00069   0.00008
 4 93   25357.3    394.4   0.000000000   0.00000   0.00016   0.00009   0.00034
 4 94   25592.6    390.7   0.000000000   0.00000   0.00018   0.00010   0.00036
 4 95   25642.7    390.0   0.000000000   0.00000   0.00009   0.00009   0.00025
 4 96   25700.9    389.1   0.000000000   0.00000   0.00014   0.00003   0.00012
 4 97   26042.8    384.0   0.000000000   0.00000   0.00020   0.00011   0.00020
 4 98   26085.4    383.4   0.000000000   0.00000   0.00030   0.00013   0.00018
 4 99   26159.2    382.3   0.000000000   0.00000   0.00027   0.00014   0.00021
 4 100   26274.6    380.6   0.000000000   0.00000   0.00030   0.00014   0.00016
 4 101   26302.1    380.2   0.000000000   0.00000   0.00022   0.00024   0.00006
 4 102   26340.8    379.6   0.000000000   0.00000   0.00014   0.00004   0.00003
 4 103   26569.1    376.4   0.000000000   0.00000   0.00006   0.00007   0.00035
 4 104   26574.0    376.3   0.000000000   0.00000   0.00009   0.00003   0.00030
 4 105   26636.6    375.4   0.000000000   0.00000   0.00013   0.00002   0.00001
 4 106   27050.8    369.7   0.000000000   0.00000   0.00010   0.00003   0.00005
 4 107   27130.2    368.6   0.000000000   0.00000   0.00010   0.00016   0.00022
 4 108   27148.3    368.3   0.000000000   0.00000   0.00032   0.00004   0.00028
 4 109   27277.0    366.6   0.000000000   0.00000   0.00001   0.00011   0.00001
 4 110   27279.6    366.6   0.000000000   0.00000   0.00016   0.00033   0.00016
 4 111   27638.1    361.8   0.000000000   0.00000   0.00005   0.00001   0.00017
 4 112   27670.5    361.4   0.000000000   0.00000   0.00003   0.00005   0.00007
 4 113   27962.0    357.6   0.000000000   0.00000   0.00001   0.00004   0.00004
 4 114   27973.7    357.5   0.000000000   0.00000   0.00017   0.00011   0.00004
 4 115   31261.2    319.9   0.000000000   0.00000   0.00018   0.00009   0.00003
 4 116   31263.9    319.9   0.000000000   0.00000   0.00002   0.00007   0.00018
 4 117   31267.0    319.8   0.000000000   0.00000   0.00005   0.00006   0.00015
 4 118   31660.9    315.8   0.000000001   0.00000   0.00029   0.00009   0.00039
 4 119   31664.7    315.8   0.000000001   0.00000   0.00038   0.00024   0.00041
 4 120   31669.0    315.8   0.000000000   0.00000   0.00002   0.00004   0.00007
 4 121   31967.3    312.8   0.000000000   0.00000   0.00009   0.00017   0.00021
 4 122   31971.2    312.8   0.000000000   0.00000   0.00005   0.00036   0.00021
 4 123   31972.7    312.8   0.000000000   0.00000   0.00008   0.00007   0.00002
 4 124   32500.6    307.7   0.000000000   0.00000   0.00008   0.00008   0.00018
 4 125   32501.0    307.7   0.000000000   0.00000   0.00029   0.00010   0.00025
 4 126   32537.3    307.3   0.000000000   0.00000   0.00007   0.00020   0.00012
 4 127   32609.7    306.7   0.000000000   0.00000   0.00006   0.00003   0.00011
 4 128   32645.3    306.3   0.000000000   0.00000   0.00021   0.00002   0.00027
 4 129   32646.1    306.3   0.000000002   0.00000   0.00021   0.00053   0.00065
 4 130   47965.8    208.5   0.000000000   0.00000   0.00015   0.00001   0.00004
 4 131   47981.0    208.4   0.000000000   0.00000   0.00001   0.00031   0.00010
 4 132   47982.9    208.4   0.000000000   0.00000   0.00018   0.00022   0.00003
 4 133   48428.4    206.5   0.000000000   0.00000   0.00004   0.00011   0.00016
 4 134   48431.4    206.5   0.000000000   0.00000   0.00005   0.00025   0.00013
 4 135   48433.6    206.5   0.000000000   0.00000   0.00006   0.00012   0.00006
 4 136   48533.1    206.0   0.000000000   0.00000   0.00003   0.00024   0.00004
 4 137   48573.0    205.9   0.000000000   0.00000   0.00002   0.00021   0.00017
 4 138   48605.5    205.7   0.000000000   0.00000   0.00001   0.00002   0.00004
 4 139   49103.5    203.7   0.000000001   0.00000   0.00015   0.00005   0.00043
 4 140   49148.4    203.5   0.000000000   0.00000   0.00017   0.00015   0.00019
 4 141   49173.2    203.4   0.000000000   0.00000   0.00021   0.00009   0.00005
 4 142   49678.7    201.3   0.000000000   0.00000   0.00018   0.00002   0.00017
 4 143   49683.9    201.3   0.000000001   0.00000   0.00008   0.00006   0.00035
 4 144   49692.3    201.2   0.000000001   0.00000   0.00032   0.00025   0.00002
 4 145   49944.9    200.2   0.000000000   0.00000   0.00008   0.00010   0.00007
 4 146   49959.0    200.2   0.000000000   0.00000   0.00001   0.00007   0.00033
 4 147   49973.9    200.1   0.000000001   0.00000   0.00012   0.00020   0.00042
 4 148   50279.7    198.9   0.000000003   0.00000   0.00072   0.00030   0.00029
 4 149   50302.5    198.8   0.000000000   0.00000   0.00009   0.00009   0.00007
 4 150   50307.1    198.8   0.000000002   0.00000   0.00056   0.00012   0.00033
 4 151   50990.0    196.1   0.000000000   0.00000   0.00021   0.00018   0.00006
 4 152   51000.7    196.1   0.000000000   0.00000   0.00008   0.00007   0.00005
 4 153   51008.4    196.0   0.000000000   0.00000   0.00008   0.00001   0.00000
 4 154   51805.5    193.0   0.000000000   0.00000   0.00011   0.00005   0.00002
 4 155   51861.2    192.8   0.000000000   0.00000   0.00005   0.00012   0.00008
 4 156   51870.4    192.8   0.000000000   0.00000   0.00015   0.00001   0.00016
 4 157   53963.9    185.3   0.000000000   0.00000   0.00002   0.00001   0.00010
 4 158   53972.4    185.3   0.000000000   0.00000   0.00017   0.00002   0.00011
 4 159   53997.4    185.2   0.000000000   0.00000   0.00005   0.00015   0.00030

------------------------------------------------------------------------------
                           SOC CORRECTED DIPOLE MOMENTS
------------------------------------------------------------------------------
      TX        TY        TZ           |T|
   (Debye)   (Debye)   (Debye)      (Debye)
------------------------------------------------------------------------------
 -91.17237  -3.28716  58.71413    108.49219

--------------
CASSCF TIMINGS
--------------

Total time                       ...    22899.5 sec
Sum of individual times          ...    22904.2 sec (100.0%)

Calculation of AO operators
   F(Core) operator              ...      364.2 sec (  1.6%)
   G(Act) operator               ...      258.5 sec (  1.1%)
   J(AO) operators               ...        0.0 sec (  0.0%)
Calculation of MO transformed quantities
   J(MO) operators               ...       22.7 sec (  0.1%)
   (pq|rs) integrals             ...        0.0 sec (  0.0%)
   AO->MO one electron integrals ...        0.2 sec (  0.0%)
Configuration interaction steps
   CI-setup phase                ...        0.0 sec (  0.0%)
   CI-solution phase             ...        1.9 sec (  0.0%)
   Generation of densities       ...        0.3 sec (  0.0%)
Orbital improvement steps
   Orbital gradient              ...        0.1 sec (  0.0%)
PT2 
   NEVPT2 time                   ...    22153.7 sec ( 96.7%)
Properties                       ...       52.0 sec (  0.2%)
   SOC integral calculation      ...       50.6 sec (  0.2%)
   SSC RMEs (incl. integrals)    ...        0.0 sec (  0.0%)
   SOC RMEs                      ...        0.1 sec (  0.0%)

Maximum memory used throughout the entire CASSCF-calculation: 2390.9 MB

-------------------------   --------------------
FINAL SINGLE POINT ENERGY     -3427.429637599309
-------------------------   --------------------


                            ***************************************
                            *     ORCA property calculations      *
                            ***************************************

                                    ---------------------
                                    Active property flags
                                    ---------------------
   (+) Dipole Moment


------------------------------------------------------------------------------
                       ORCA ELECTRIC PROPERTIES CALCULATION
------------------------------------------------------------------------------

Dipole Moment Calculation                       ... on
Quadrupole Moment Calculation                   ... off
Polarizability Calculation                      ... off
GBWName                                         ... nevpt2.gbw
Electron density                                ... nevpt2.scfp
The origin for moment calculation is the CENTER OF MASS  = (12.938781, 13.879191 15.056135)

-------------
DIPOLE MOMENT
-------------
                                X             Y             Z
Electronic contribution:     35.74116       1.05598     -22.86201
Nuclear contribution   :    -35.86919      -1.29328      23.09945
                        -----------------------------------------
Total Dipole Moment    :     -0.12803      -0.23729       0.23743
                        -----------------------------------------
Magnitude (a.u.)       :      0.35927
Magnitude (Debye)      :      0.91319



--------------------
Rotational spectrum 
--------------------
 
Rotational constants in cm-1:     0.000938     0.000796     0.000699 
Rotational constants in MHz :    28.122525    23.874549    20.955644 

 Dipole components along the rotational axes: 
x,y,z [a.u.] :    -0.203161    -0.261526     0.139302 
x,y,z [Debye]:    -0.516393    -0.664746     0.354077 

 

Timings for individual modules:

Sum of individual times         ...    22961.718 sec (= 382.695 min)
GTO integral calculation        ...       39.122 sec (=   0.652 min)   0.2 %
SCF iterations                  ...       15.996 sec (=   0.267 min)   0.1 %
CASSCF iterations               ...    22906.599 sec (= 381.777 min)  99.8 %
                             ****ORCA TERMINATED NORMALLY****
TOTAL RUN TIME: 0 days 6 hours 22 minutes 42 seconds 463 msec
