
                                 *****************
                                 * O   R   C   A *
                                 *****************

                                            #,                                       
                                            ###                                      
                                            ####                                     
                                            #####                                    
                                            ######                                   
                                           ########,                                 
                                     ,,################,,,,,                         
                               ,,#################################,,                 
                          ,,##########################################,,             
                       ,#########################################, ''#####,          
                    ,#############################################,,   '####,        
                  ,##################################################,,,,####,       
                ,###########''''           ''''###############################       
              ,#####''   ,,,,##########,,,,          '''####'''          '####       
            ,##' ,,,,###########################,,,                        '##       
           ' ,,###''''                  '''############,,,                           
         ,,##''                                '''############,,,,        ,,,,,,###''
      ,#''                                            '''#######################'''  
     '                                                          ''''####''''         
             ,#######,   #######,   ,#######,      ##                                
            ,#'     '#,  ##    ##  ,#'     '#,    #''#        ######   ,####,        
            ##       ##  ##   ,#'  ##            #'  '#       #        #'  '#        
            ##       ##  #######   ##           ,######,      #####,   #    #        
            '#,     ,#'  ##    ##  '#,     ,#' ,#      #,         ##   #,  ,#        
             '#######'   ##     ##  '#######'  #'      '#     #####' # '####'        



                  #######################################################
                  #                        -***-                        #
                  #          Department of theory and spectroscopy      #
                  #    Directorship and core code : Frank Neese         #
                  #        Max Planck Institute fuer Kohlenforschung    #
                  #                Kaiser Wilhelm Platz 1               #
                  #                 D-45470 Muelheim/Ruhr               #
                  #                      Germany                        #
                  #                                                     #
                  #                  All rights reserved                #
                  #                        -***-                        #
                  #######################################################


                         Program Version 5.0.3 -  RELEASE  -


 With contributions from (in alphabetic order):
   Daniel Aravena         : Magnetic Suceptibility
   Michael Atanasov       : Ab Initio Ligand Field Theory (pilot matlab implementation)
   Alexander A. Auer      : GIAO ZORA, VPT2 properties, NMR spectrum
   Ute Becker             : Parallelization
   Giovanni Bistoni       : ED, misc. LED, open-shell LED, HFLD
   Martin Brehm           : Molecular dynamics
   Dmytro Bykov           : SCF Hessian
   Vijay G. Chilkuri      : MRCI spin determinant printing, contributions to CSF-ICE
   Dipayan Datta          : RHF DLPNO-CCSD density
   Achintya Kumar Dutta   : EOM-CC, STEOM-CC
   Dmitry Ganyushin       : Spin-Orbit,Spin-Spin,Magnetic field MRCI
   Miquel Garcia          : C-PCM and meta-GGA Hessian, CC/C-PCM, Gaussian charge scheme
   Yang Guo               : DLPNO-NEVPT2, F12-NEVPT2, CIM, IAO-localization
   Andreas Hansen         : Spin unrestricted coupled pair/coupled cluster methods
   Benjamin Helmich-Paris : MC-RPA, TRAH-SCF, COSX integrals
   Lee Huntington         : MR-EOM, pCC
   Robert Izsak           : Overlap fitted RIJCOSX, COSX-SCS-MP3, EOM
   Marcus Kettner         : VPT2
   Christian Kollmar      : KDIIS, OOCD, Brueckner-CCSD(T), CCSD density, CASPT2, CASPT2-K
   Simone Kossmann        : Meta GGA functionals, TD-DFT gradient, OOMP2, MP2 Hessian
   Martin Krupicka        : Initial AUTO-CI
   Lucas Lang             : DCDCAS
   Marvin Lechner         : AUTO-CI (C++ implementation), FIC-MRCC
   Dagmar Lenk            : GEPOL surface, SMD
   Dimitrios Liakos       : Extrapolation schemes; Compound Job, initial MDCI parallelization
   Dimitrios Manganas     : Further ROCIS development; embedding schemes
   Dimitrios Pantazis     : SARC Basis sets
   Anastasios Papadopoulos: AUTO-CI, single reference methods and gradients
   Taras Petrenko         : DFT Hessian,TD-DFT gradient, ASA, ECA, R-Raman, ABS, FL, XAS/XES, NRVS
   Peter Pinski           : DLPNO-MP2, DLPNO-MP2 Gradient
   Christoph Reimann      : Effective Core Potentials
   Marius Retegan         : Local ZFS, SOC
   Christoph Riplinger    : Optimizer, TS searches, QM/MM, DLPNO-CCSD(T), (RO)-DLPNO pert. Triples
   Tobias Risthaus        : Range-separated hybrids, TD-DFT gradient, RPA, STAB
   Michael Roemelt        : Original ROCIS implementation
   Masaaki Saitow         : Open-shell DLPNO-CCSD energy and density
   Barbara Sandhoefer     : DKH picture change effects
   Avijit Sen             : IP-ROCIS
   Kantharuban Sivalingam : CASSCF convergence, NEVPT2, FIC-MRCI
   Bernardo de Souza      : ESD, SOC TD-DFT
   Georgi Stoychev        : AutoAux, RI-MP2 NMR, DLPNO-MP2 response
   Willem Van den Heuvel  : Paramagnetic NMR
   Boris Wezisla          : Elementary symmetry handling
   Frank Wennmohs         : Technical directorship


 We gratefully acknowledge several colleagues who have allowed us to
 interface, adapt or use parts of their codes:
   Stefan Grimme, W. Hujo, H. Kruse, P. Pracht,  : VdW corrections, initial TS optimization,
                  C. Bannwarth, S. Ehlert          DFT functionals, gCP, sTDA/sTD-DF
   Ed Valeev, F. Pavosevic, A. Kumar             : LibInt (2-el integral package), F12 methods
   Garnet Chan, S. Sharma, J. Yang, R. Olivares  : DMRG
   Ulf Ekstrom                                   : XCFun DFT Library
   Mihaly Kallay                                 : mrcc  (arbitrary order and MRCC methods)
   Jiri Pittner, Ondrej Demel                    : Mk-CCSD
   Frank Weinhold                                : gennbo (NPA and NBO analysis)
   Christopher J. Cramer and Donald G. Truhlar   : smd solvation model
   Lars Goerigk                                  : TD-DFT with DH, B97 family of functionals
   V. Asgeirsson, H. Jonsson                     : NEB implementation
   FAccTs GmbH                                   : IRC, NEB, NEB-TS, DLPNO-Multilevel, CI-OPT
                                                   MM, QMMM, 2- and 3-layer-ONIOM, Crystal-QMMM,
                                                   LR-CPCM, SF, NACMEs, symmetry and pop. for TD-DFT,
                                                   nearIR, NL-DFT gradient (VV10), updates on ESD,
                                                   ML-optimized integration grids
   S Lehtola, MJT Oliveira, MAL Marques          : LibXC Library
   Liviu Ungur et al                             : ANISO software


 Your calculation uses the libint2 library for the computation of 2-el integrals
 For citations please refer to: http://libint.valeyev.net

 Your ORCA version has been built with support for libXC version: 5.1.0
 For citations please refer to: https://tddft.org/programs/libxc/

 This ORCA versions uses:
   CBLAS   interface :  Fast vector & matrix operations
   LAPACKE interface :  Fast linear algebra routines
   SCALAPACK package :  Parallel linear algebra routines
   Shared memory     :  Shared parallel matrices
   BLAS/LAPACK       :  OpenBLAS 0.3.15  USE64BITINT DYNAMIC_ARCH NO_AFFINITY Sandybridge SINGLE_THREADED
        Core in use  :  Sandybridge
   Copyright (c) 2011-2014, The OpenBLAS Project




***************************************
The coordinates will be read from file: pbe.xyz
***************************************


================================================================================

cite the ECPs for Au [Def2-ECP] as follows:
Ce-Yb(ecp-28): M. Dolg, H. Stoll, H.Preuss, J. Chem. Phys., 1989, 90, 1730-1734.
Y-Cd(ecp-28), Hf-Hg(ecp-46): D. Andrae,U. Haeussermann, M. Dolg, H. Stoll, H. Preuss, Theor. Chim. Acta, 1990, 77, 123-141.
In-Sb(ecp-28), Tl-Bi(ecp-46): B. Metz, H. Stoll, M. Dolg, J. Chem. Phys., 2000, 113, 2563-2569.
Te-Xe(ecp-28), Po-Rn(ecp-46): K. A. Peterson, D. Figgen, E. Goll, H. Stoll, M. Dolg, J. Chem. Phys., 2003, 119, 11113-11123.
Rb(ecp-28), Cs(ecp-46): T. Leininger, A. Nicklass, W. Kuechle, H. Stoll, M. Dolg, A. Bergner, Chem. Phys. Lett., 1996, 255, 274-280.
Sr(ecp-28), Ba(ecp-46): M. Kaupp, P. V. Schleyer, H. Stoll and H. Preuss, J. Chem. Phys., 1991, 94, 1360-1366.
La(ecp-46): M. Dolg, H. Stoll, A. Savin, H. Preuss, Theor. Chim. Acta, 1989, 75, 173-194.
Lu(ecp-28): X. Cao, M. Dolg, J. Chem. Phys., 2001, 115, 7348-7355.

ECP parameters for Au [Def2-ECP] have been obtained from:
TURBOMOLE (7.0.2)

----- Orbital basis set information -----
Your calculation utilizes the basis: def2-TZVP
   F. Weigend and R. Ahlrichs, Phys. Chem. Chem. Phys. 7, 3297 (2005).

----- AuxJ basis set information -----
Your calculation utilizes the auxiliary basis: def2/J
   F. Weigend, Phys. Chem. Chem. Phys. 8, 1057 (2006).

----- AuxC basis set information -----
Your calculation utilizes the auxiliary basis: def2-TZVP/C
  H-La, Hf-Rn : A. Hellweg, C. Hattig, S. Hofener and W. Klopper, Theor. Chem. Acc. 117, 587 (2007).
        Ce-Lu : J. Chmela and M. E. Harding, Mol. Phys. (2018).

================================================================================
                                        WARNINGS
                       Please study these warnings very carefully!
================================================================================


IMPORTANT NOTE: CASSCF must signal convergence for a subsequent CASPT2/NEVPT2! 
                Set maxiter=1 to run CASPT2/NEVPT2 with arbitrary orbitals.


INFO   : the flag for use of the SHARK integral package has been found!

================================================================================
                                       INPUT FILE
================================================================================
NAME = nevpt2.inp
|  1> !SC-NEVPT2 def2-TZVP def2-TZVP/C
|  2> !MOREAD RIJCOSX def2/J
|  3> %maxcore 4000
|  4> %moinp "casscf.gbw"
|  5> %pal nprocs 6 end 
|  6> 
|  7> %casscf
|  8>  mult 5,3
|  9>  bweight 1,1
| 10>  nroots 5,45
| 11>  nel 6
| 12>  norb 5
| 13>  ptsettings
| 14>   d4tpre 1e-14 # default = 1e-10
| 15>   d3tpre 1e-14
| 16>  end
| 17>  rel           
| 18>    dosoc true   
| 19>    gtensor true 
| 20>  end           
| 21> end
| 22> 
| 23> 
| 24> *xyzfile 0 5 pbe.xyz
| 25> 
| 26> 
| 27>                          ****END OF INPUT****
================================================================================

                       ****************************
                       * Single Point Calculation *
                       ****************************

---------------------------------
CARTESIAN COORDINATES (ANGSTROEM)
---------------------------------
  Au     8.713503    9.992069    6.931706
  Au     6.155233   10.181318    8.009281
  Au     6.897293   10.167631    2.779323
  Au     9.588735    7.432790    6.517985
  Au     8.615466    8.702514    4.318980
  Au     6.500157   10.765300    5.407513
  Au     7.655942    6.149818    8.028557
  Au     5.321601    7.513937    8.507750
  Au     4.228377    8.740077    6.337644
  Au     4.233611   10.044729    3.952247
  Au     5.843349    7.769074    4.030058
  Au     7.400719    5.904785    5.195022
  Fe     6.890394    8.135125    6.431519

----------------------------
CARTESIAN COORDINATES (A.U.)
----------------------------
  NO LB      ZA    FRAG     MASS         X           Y           Z
   0 Au   19.0000*   0   196.966   16.466134   18.882273   13.099026
   1 Au   19.0000*   0   196.966   11.631704   19.239903   15.135347
   2 Au   19.0000*   0   196.966   13.033994   19.214039    5.252160
   3 Au   19.0000*   0   196.966   18.120083   14.045937   12.317207
   4 Au   19.0000*   0   196.966   16.280871   16.445368    8.161690
   5 Au   19.0000*   0   196.966   12.283516   20.343469   10.218719
   6 Au   19.0000*   0   196.966   14.467634   11.621472   15.171774
   7 Au   19.0000*   0   196.966   10.056369   14.199283   16.077318
   8 Au   19.0000*   0   196.966    7.990474   16.516353   11.976412
   9 Au   19.0000*   0   196.966    8.000366   18.981787    7.468664
  10 Au   19.0000*   0   196.966   11.042330   14.681423    7.615706
  11 Au   19.0000*   0   196.966   13.985332   11.158426    9.817169
  12 Fe   26.0000    0    55.850   13.020957   15.373159   12.153810
* core charge reduced due to ECP

--------------------------------
INTERNAL COORDINATES (ANGSTROEM)
--------------------------------
 Au     0   0   0     0.000000000000     0.00000000     0.00000000
 Au     1   0   0     2.782396182284     0.00000000     0.00000000
 Au     1   2   0     4.535606421569    89.06887459     0.00000000
 Au     1   2   3     2.736257589510   114.59955603   268.79618453
 Au     4   1   2     2.719388908520    64.60036397    99.17011200
 Au     2   1   3     2.688717720783    61.44920062   345.60532528
 Au     4   1   2     2.768308455927    97.33350792   345.96622121
 Au     7   4   1     2.745831790371   117.29313119    21.24343853
 Au     8   7   4     2.721749503313   115.22214729    45.96557244
 Au     9   8   7     2.718871884506   156.19512551   327.00076840
 Au    10   9   8     2.788532679491    65.48293377    48.75780872
 Au    11  10   9     2.694089471176   155.57270382   332.09336605
 Fe    12  11  10     2.600726031658    59.91500971   343.70230894

---------------------------
INTERNAL COORDINATES (A.U.)
---------------------------
 Au     0   0   0     0.000000000000     0.00000000     0.00000000
 Au     1   0   0     5.257966780584     0.00000000     0.00000000
 Au     1   2   0     8.571053988020    89.06887459     0.00000000
 Au     1   2   3     5.170777476037   114.59955603   268.79618453
 Au     4   1   2     5.138900288726    64.60036397    99.17011200
 Au     2   1   3     5.080940143701    61.44920062   345.60532528
 Au     4   1   2     5.231344835920    97.33350792   345.96622121
 Au     7   4   1     5.188870093616   117.29313119    21.24343853
 Au     8   7   4     5.143361166398   115.22214729    45.96557244
 Au     9   8   7     5.137923254934   156.19512551   327.00076840
 Au    10   9   8     5.269563079728    65.48293377    48.75780872
 Au    11  10   9     5.091091280804   155.57270382   332.09336605
 Fe    12  11  10     4.914659949194    59.91500971   343.70230894

---------------------
BASIS SET INFORMATION
---------------------
There are 2 groups of distinct atoms

 Group   1 Type Au  : 8s7p6d1f contracted to 6s4p3d1f pattern {311111/4111/411/1}
 Group   2 Type Fe  : 17s11p7d1f contracted to 6s4p4d1f pattern {842111/6311/4111/1}

Atom   0Au   basis set group =>   1
Atom   1Au   basis set group =>   1
Atom   2Au   basis set group =>   1
Atom   3Au   basis set group =>   1
Atom   4Au   basis set group =>   1
Atom   5Au   basis set group =>   1
Atom   6Au   basis set group =>   1
Atom   7Au   basis set group =>   1
Atom   8Au   basis set group =>   1
Atom   9Au   basis set group =>   1
Atom  10Au   basis set group =>   1
Atom  11Au   basis set group =>   1
Atom  12Fe   basis set group =>   2
---------------------------------
AUXILIARY/J BASIS SET INFORMATION
---------------------------------
There are 2 groups of distinct atoms

 Group   1 Type Au  : 11s5p5d3f3g contracted to 8s5p5d2f3g pattern {41111111/11111/11111/21/111}
 Group   2 Type Fe  : 19s5p5d3f3g contracted to 8s5p5d2f3g pattern {121111111/11111/11111/21/111}

Atom   0Au   basis set group =>   1
Atom   1Au   basis set group =>   1
Atom   2Au   basis set group =>   1
Atom   3Au   basis set group =>   1
Atom   4Au   basis set group =>   1
Atom   5Au   basis set group =>   1
Atom   6Au   basis set group =>   1
Atom   7Au   basis set group =>   1
Atom   8Au   basis set group =>   1
Atom   9Au   basis set group =>   1
Atom  10Au   basis set group =>   1
Atom  11Au   basis set group =>   1
Atom  12Fe   basis set group =>   2
---------------------------------
AUXILIARY/C BASIS SET INFORMATION
---------------------------------
There are 2 groups of distinct atoms

 Group   1 Type Au  : 8s8p7d5f3g2h contracted to 8s8p7d5f3g2h pattern {11111111/11111111/1111111/11111/111/11}
 Group   2 Type Fe  : 11s9p8d6f5g2h contracted to 9s8p8d6f5g2h pattern {311111111/21111111/11111111/111111/11111/11}

Atom   0Au   basis set group =>   1
Atom   1Au   basis set group =>   1
Atom   2Au   basis set group =>   1
Atom   3Au   basis set group =>   1
Atom   4Au   basis set group =>   1
Atom   5Au   basis set group =>   1
Atom   6Au   basis set group =>   1
Atom   7Au   basis set group =>   1
Atom   8Au   basis set group =>   1
Atom   9Au   basis set group =>   1
Atom  10Au   basis set group =>   1
Atom  11Au   basis set group =>   1
Atom  12Fe   basis set group =>   2
-------------------------
ECP PARAMETER INFORMATION
-------------------------

 Group 1, Type Au ECP Def2-ECP (replacing 60 core electrons, lmax=3)

Atom   0Au   ECP group =>   1
Atom   1Au   ECP group =>   1
Atom   2Au   ECP group =>   1
Atom   3Au   ECP group =>   1
Atom   4Au   ECP group =>   1
Atom   5Au   ECP group =>   1
Atom   6Au   ECP group =>   1
Atom   7Au   ECP group =>   1
Atom   8Au   ECP group =>   1
Atom   9Au   ECP group =>   1
Atom  10Au   ECP group =>   1
Atom  11Au   ECP group =>   1



           ************************************************************
           *        Program running with 6 parallel MPI-processes     *
           *              working on a common directory               *
           ************************************************************
------------------------------------------------------------------------------
                           ORCA GTO INTEGRAL CALCULATION
                           -- RI-GTO INTEGRALS CHOSEN --
------------------------------------------------------------------------------
------------------------------------------------------------------------------
                   ___                                                        
                  /   \      - P O W E R E D   B Y -                         
                 /     \                                                     
                 |  |  |   _    _      __       _____    __    __             
                 |  |  |  | |  | |    /  \     |  _  \  |  |  /  |          
                  \  \/   | |  | |   /    \    | | | |  |  | /  /          
                 / \  \   | |__| |  /  /\  \   | |_| |  |  |/  /          
                |  |  |   |  __  | /  /__\  \  |    /   |      \           
                |  |  |   | |  | | |   __   |  |    \   |  |\   \          
                \     /   | |  | | |  |  |  |  | |\  \  |  | \   \       
                 \___/    |_|  |_| |__|  |__|  |_| \__\ |__|  \__/        
                                                                              
                      - O R C A' S   B I G   F R I E N D -                    
                                      &                                       
                       - I N T E G R A L  F E E D E R -                       
                                                                              
 v1 FN, 2020, v2 2021                                                         
------------------------------------------------------------------------------


Reading SHARK input file nevpt2.SHARKINP.tmp ... ok
----------------------
SHARK INTEGRAL PACKAGE
----------------------

Number of atoms                             ...     13
Number of basis functions                   ...    525
Number of shells                            ...    183
Maximum angular momentum                    ...      3
Integral batch strategy                     ... SHARK/LIBINT Hybrid
RI-J (if used) integral strategy            ... SPLIT-RIJ (Revised 2003 algorithm where possible)
Printlevel                                  ...      1
Contraction scheme used                     ... SEGMENTED contraction
Coulomb Range Separation                    ... NOT USED
Exchange Range Separation                   ... NOT USED
Finite Nucleus Model                        ... NOT USED
Auxiliary Coulomb fitting basis             ... AVAILABLE
   # of basis functions in Aux-J            ...   1157
   # of shells in Aux-J                     ...    299
   Maximum angular momentum in Aux-J        ...      4
Auxiliary J/K fitting basis                 ... NOT available
Auxiliary Correlation fitting basis         ... AVAILABLE
   # of basis functions in Aux-C            ...   1994
   # of shells in Aux-C                     ...    434
   Maximum angular momentum in Aux-C        ...      5
Auxiliary 'external' fitting basis          ... NOT available
Integral threshold                          ...     1.000000e-10
Primitive cut-off                           ...     1.000000e-11
Primitive pair pre-selection threshold      ...     1.000000e-11

Calculating pre-screening integrals         ... done (  0.2 sec) Dimension = 183
Organizing shell pair data                  ... done (  0.5 sec)
Shell pair information
Total number of shell pairs                 ...     16836
Shell pairs after pre-screening             ...     13715
Total number of primitive shell pairs       ...     45389
Primitive shell pairs kept                  ...     26982
          la=0 lb=0:   2153 shell pairs
          la=1 lb=0:   3118 shell pairs
          la=1 lb=1:   1177 shell pairs
          la=2 lb=0:   2734 shell pairs
          la=2 lb=1:   1910 shell pairs
          la=2 lb=2:    785 shell pairs
          la=3 lb=0:    725 shell pairs
          la=3 lb=1:    556 shell pairs
          la=3 lb=2:    479 shell pairs
          la=3 lb=3:     78 shell pairs

Calculating one electron integrals          ... done (  0.1 sec)
Calculating ECP integrals                   ... done ( 14.7 sec)
Calculating RI/J V-Matrix + Cholesky decomp.... done (  0.1 sec)
Calculating RI/C V-Matrix + Cholesky decomp.... done (  0.4 sec)
Calculating Nuclear repulsion               ... done (  0.0 sec) ENN=   4413.876069722920 Eh

SHARK setup successfully completed in  16.5 seconds

Maximum memory used throughout the entire GTOINT-calculation: 39.1 MB


           ************************************************************
           *        Program running with 6 parallel MPI-processes     *
           *              working on a common directory               *
           ************************************************************
-------------------------------------------------------------------------------
                                 ORCA SCF
-------------------------------------------------------------------------------

------------
SCF SETTINGS
------------
Hamiltonian:
 Ab initio Hamiltonian  Method          .... Hartree-Fock(GTOs)
 RI-approximation to the Coulomb term is turned on
   Number of AuxJ basis functions       .... 1157
   RIJ-COSX (HFX calculated with COS-X)).... on


General Settings:
 Integral files         IntName         .... nevpt2
 Hartree-Fock type      HFTyp           .... CASSCF
 Total Charge           Charge          ....    0
 Multiplicity           Mult            ....    5
 Number of Electrons    NEL             ....  254
 Basis Dimension        Dim             ....  525
 Nuclear Repulsion      ENuc            ....   4413.8760697229 Eh


Diagonalization of the overlap matrix:
Smallest eigenvalue                        ... 4.782e-04
Time for diagonalization                   ...    0.076 sec
Threshold for overlap eigenvalues          ... 1.000e-08
Number of eigenvalues below threshold      ... 0
Time for construction of square roots      ...    0.058 sec
Total time needed                          ...    0.135 sec

---------------------
INITIAL GUESS: MOREAD
---------------------
Guess MOs are being read from file: casscf.gbw
Input Geometry matches current geometry (good)
Input basis set matches current basis set (good)
MOs were renormalized
Gram-Schmidt orthogonalization of all MOs with pivot on actives
                      ------------------
                      INITIAL GUESS DONE (   4.7 sec)
                      ------------------
--------------------
COSX GRID GENERATION
--------------------

GRIDX 1
-------
General Integration Accuracy     IntAcc      ... 3.816
Radial Grid Type                 RadialGrid  ... OptM3 with GC (2021)
Angular Grid (max. ang.)         AngularGrid ... 1 (Lebedev-50)
Angular grid pruning method      GridPruning ... 4 (adaptive)
Weight generation scheme         WeightScheme... Becke
Basis function cutoff            BFCut       ... 1.0000e-10
Integration weight cutoff        WCut        ... 1.0000e-14
Angular grids for H and He will be reduced by one unit
Partially contracted basis set               ... on
Rotationally invariant grid construction     ... off

Total number of grid points                  ...    15249
Total number of batches                      ...      245
Average number of points per batch           ...       62
Average number of grid points per atom       ...     1173
UseSFitting                                  ... on

GRIDX 2
-------
General Integration Accuracy     IntAcc      ... 4.020
Radial Grid Type                 RadialGrid  ... OptM3 with GC (2021)
Angular Grid (max. ang.)         AngularGrid ... 2 (Lebedev-110)
Angular grid pruning method      GridPruning ... 4 (adaptive)
Weight generation scheme         WeightScheme... Becke
Basis function cutoff            BFCut       ... 1.0000e-10
Integration weight cutoff        WCut        ... 1.0000e-14
Angular grids for H and He will be reduced by one unit
Partially contracted basis set               ... on
Rotationally invariant grid construction     ... off

Total number of grid points                  ...    45992
Total number of batches                      ...      726
Average number of points per batch           ...       63
Average number of grid points per atom       ...     3538
UseSFitting                                  ... on

GRIDX 3
-------
General Integration Accuracy     IntAcc      ... 4.338
Radial Grid Type                 RadialGrid  ... OptM3 with GC (2021)
Angular Grid (max. ang.)         AngularGrid ... 3 (Lebedev-194)
Angular grid pruning method      GridPruning ... 4 (adaptive)
Weight generation scheme         WeightScheme... Becke
Basis function cutoff            BFCut       ... 1.0000e-10
Integration weight cutoff        WCut        ... 1.0000e-14
Angular grids for H and He will be reduced by one unit
Partially contracted basis set               ... on
Rotationally invariant grid construction     ... off

Total number of grid points                  ...    84225
Total number of batches                      ...     1324
Average number of points per batch           ...       63
Average number of grid points per atom       ...     6479
UseSFitting                                  ... on

Time for X-Grid setup             =    2.193 sec



 ... the calculation is a CASSCF calculation -I'm leaving here GOOD LUCK!!!



           ************************************************************
           *        Program running with 6 parallel MPI-processes     *
           *              working on a common directory               *
           ************************************************************
-------------------------------------------------------------------------------
                              ORCA-CASSCF
-------------------------------------------------------------------------------

Setting up the integral package       ... done
Setting up the integral package (RI)  ... done
Building the CAS space                ... done (5 configurations for Mult=5)
Building the CAS space                ... done (35 configurations for Mult=3)

 CASSCF (estimated) memory needed     ... 113.4 MB
 NEVPT2 (estimated) memory needed     ... 377.6 MB


SYSTEM-SPECIFIC SETTINGS:
Number of active electrons          ...    6
Number of active orbitals           ...    5
Total number of electrons           ...  254
Total number of orbitals            ...  525
Total number aux. functions         ... 1994

Determined orbital ranges:
   Internal       0 -  123 ( 124 orbitals)
   Active       124 -  128 (   5 orbitals)
   External     129 -  524 ( 396 orbitals)
Number of rotation parameters      ...  51704

CI-STEP:
CI strategy                         ... General CI
Number of multiplicity blocks       ...    2
BLOCK  1 WEIGHT=   0.5000
  Multiplicity                      ...    5
  #(Configurations)                 ...    5
  #(CSFs)                           ...    5
  #(Roots)                          ...    5
    ROOT=0 WEIGHT=    0.100000
    ROOT=1 WEIGHT=    0.100000
    ROOT=2 WEIGHT=    0.100000
    ROOT=3 WEIGHT=    0.100000
    ROOT=4 WEIGHT=    0.100000

BLOCK  2 WEIGHT=   0.5000
  Multiplicity                      ...    3
  #(Configurations)                 ...   35
  #(CSFs)                           ...   45
  #(Roots)                          ...   45
    ROOT=0 WEIGHT=    0.011111
    ROOT=1 WEIGHT=    0.011111
    ROOT=2 WEIGHT=    0.011111
    ROOT=3 WEIGHT=    0.011111
    ROOT=4 WEIGHT=    0.011111
    ROOT=5 WEIGHT=    0.011111
    ROOT=6 WEIGHT=    0.011111
    ROOT=7 WEIGHT=    0.011111
    ROOT=8 WEIGHT=    0.011111
    ROOT=9 WEIGHT=    0.011111
    ROOT=10 WEIGHT=    0.011111
    ROOT=11 WEIGHT=    0.011111
    ROOT=12 WEIGHT=    0.011111
    ROOT=13 WEIGHT=    0.011111
    ROOT=14 WEIGHT=    0.011111
    ROOT=15 WEIGHT=    0.011111
    ROOT=16 WEIGHT=    0.011111
    ROOT=17 WEIGHT=    0.011111
    ROOT=18 WEIGHT=    0.011111
    ROOT=19 WEIGHT=    0.011111
    ROOT=20 WEIGHT=    0.011111
    ROOT=21 WEIGHT=    0.011111
    ROOT=22 WEIGHT=    0.011111
    ROOT=23 WEIGHT=    0.011111
    ROOT=24 WEIGHT=    0.011111
    ROOT=25 WEIGHT=    0.011111
    ROOT=26 WEIGHT=    0.011111
    ROOT=27 WEIGHT=    0.011111
    ROOT=28 WEIGHT=    0.011111
    ROOT=29 WEIGHT=    0.011111
    ROOT=30 WEIGHT=    0.011111
    ROOT=31 WEIGHT=    0.011111
    ROOT=32 WEIGHT=    0.011111
    ROOT=33 WEIGHT=    0.011111
    ROOT=34 WEIGHT=    0.011111
    ROOT=35 WEIGHT=    0.011111
    ROOT=36 WEIGHT=    0.011111
    ROOT=37 WEIGHT=    0.011111
    ROOT=38 WEIGHT=    0.011111
    ROOT=39 WEIGHT=    0.011111
    ROOT=40 WEIGHT=    0.011111
    ROOT=41 WEIGHT=    0.011111
    ROOT=42 WEIGHT=    0.011111
    ROOT=43 WEIGHT=    0.011111
    ROOT=44 WEIGHT=    0.011111

  PrintLevel                        ...    1
  N(GuessMat)                       ...       512
  MaxDim(CI)                        ...        10
  MaxIter(CI)                       ...        64
  Energy Tolerance CI               ...  1.00e-08
  Residual Tolerance CI             ...  1.00e-08
  Shift(CI)                         ...  1.00e-04

INTEGRAL-TRANSFORMATION-STEP:
  Algorithm                         ... RI-MO

ORBITAL-IMPROVEMENT-STEP:
  Algorithm                         ... SuperCI(PT)
  Default Parametrization           ... CAYLEY
  Act-Act rotations                 ... depends on algorithm used

  Note: SuperCI(PT) will ignore FreezeIE, FreezeAct and FreezeGrad. In general Default settings are encouraged.
        In conjunction with ShiftUp, ShiftDn or GradScaling the performance of SuperCI(PT) is less optimal.  

  MaxRot                            ... 2.00e-01 
  Max. no of vectors (DIIS)         ... 15
  DThresh (cut-off) metric          ... 1.00e-06
  Switch step at gradient           ...  3.00e-02 
  Switch step at iteration          ...        50   
  Switch step to                    ... SuperCI(PT)    

SCF-SETTINGS:
  Incremental                       ... off
  RIJCOSX approximation             ... on
  UseFinalGrid                      ... on
  RI-JK approximation               ... off
  AO integral handling              ... DIRECT
  Integral Neglect Thresh           ...  1.00e-10
  Primitive cutoff TCut             ...  1.00e-11
  Energy convergence tolerance      ...  1.00e-07
  Orbital gradient convergence      ...  1.00e-03
  Max. number of iterations         ...        75  

PT2-SETTINGS:
  A PT2 calculation will be performed on top of the CASSCF wave function (PT2 = SC-NEVPT2)   
 CI step strategy                   ... General CI
  D4C handling                      ... on the fly 
  CI truncation for D4C at          ...  1.00e-14
  CI truncation for D3  at          ...  1.00e-14
  Orbitals                          ... canonical for each state 
  Last  frozen  orbital             ... 4
  First deleted orbital             ... 525
  RI Step                           ... store IJV(array) (MC_ONDISK during integral transformation) 

PROPERTIES-SETTINGS:
  Spin orbit coupling               ... true
  GTensor                           ... true
  QDPT diagonal energies            ... NEVPT2 energies 

FINAL ORBITALS:
  Active   Orbitals                 ... natural 
  Internal Orbitals                 ... canonical 
  External Orbitals                 ... canonical 

------------------
CAS-SCF ITERATIONS
------------------


MACRO-ITERATION   1: 
   --- Inactive Energy E0 = -2864.33415059 Eh
CI-ITERATION   0: 
 -2880.180835294   0.000000000000 (    0.00)
 -2880.179118637   0.000000000000
 -2880.176006385   0.000000000000
 -2880.175176213   0.000000000000
 -2880.169018419   0.000000000000
   CI-PROBLEM SOLVED
   DENSITIES MADE
CI-ITERATION   0: 
 -2880.089335779   0.000000000000 (    0.01)
 -2880.087363889   0.000000000000
 -2880.086188804   0.000000000000
 -2880.085743883   0.000000000000
 -2880.084424956   0.000000000000
 -2880.082966561   0.000000000000
 -2880.082368195   0.000000000000
 -2880.080147353   0.000000000000
 -2880.079357756   0.000000000000
 -2880.078023917   0.000000000000
 -2880.077465595   0.000000000000
 -2880.072823424   0.000000000000
 -2880.072123638   0.000000000000
 -2880.070903140   0.000000000000
 -2880.069660233   0.000000000000
 -2880.067339666   0.000000000000
 -2880.065824069   0.000000000000
 -2880.064705201   0.000000000000
 -2880.063425122   0.000000000000
 -2880.061521958   0.000000000000
 -2880.060940251   0.000000000000
 -2880.059727677   0.000000000000
 -2880.058838311   0.000000000000
 -2880.058335175   0.000000000000
 -2880.057834798   0.000000000000
 -2880.053400740   0.000000000000
 -2880.053030821   0.000000000000
 -2880.051309619   0.000000000000
 -2880.051082714   0.000000000000
 -2880.050658451   0.000000000000
 -2880.024314238   0.000000000000
 -2880.020827940   0.000000000000
 -2880.019573200   0.000000000000
 -2880.019004135   0.000000000000
 -2880.017148056   0.000000000000
 -2879.923254593   0.000000000000
 -2879.921799440   0.000000000000
 -2879.918856781   0.000000000000
 -2879.918253854   0.000000000000
 -2879.917754099   0.000000000000
 -2879.916361611   0.000000000000
 -2879.915448452   0.000000000000
 -2879.913171907   0.000000000000
 -2879.911831271   0.000000000000
 -2879.908675236   0.000000000000
   CI-PROBLEM SOLVED
   DENSITIES MADE

                 <<<<<<<<<<<<<<<<<<INITIAL CI STATE CHECK>>>>>>>>>>>>>>>>>>

BLOCK  1 MULT= 5 NROOTS= 5 
ROOT   0:  E=   -2880.1808352936 Eh
      0.89698 [     0]: 11112
      0.08075 [     1]: 11121
      0.02151 [     3]: 12111
ROOT   1:  E=   -2880.1791186366 Eh  0.047 eV    376.8 cm**-1
      0.67733 [     4]: 21111
      0.29610 [     3]: 12111
      0.02310 [     1]: 11121
ROOT   2:  E=   -2880.1760063845 Eh  0.131 eV   1059.8 cm**-1
      0.40221 [     3]: 12111
      0.32039 [     1]: 11121
      0.27150 [     4]: 21111
      0.00557 [     0]: 11112
ROOT   3:  E=   -2880.1751762130 Eh  0.154 eV   1242.0 cm**-1
      0.55746 [     1]: 11121
      0.26033 [     3]: 12111
      0.08757 [     0]: 11112
      0.05063 [     4]: 21111
      0.04402 [     2]: 11211
ROOT   4:  E=   -2880.1690184189 Eh  0.322 eV   2593.5 cm**-1
      0.95314 [     2]: 11211
      0.01985 [     3]: 12111
      0.01831 [     1]: 11121
      0.00818 [     0]: 11112

BLOCK  2 MULT= 3 NROOTS=45 
ROOT   0:  E=   -2880.0893357787 Eh
      0.54127 [    25]: 21012
      0.09045 [    15]: 12012
      0.08057 [    28]: 21111
      0.04698 [    10]: 11112
      0.04299 [    32]: 22011
      0.03469 [    31]: 21210
      0.03198 [     1]: 01212
      0.03067 [    18]: 12111
      0.01830 [    26]: 21021
      0.01685 [    11]: 11121
      0.01567 [    16]: 12021
      0.00788 [     8]: 10221
      0.00757 [     5]: 02211
      0.00671 [     7]: 10212
      0.00459 [    34]: 22110
      0.00378 [     6]: 10122
      0.00272 [    33]: 22101
      0.00271 [    21]: 12210
ROOT   1:  E=   -2880.0873638888 Eh  0.054 eV    432.8 cm**-1
      0.18958 [    32]: 22011
      0.17563 [    15]: 12012
      0.11027 [    27]: 21102
      0.06858 [     9]: 11022
      0.06739 [    25]: 21012
      0.05607 [    28]: 21111
      0.05270 [    22]: 20112
      0.03740 [    26]: 21021
      0.02637 [     0]: 01122
      0.02617 [     7]: 10212
      0.01825 [    10]: 11112
      0.01820 [    23]: 20121
      0.01636 [    12]: 11202
      0.01460 [    11]: 11121
      0.01438 [    34]: 22110
      0.01332 [     1]: 01212
      0.01309 [    24]: 20211
      0.00963 [    16]: 12021
      0.00939 [     5]: 02211
      0.00915 [    29]: 21120
      0.00873 [    21]: 12210
      0.00802 [     4]: 02121
      0.00723 [     3]: 02112
      0.00595 [    17]: 12102
      0.00570 [    19]: 12120
      0.00470 [    13]: 11211
      0.00365 [     2]: 01221
ROOT   2:  E=   -2880.0861888037 Eh  0.086 eV    690.7 cm**-1
      0.24649 [    26]: 21021
      0.13693 [    28]: 21111
      0.12044 [    16]: 12021
      0.07672 [    32]: 22011
      0.05671 [    18]: 12111
      0.04083 [    17]: 12102
      0.04018 [     9]: 11022
      0.03794 [    10]: 11112
      0.02799 [    25]: 21012
      0.02571 [    20]: 12201
      0.02531 [     6]: 10122
      0.02090 [    23]: 20121
      0.01889 [    33]: 22101
      0.01767 [     2]: 01221
      0.01669 [    30]: 21201
      0.01563 [    29]: 21120
      0.01346 [    15]: 12012
      0.01267 [    27]: 21102
      0.00852 [    11]: 11121
      0.00663 [     5]: 02211
      0.00640 [     3]: 02112
      0.00522 [    24]: 20211
      0.00463 [    14]: 11220
      0.00449 [     8]: 10221
      0.00401 [     7]: 10212
      0.00338 [    31]: 21210
ROOT   3:  E=   -2880.0857438827 Eh  0.098 eV    788.3 cm**-1
      0.14642 [    22]: 20112
      0.11418 [    27]: 21102
      0.10345 [    33]: 22101
      0.10229 [    10]: 11112
      0.08575 [     9]: 11022
      0.08343 [    16]: 12021
      0.07450 [    18]: 12111
      0.04494 [    28]: 21111
      0.04344 [    34]: 22110
      0.03278 [    11]: 11121
      0.02956 [     0]: 01122
      0.02294 [    12]: 11202
      0.01636 [    23]: 20121
      0.01634 [     3]: 02112
      0.01497 [    32]: 22011
      0.01170 [     4]: 02121
      0.01159 [    15]: 12012
      0.00883 [     8]: 10221
      0.00826 [    20]: 12201
      0.00543 [    13]: 11211
      0.00424 [    25]: 21012
      0.00404 [     7]: 10212
      0.00338 [     5]: 02211
ROOT   4:  E=   -2880.0844249559 Eh  0.134 eV   1077.8 cm**-1
      0.30645 [    10]: 11112
      0.11217 [    28]: 21111
      0.11076 [    11]: 11121
      0.09854 [    18]: 12111
      0.08399 [    27]: 21102
      0.04886 [     6]: 10122
      0.04414 [     9]: 11022
      0.03454 [    32]: 22011
      0.02366 [    13]: 11211
      0.01897 [     3]: 02112
      0.01802 [    19]: 12120
      0.01778 [    29]: 21120
      0.01349 [     0]: 01122
      0.01313 [    25]: 21012
      0.00947 [    20]: 12201
      0.00711 [    21]: 12210
      0.00554 [    15]: 12012
      0.00450 [    23]: 20121
      0.00439 [    17]: 12102
      0.00417 [     8]: 10221
      0.00381 [    12]: 11202
      0.00375 [     7]: 10212
      0.00263 [    14]: 11220
ROOT   5:  E=   -2880.0829665614 Eh  0.173 eV   1397.9 cm**-1
      0.19675 [    28]: 21111
      0.12914 [    22]: 20112
      0.11238 [    11]: 11121
      0.10571 [    17]: 12102
      0.08830 [    10]: 11112
      0.06934 [    18]: 12111
      0.06592 [    26]: 21021
      0.05220 [    32]: 22011
      0.02852 [    19]: 12120
      0.02823 [    13]: 11211
      0.01944 [    34]: 22110
      0.01705 [    33]: 22101
      0.01337 [    25]: 21012
      0.01313 [     3]: 02112
      0.01203 [     2]: 01221
      0.00561 [     4]: 02121
      0.00499 [    29]: 21120
      0.00474 [    12]: 11202
      0.00472 [    27]: 21102
      0.00433 [     8]: 10221
      0.00430 [     9]: 11022
      0.00419 [     5]: 02211
      0.00371 [    15]: 12012
      0.00334 [     7]: 10212
ROOT   6:  E=   -2880.0823681949 Eh  0.190 eV   1529.2 cm**-1
      0.22216 [    18]: 12111
      0.21147 [    28]: 21111
      0.10794 [    10]: 11112
      0.10640 [    11]: 11121
      0.04105 [    34]: 22110
      0.03801 [    13]: 11211
      0.03347 [     3]: 02112
      0.02906 [    33]: 22101
      0.02406 [    30]: 21201
      0.02372 [    25]: 21012
      0.02308 [     2]: 01221
      0.01505 [    17]: 12102
      0.01480 [    23]: 20121
      0.01244 [    24]: 20211
      0.01219 [     0]: 01122
      0.01137 [    22]: 20112
      0.01097 [    27]: 21102
      0.01022 [    32]: 22011
      0.00982 [     5]: 02211
      0.00831 [    26]: 21021
      0.00704 [    12]: 11202
      0.00471 [     9]: 11022
      0.00423 [    15]: 12012
      0.00361 [    19]: 12120
      0.00357 [     1]: 01212
      0.00321 [    20]: 12201
      0.00310 [     6]: 10122
ROOT   7:  E=   -2880.0801473530 Eh  0.250 eV   2016.6 cm**-1
      0.25900 [    10]: 11112
      0.12745 [    11]: 11121
      0.09765 [    27]: 21102
      0.09617 [    13]: 11211
      0.05409 [    17]: 12102
      0.03825 [    23]: 20121
      0.03719 [    15]: 12012
      0.03220 [     9]: 11022
      0.03134 [     4]: 02121
      0.02886 [    21]: 12210
      0.02884 [    22]: 20112
      0.02515 [    20]: 12201
      0.02317 [     8]: 10221
      0.01824 [    32]: 22011
      0.01739 [    19]: 12120
      0.01461 [    29]: 21120
      0.01205 [     7]: 10212
      0.01107 [    30]: 21201
      0.01084 [     2]: 01221
      0.00883 [     3]: 02112
      0.00521 [     6]: 10122
      0.00415 [    26]: 21021
      0.00412 [    28]: 21111
      0.00381 [    34]: 22110
      0.00330 [    25]: 21012
      0.00264 [    12]: 11202
ROOT   8:  E=   -2880.0793577555 Eh  0.272 eV   2189.9 cm**-1
      0.30430 [    18]: 12111
      0.09955 [    13]: 11211
      0.06776 [    10]: 11112
      0.06705 [    28]: 21111
      0.05377 [     7]: 10212
      0.05273 [    16]: 12021
      0.05193 [     6]: 10122
      0.04613 [    12]: 11202
      0.03349 [    11]: 11121
      0.03279 [    29]: 21120
      0.02593 [    17]: 12102
      0.02442 [    14]: 11220
      0.02377 [    21]: 12210
      0.02195 [     0]: 01122
      0.02193 [    20]: 12201
      0.01542 [    19]: 12120
      0.01250 [    23]: 20121
      0.01120 [    30]: 21201
      0.00619 [     9]: 11022
      0.00536 [    25]: 21012
      0.00509 [    33]: 22101
      0.00430 [     8]: 10221
      0.00319 [    32]: 22011
ROOT   9:  E=   -2880.0780239173 Eh  0.308 eV   2482.7 cm**-1
      0.15290 [    11]: 11121
      0.12495 [    28]: 21111
      0.08619 [    13]: 11211
      0.07285 [    33]: 22101
      0.06360 [    10]: 11112
      0.04949 [     8]: 10221
      0.04931 [     4]: 02121
      0.04404 [    23]: 20121
      0.03660 [    18]: 12111
      0.03137 [    20]: 12201
      0.02541 [    27]: 21102
      0.02398 [    31]: 21210
      0.02202 [     5]: 02211
      0.02161 [    17]: 12102
      0.01992 [    29]: 21120
      0.01871 [    22]: 20112
      0.01815 [    34]: 22110
      0.01638 [    19]: 12120
      0.01353 [    24]: 20211
      0.01262 [    12]: 11202
      0.01243 [     1]: 01212
      0.01115 [    21]: 12210
      0.01054 [    14]: 11220
      0.01052 [     0]: 01122
      0.00974 [    25]: 21012
      0.00837 [     6]: 10122
      0.00587 [    16]: 12021
      0.00585 [     3]: 02112
      0.00549 [     2]: 01221
      0.00429 [    26]: 21021
      0.00388 [     7]: 10212
      0.00358 [     9]: 11022
      0.00263 [    30]: 21201
ROOT  10:  E=   -2880.0774655950 Eh  0.323 eV   2605.2 cm**-1
      0.13495 [    11]: 11121
      0.10502 [    18]: 12111
      0.08187 [    19]: 12120
      0.07572 [     4]: 02121
      0.07119 [     6]: 10122
      0.06974 [    12]: 11202
      0.06906 [    24]: 20211
      0.05101 [    20]: 12201
      0.04411 [    23]: 20121
      0.04046 [    14]: 11220
      0.03959 [    28]: 21111
      0.02964 [    13]: 11211
      0.01886 [     5]: 02211
      0.01805 [    30]: 21201
      0.01759 [     3]: 02112
      0.01703 [    31]: 21210
      0.01690 [     7]: 10212
      0.01584 [     8]: 10221
      0.01489 [    21]: 12210
      0.01064 [     2]: 01221
      0.00917 [     1]: 01212
      0.00907 [    27]: 21102
      0.00844 [    34]: 22110
      0.00814 [    17]: 12102
      0.00701 [    10]: 11112
      0.00599 [    22]: 20112
      0.00500 [     0]: 01122
      0.00338 [    29]: 21120
ROOT  11:  E=   -2880.0728234242 Eh  0.449 eV   3624.0 cm**-1
      0.24405 [    11]: 11121
      0.17978 [    22]: 20112
      0.10869 [    18]: 12111
      0.10502 [     0]: 01122
      0.05758 [    29]: 21120
      0.05033 [    32]: 22011
      0.04108 [    10]: 11112
      0.03480 [     5]: 02211
      0.03304 [     4]: 02121
      0.03295 [    25]: 21012
      0.03169 [    34]: 22110
      0.01225 [    31]: 21210
      0.01201 [    19]: 12120
      0.00988 [    15]: 12012
      0.00986 [    33]: 22101
      0.00807 [    13]: 11211
      0.00630 [    28]: 21111
      0.00554 [    12]: 11202
      0.00348 [    21]: 12210
ROOT  12:  E=   -2880.0721236376 Eh  0.468 eV   3777.6 cm**-1
      0.21051 [    18]: 12111
      0.15722 [    27]: 21102
      0.08184 [    10]: 11112
      0.07703 [    26]: 21021
      0.06180 [    17]: 12102
      0.05487 [     3]: 02112
      0.05162 [    34]: 22110
      0.04982 [    29]: 21120
      0.04019 [    11]: 11121
      0.03849 [    23]: 20121
      0.02511 [    28]: 21111
      0.02378 [     2]: 01221
      0.01697 [     0]: 01122
      0.01642 [    31]: 21210
      0.01429 [    33]: 22101
      0.01360 [    22]: 20112
      0.01162 [     9]: 11022
      0.00832 [    25]: 21012
      0.00799 [     7]: 10212
      0.00601 [    14]: 11220
      0.00578 [     4]: 02121
      0.00465 [    13]: 11211
      0.00462 [     5]: 02211
      0.00454 [    20]: 12201
      0.00292 [    21]: 12210
      0.00265 [    32]: 22011
      0.00259 [    15]: 12012
ROOT  13:  E=   -2880.0709031405 Eh  0.502 eV   4045.5 cm**-1
      0.16706 [    28]: 21111
      0.09757 [     1]: 01212
      0.09351 [    19]: 12120
      0.08732 [    18]: 12111
      0.07498 [    13]: 11211
      0.06610 [     6]: 10122
      0.04726 [    11]: 11121
      0.04045 [    25]: 21012
      0.03842 [    10]: 11112
      0.03631 [     5]: 02211
      0.03323 [     4]: 02121
      0.03190 [    22]: 20112
      0.02611 [     0]: 01122
      0.02542 [    31]: 21210
      0.01897 [    27]: 21102
      0.01893 [     9]: 11022
      0.01743 [    23]: 20121
      0.01425 [    30]: 21201
      0.01416 [    32]: 22011
      0.01377 [    24]: 20211
      0.01317 [    20]: 12201
      0.00868 [    16]: 12021
      0.00330 [    21]: 12210
      0.00320 [    15]: 12012
ROOT  14:  E=   -2880.0696602329 Eh  0.535 eV   4318.3 cm**-1
      0.22874 [    28]: 21111
      0.15758 [    11]: 11121
      0.07766 [    17]: 12102
      0.06474 [    18]: 12111
      0.04814 [     8]: 10221
      0.04259 [    10]: 11112
      0.03938 [    15]: 12012
      0.03874 [    16]: 12021
      0.03634 [     1]: 01212
      0.03037 [    27]: 21102
      0.02848 [     9]: 11022
      0.02778 [    33]: 22101
      0.02194 [    13]: 11211
      0.02187 [    30]: 21201
      0.01994 [    24]: 20211
      0.01950 [     6]: 10122
      0.01249 [    14]: 11220
      0.01093 [    26]: 21021
      0.01087 [     3]: 02112
      0.00927 [    23]: 20121
      0.00858 [    34]: 22110
      0.00725 [     0]: 01122
      0.00655 [    20]: 12201
      0.00518 [     2]: 01221
      0.00506 [     7]: 10212
      0.00469 [     5]: 02211
      0.00365 [    31]: 21210
      0.00322 [    19]: 12120
      0.00281 [    21]: 12210
ROOT  15:  E=   -2880.0673396662 Eh  0.599 eV   4827.6 cm**-1
      0.17812 [    10]: 11112
      0.13858 [     7]: 10212
      0.13142 [    12]: 11202
      0.07802 [    18]: 12111
      0.06684 [    20]: 12201
      0.06170 [    11]: 11121
      0.04628 [    13]: 11211
      0.04322 [    22]: 20112
      0.03728 [    28]: 21111
      0.03575 [    26]: 21021
      0.02820 [     6]: 10122
      0.02088 [    30]: 21201
      0.01615 [    19]: 12120
      0.01504 [    32]: 22011
      0.01255 [     2]: 01221
      0.01191 [    33]: 22101
      0.00909 [     9]: 11022
      0.00907 [    25]: 21012
      0.00876 [     0]: 01122
      0.00872 [     8]: 10221
      0.00805 [     4]: 02121
      0.00719 [     3]: 02112
      0.00577 [    34]: 22110
      0.00569 [    16]: 12021
      0.00445 [    21]: 12210
      0.00339 [    23]: 20121
      0.00267 [     5]: 02211
ROOT  16:  E=   -2880.0658240689 Eh  0.640 eV   5160.2 cm**-1
      0.17486 [    13]: 11211
      0.10042 [    21]: 12210
      0.08775 [    11]: 11121
      0.07478 [    24]: 20211
      0.07442 [    19]: 12120
      0.07098 [    18]: 12111
      0.06592 [    30]: 21201
      0.05829 [     6]: 10122
      0.05458 [    12]: 11202
      0.04274 [    32]: 22011
      0.03157 [    34]: 22110
      0.02688 [    10]: 11112
      0.01839 [    29]: 21120
      0.01620 [     7]: 10212
      0.01152 [    14]: 11220
      0.01145 [    26]: 21021
      0.01134 [    31]: 21210
      0.00863 [    20]: 12201
      0.00845 [    22]: 20112
      0.00766 [     9]: 11022
      0.00742 [    28]: 21111
      0.00732 [     1]: 01212
      0.00644 [    15]: 12012
      0.00518 [    33]: 22101
      0.00370 [     4]: 02121
      0.00364 [     8]: 10221
      0.00257 [    23]: 20121
      0.00250 [     2]: 01221
ROOT  17:  E=   -2880.0647052012 Eh  0.670 eV   5405.8 cm**-1
      0.23983 [    13]: 11211
      0.11204 [     4]: 02121
      0.08409 [    24]: 20211
      0.06770 [    18]: 12111
      0.05527 [    10]: 11112
      0.05471 [     7]: 10212
      0.03996 [    31]: 21210
      0.03765 [    28]: 21111
      0.03724 [    21]: 12210
      0.03681 [    27]: 21102
      0.03300 [     5]: 02211
      0.02890 [    11]: 11121
      0.02669 [    30]: 21201
      0.01919 [    25]: 21012
      0.01552 [    33]: 22101
      0.01489 [     9]: 11022
      0.01398 [    12]: 11202
      0.01230 [     1]: 01212
      0.00942 [    20]: 12201
      0.00823 [    16]: 12021
      0.00786 [    23]: 20121
      0.00761 [    29]: 21120
      0.00743 [    22]: 20112
      0.00680 [     2]: 01221
      0.00551 [     0]: 01122
      0.00506 [    17]: 12102
      0.00395 [    19]: 12120
      0.00250 [    15]: 12012
ROOT  18:  E=   -2880.0634251221 Eh  0.705 eV   5686.7 cm**-1
      0.20262 [    19]: 12120
      0.12638 [    11]: 11121
      0.09366 [    13]: 11211
      0.08653 [    20]: 12201
      0.08259 [     5]: 02211
      0.05531 [    28]: 21111
      0.04969 [    14]: 11220
      0.04938 [     1]: 01212
      0.04028 [     8]: 10221
      0.03519 [    18]: 12111
      0.02533 [     0]: 01122
      0.02261 [    25]: 21012
      0.02024 [    12]: 11202
      0.01826 [     4]: 02121
      0.01728 [     6]: 10122
      0.01675 [     2]: 01221
      0.01032 [    22]: 20112
      0.00940 [    23]: 20121
      0.00843 [    16]: 12021
      0.00615 [    10]: 11112
      0.00594 [    34]: 22110
      0.00351 [    32]: 22011
      0.00337 [    27]: 21102
      0.00330 [    29]: 21120
ROOT  19:  E=   -2880.0615219579 Eh  0.757 eV   6104.4 cm**-1
      0.18954 [     2]: 01221
      0.16906 [     5]: 02211
      0.10344 [    13]: 11211
      0.05916 [    11]: 11121
      0.05718 [     7]: 10212
      0.05670 [     4]: 02121
      0.04856 [     1]: 01212
      0.04557 [    18]: 12111
      0.04076 [    12]: 11202
      0.03448 [     8]: 10221
      0.03214 [     9]: 11022
      0.01798 [    15]: 12012
      0.01711 [    31]: 21210
      0.01374 [    34]: 22110
      0.01131 [     0]: 01122
      0.01117 [    33]: 22101
      0.01099 [    24]: 20211
      0.01049 [     3]: 02112
      0.01014 [    23]: 20121
      0.00922 [    26]: 21021
      0.00735 [    20]: 12201
      0.00712 [    27]: 21102
      0.00676 [    19]: 12120
      0.00660 [    29]: 21120
      0.00645 [    17]: 12102
      0.00592 [    30]: 21201
      0.00402 [    10]: 11112
ROOT  20:  E=   -2880.0609402506 Eh  0.773 eV   6232.1 cm**-1
      0.20468 [     2]: 01221
      0.17283 [    14]: 11220
      0.13921 [    21]: 12210
      0.07589 [    16]: 12021
      0.07055 [     5]: 02211
      0.05546 [     8]: 10221
      0.04856 [    28]: 21111
      0.04791 [    10]: 11112
      0.03192 [    22]: 20112
      0.02436 [    13]: 11211
      0.02041 [    18]: 12111
      0.02026 [    11]: 11121
      0.01855 [     1]: 01212
      0.01346 [    20]: 12201
      0.01257 [     3]: 02112
      0.01255 [     4]: 02121
      0.00647 [    27]: 21102
      0.00401 [    15]: 12012
      0.00392 [    24]: 20211
      0.00361 [    26]: 21021
      0.00312 [    19]: 12120
ROOT  21:  E=   -2880.0597276773 Eh  0.806 eV   6498.2 cm**-1
      0.19232 [    10]: 11112
      0.15074 [    23]: 20121
      0.12183 [    33]: 22101
      0.06215 [    18]: 12111
      0.04828 [    27]: 21102
      0.03808 [    12]: 11202
      0.03544 [     3]: 02112
      0.02993 [     9]: 11022
      0.02664 [    26]: 21021
      0.02641 [    16]: 12021
      0.02625 [    30]: 21201
      0.02309 [    28]: 21111
      0.02292 [    20]: 12201
      0.02224 [    11]: 11121
      0.02192 [    17]: 12102
      0.02025 [    13]: 11211
      0.01592 [    29]: 21120
      0.01430 [    24]: 20211
      0.01253 [     6]: 10122
      0.01214 [     0]: 01122
      0.01195 [     7]: 10212
      0.00943 [    14]: 11220
      0.00917 [    15]: 12012
      0.00916 [    22]: 20112
      0.00745 [     8]: 10221
      0.00701 [    32]: 22011
      0.00683 [    31]: 21210
      0.00479 [    34]: 22110
      0.00271 [    19]: 12120
ROOT  22:  E=   -2880.0588383112 Eh  0.830 eV   6693.4 cm**-1
      0.14997 [    18]: 12111
      0.06564 [    29]: 21120
      0.06038 [    17]: 12102
      0.05758 [    30]: 21201
      0.05503 [    15]: 12012
      0.05471 [     6]: 10122
      0.05314 [    11]: 11121
      0.04853 [    10]: 11112
      0.04231 [    14]: 11220
      0.03778 [     9]: 11022
      0.03581 [    32]: 22011
      0.03246 [    16]: 12021
      0.02900 [    22]: 20112
      0.02780 [    21]: 12210
      0.02735 [    27]: 21102
      0.02544 [     3]: 02112
      0.02526 [    26]: 21021
      0.02367 [    24]: 20211
      0.02083 [     7]: 10212
      0.01822 [     8]: 10221
      0.01646 [     5]: 02211
      0.01523 [    20]: 12201
      0.01493 [    28]: 21111
      0.01345 [     1]: 01212
      0.01095 [    34]: 22110
      0.00913 [     2]: 01221
      0.00838 [    12]: 11202
      0.00431 [    25]: 21012
      0.00423 [    13]: 11211
      0.00386 [    23]: 20121
      0.00277 [    31]: 21210
ROOT  23:  E=   -2880.0583351745 Eh  0.844 eV   6803.8 cm**-1
      0.22029 [    28]: 21111
      0.21772 [    18]: 12111
      0.15324 [    10]: 11112
      0.07728 [    16]: 12021
      0.04436 [    11]: 11121
      0.03934 [    20]: 12201
      0.03296 [    22]: 20112
      0.02475 [     8]: 10221
      0.01977 [     5]: 02211
      0.01874 [    14]: 11220
      0.01746 [     6]: 10122
      0.01611 [     1]: 01212
      0.01263 [    17]: 12102
      0.01249 [    29]: 21120
      0.01217 [    34]: 22110
      0.01102 [    23]: 20121
      0.01015 [    27]: 21102
      0.00817 [    32]: 22011
      0.00775 [    15]: 12012
      0.00764 [    25]: 21012
      0.00726 [    33]: 22101
      0.00606 [    26]: 21021
      0.00563 [     3]: 02112
      0.00293 [     9]: 11022
      0.00279 [     0]: 01122
      0.00258 [    13]: 11211
ROOT  24:  E=   -2880.0578347977 Eh  0.857 eV   6913.7 cm**-1
      0.28079 [    11]: 11121
      0.14839 [    10]: 11112
      0.08393 [    29]: 21120
      0.08362 [    28]: 21111
      0.06527 [    34]: 22110
      0.04334 [     0]: 01122
      0.04190 [     9]: 11022
      0.04013 [    31]: 21210
      0.02617 [    33]: 22101
      0.02546 [    25]: 21012
      0.02220 [    13]: 11211
      0.01833 [    12]: 11202
      0.01582 [    15]: 12012
      0.01580 [     1]: 01212
      0.01559 [    32]: 22011
      0.01167 [     3]: 02112
      0.01160 [     6]: 10122
      0.00784 [    17]: 12102
      0.00689 [    23]: 20121
      0.00473 [     7]: 10212
      0.00466 [    20]: 12201
      0.00428 [    26]: 21021
      0.00355 [     5]: 02211
      0.00344 [    22]: 20112
      0.00343 [    14]: 11220
      0.00298 [     4]: 02121
      0.00283 [    21]: 12210
      0.00278 [    16]: 12021
ROOT  25:  E=   -2880.0534007400 Eh  0.978 eV   7886.8 cm**-1
      0.36616 [    13]: 11211
      0.16824 [    28]: 21111
      0.14660 [    10]: 11112
      0.07435 [    21]: 12210
      0.03964 [     3]: 02112
      0.03498 [    18]: 12111
      0.02756 [    33]: 22101
      0.02198 [    24]: 20211
      0.01651 [    31]: 21210
      0.01651 [    23]: 20121
      0.01430 [     7]: 10212
      0.01074 [    22]: 20112
      0.00949 [    34]: 22110
      0.00939 [    29]: 21120
      0.00729 [    11]: 11121
      0.00504 [    15]: 12012
      0.00491 [     6]: 10122
      0.00483 [     0]: 01122
      0.00378 [    14]: 11220
      0.00363 [    12]: 11202
      0.00310 [     1]: 01212
      0.00302 [     8]: 10221
ROOT  26:  E=   -2880.0530308208 Eh  0.988 eV   7968.0 cm**-1
      0.14055 [     8]: 10221
      0.13096 [    13]: 11211
      0.11640 [    20]: 12201
      0.09954 [    28]: 21111
      0.06907 [    34]: 22110
      0.06465 [     1]: 01212
      0.04932 [    14]: 11220
      0.04134 [    30]: 21201
      0.03672 [     7]: 10212
      0.03564 [     0]: 01122
      0.03390 [     5]: 02211
      0.03089 [    22]: 20112
      0.02541 [     2]: 01221
      0.02463 [    11]: 11121
      0.01831 [    27]: 21102
      0.01691 [    17]: 12102
      0.01385 [     4]: 02121
      0.01042 [    15]: 12012
      0.00842 [    25]: 21012
      0.00671 [    32]: 22011
      0.00431 [     9]: 11022
      0.00314 [    12]: 11202
      0.00313 [    18]: 12111
      0.00296 [     6]: 10122
      0.00287 [    21]: 12210
ROOT  27:  E=   -2880.0513096186 Eh  1.035 eV   8345.8 cm**-1
      0.12876 [    14]: 11220
      0.10524 [     3]: 02112
      0.10480 [    18]: 12111
      0.07264 [    12]: 11202
      0.07079 [     8]: 10221
      0.06998 [    29]: 21120
      0.05858 [     5]: 02211
      0.05214 [    34]: 22110
      0.04876 [    28]: 21111
      0.04354 [     0]: 01122
      0.04342 [     2]: 01221
      0.03407 [    20]: 12201
      0.02915 [    11]: 11121
      0.02473 [    24]: 20211
      0.01991 [    13]: 11211
      0.01505 [     6]: 10122
      0.01396 [    30]: 21201
      0.00998 [     4]: 02121
      0.00989 [    23]: 20121
      0.00758 [    10]: 11112
      0.00654 [    22]: 20112
      0.00587 [     1]: 01212
      0.00492 [    17]: 12102
      0.00447 [     9]: 11022
      0.00287 [    25]: 21012
      0.00260 [    32]: 22011
ROOT  28:  E=   -2880.0510827139 Eh  1.041 eV   8395.6 cm**-1
      0.11426 [    13]: 11211
      0.09870 [     4]: 02121
      0.09374 [     2]: 01221
      0.09240 [    31]: 21210
      0.09155 [     1]: 01212
      0.08143 [    11]: 11121
      0.05845 [    23]: 20121
      0.04600 [     5]: 02211
      0.03554 [    21]: 12210
      0.03393 [    10]: 11112
      0.02653 [    18]: 12111
      0.02643 [    19]: 12120
      0.02568 [     8]: 10221
      0.02539 [    34]: 22110
      0.02022 [    33]: 22101
      0.01943 [     3]: 02112
      0.01653 [    14]: 11220
      0.01629 [    24]: 20211
      0.01626 [    26]: 21021
      0.01294 [    20]: 12201
      0.01251 [    29]: 21120
      0.00982 [    15]: 12012
      0.00776 [    28]: 21111
      0.00489 [     6]: 10122
      0.00390 [    12]: 11202
      0.00331 [    27]: 21102
      0.00265 [    30]: 21201
ROOT  29:  E=   -2880.0506584506 Eh  1.052 eV   8488.7 cm**-1
      0.26204 [    13]: 11211
      0.16983 [    11]: 11121
      0.12010 [    21]: 12210
      0.07197 [     7]: 10212
      0.06474 [    19]: 12120
      0.05165 [    14]: 11220
      0.04872 [     4]: 02121
      0.03394 [     0]: 01122
      0.03326 [     6]: 10122
      0.02783 [    18]: 12111
      0.02196 [    10]: 11112
      0.02194 [    33]: 22101
      0.01720 [     5]: 02211
      0.00997 [    17]: 12102
      0.00937 [    31]: 21210
      0.00818 [    29]: 21120
      0.00733 [    27]: 21102
      0.00372 [    12]: 11202
      0.00330 [     9]: 11022
      0.00267 [    15]: 12012
ROOT  30:  E=   -2880.0243142378 Eh  1.769 eV  14270.6 cm**-1
      0.23701 [    28]: 21111
      0.12747 [    10]: 11112
      0.11211 [    18]: 12111
      0.08391 [    26]: 21021
      0.07583 [    17]: 12102
      0.06398 [    11]: 11121
      0.05185 [    16]: 12021
      0.04711 [     6]: 10122
      0.03115 [    30]: 21201
      0.02696 [     9]: 11022
      0.02649 [    32]: 22011
      0.01577 [     8]: 10221
      0.01393 [     0]: 01122
      0.01118 [    24]: 20211
      0.01067 [    34]: 22110
      0.00983 [    20]: 12201
      0.00923 [    15]: 12012
      0.00688 [     2]: 01221
      0.00534 [    14]: 11220
      0.00513 [    12]: 11202
      0.00503 [     4]: 02121
      0.00413 [    22]: 20112
      0.00391 [    19]: 12120
      0.00312 [    27]: 21102
      0.00261 [    33]: 22101
ROOT  31:  E=   -2880.0208279403 Eh  1.864 eV  15035.7 cm**-1
      0.29002 [    13]: 11211
      0.11750 [    10]: 11112
      0.09559 [    33]: 22101
      0.06905 [    28]: 21111
      0.05097 [     9]: 11022
      0.04895 [    18]: 12111
      0.04233 [    23]: 20121
      0.03987 [     7]: 10212
      0.03514 [    16]: 12021
      0.02780 [    32]: 22011
      0.02528 [    21]: 12210
      0.02238 [    12]: 11202
      0.02062 [     8]: 10221
      0.01695 [    19]: 12120
      0.01595 [    11]: 11121
      0.01587 [    29]: 21120
      0.01343 [    27]: 21102
      0.01135 [     1]: 01212
      0.00664 [     5]: 02211
      0.00653 [    17]: 12102
      0.00550 [     4]: 02121
      0.00537 [     6]: 10122
      0.00284 [    25]: 21012
      0.00282 [    24]: 20211
      0.00279 [    31]: 21210
ROOT  32:  E=   -2880.0195732003 Eh  1.898 eV  15311.1 cm**-1
      0.14611 [    30]: 21201
      0.13740 [    13]: 11211
      0.11676 [    15]: 12012
      0.05233 [    29]: 21120
      0.04844 [    11]: 11121
      0.04604 [    23]: 20121
      0.04124 [    26]: 21021
      0.03901 [     2]: 01221
      0.03617 [    10]: 11112
      0.03544 [    21]: 12210
      0.03368 [     0]: 01122
      0.03142 [    32]: 22011
      0.03046 [     4]: 02121
      0.03000 [    17]: 12102
      0.02950 [    18]: 12111
      0.02883 [    28]: 21111
      0.02379 [    19]: 12120
      0.01613 [     5]: 02211
      0.01600 [    12]: 11202
      0.00979 [     8]: 10221
      0.00793 [    31]: 21210
      0.00791 [    16]: 12021
      0.00737 [     9]: 11022
      0.00724 [    34]: 22110
      0.00665 [     7]: 10212
      0.00354 [    14]: 11220
      0.00350 [     3]: 02112
ROOT  33:  E=   -2880.0190041349 Eh  1.914 eV  15436.0 cm**-1
      0.15717 [    13]: 11211
      0.11144 [     3]: 02112
      0.07456 [     6]: 10122
      0.06641 [    24]: 20211
      0.06524 [    34]: 22110
      0.06004 [    10]: 11112
      0.05195 [    14]: 11220
      0.04214 [     9]: 11022
      0.04167 [    11]: 11121
      0.04060 [     2]: 01221
      0.03737 [    23]: 20121
      0.03621 [    18]: 12111
      0.03241 [    19]: 12120
      0.02437 [     5]: 02211
      0.01705 [    32]: 22011
      0.01539 [    30]: 21201
      0.01507 [    28]: 21111
      0.01419 [    29]: 21120
      0.01313 [    16]: 12021
      0.01114 [     8]: 10221
      0.01054 [     7]: 10212
      0.00977 [    26]: 21021
      0.00914 [    22]: 20112
      0.00896 [     4]: 02121
      0.00806 [    21]: 12210
      0.00565 [    12]: 11202
      0.00482 [    17]: 12102
      0.00413 [     0]: 01122
      0.00401 [    33]: 22101
      0.00397 [     1]: 01212
ROOT  34:  E=   -2880.0171480560 Eh  1.964 eV  15843.4 cm**-1
      0.12506 [    11]: 11121
      0.10782 [    10]: 11112
      0.09445 [    31]: 21210
      0.08524 [     1]: 01212
      0.08314 [    18]: 12111
      0.07162 [    28]: 21111
      0.06498 [    13]: 11211
      0.05454 [     7]: 10212
      0.05018 [     4]: 02121
      0.04962 [    33]: 22101
      0.04796 [    21]: 12210
      0.04601 [    24]: 20211
      0.03527 [     5]: 02211
      0.03062 [    14]: 11220
      0.01886 [    12]: 11202
      0.00553 [    23]: 20121
      0.00503 [    27]: 21102
      0.00435 [     8]: 10221
      0.00373 [    29]: 21120
      0.00340 [     9]: 11022
ROOT  35:  E=   -2879.9232545925 Eh  4.519 eV  36450.6 cm**-1
      0.27497 [     9]: 11022
      0.12435 [    14]: 11220
      0.08848 [    12]: 11202
      0.07840 [    32]: 22011
      0.07596 [    16]: 12021
      0.07480 [    11]: 11121
      0.04117 [    26]: 21021
      0.03473 [     3]: 02112
      0.02797 [    24]: 20211
      0.02546 [    22]: 20112
      0.02159 [     2]: 01221
      0.01868 [    19]: 12120
      0.01807 [    13]: 11211
      0.01766 [    10]: 11112
      0.01569 [    34]: 22110
      0.00972 [    18]: 12111
      0.00682 [    20]: 12201
      0.00679 [    30]: 21201
      0.00634 [     8]: 10221
      0.00632 [     6]: 10122
      0.00568 [    21]: 12210
      0.00323 [    23]: 20121
      0.00268 [     0]: 01122
      0.00263 [    17]: 12102
ROOT  36:  E=   -2879.9217994403 Eh  4.559 eV  36770.0 cm**-1
      0.24132 [    15]: 12012
      0.08238 [     0]: 01122
      0.07525 [     7]: 10212
      0.06288 [    21]: 12210
      0.06178 [    26]: 21021
      0.06171 [    32]: 22011
      0.03907 [    18]: 12111
      0.03326 [    27]: 21102
      0.03170 [    29]: 21120
      0.03161 [    30]: 21201
      0.02853 [    10]: 11112
      0.02532 [     5]: 02211
      0.02466 [    25]: 21012
      0.02368 [    12]: 11202
      0.02295 [     9]: 11022
      0.02120 [     1]: 01212
      0.01848 [    16]: 12021
      0.01546 [    28]: 21111
      0.01533 [    24]: 20211
      0.01377 [     4]: 02121
      0.01353 [    31]: 21210
      0.01164 [    19]: 12120
      0.01007 [    17]: 12102
      0.00809 [    13]: 11211
      0.00745 [    22]: 20112
      0.00556 [     3]: 02112
      0.00329 [    11]: 11121
      0.00266 [    34]: 22110
ROOT  37:  E=   -2879.9188567805 Eh  4.639 eV  37415.8 cm**-1
      0.12827 [    17]: 12102
      0.12477 [     6]: 10122
      0.12366 [    33]: 22101
      0.07805 [    29]: 21120
      0.07134 [    23]: 20121
      0.06079 [    28]: 21111
      0.03946 [     4]: 02121
      0.03700 [     8]: 10221
      0.03622 [     0]: 01122
      0.03532 [    31]: 21210
      0.03408 [    19]: 12120
      0.03079 [    32]: 22011
      0.03054 [    11]: 11121
      0.02706 [    27]: 21102
      0.02224 [     5]: 02211
      0.02090 [    20]: 12201
      0.01914 [    13]: 11211
      0.01536 [    25]: 21012
      0.01010 [    12]: 11202
      0.00992 [    14]: 11220
      0.00926 [     1]: 01212
      0.00814 [    34]: 22110
      0.00572 [    18]: 12111
      0.00484 [    24]: 20211
      0.00471 [    22]: 20112
      0.00410 [    26]: 21021
ROOT  38:  E=   -2879.9182538537 Eh  4.655 eV  37548.1 cm**-1
      0.11186 [     8]: 10221
      0.10635 [     1]: 01212
      0.09757 [     6]: 10122
      0.08474 [     0]: 01122
      0.07681 [    16]: 12021
      0.05527 [     2]: 01221
      0.04556 [    33]: 22101
      0.04551 [    26]: 21021
      0.03782 [    20]: 12201
      0.03279 [    30]: 21201
      0.03096 [    19]: 12120
      0.02939 [    28]: 21111
      0.02902 [     7]: 10212
      0.02694 [    13]: 11211
      0.02615 [    29]: 21120
      0.02028 [    11]: 11121
      0.02026 [    23]: 20121
      0.01955 [    10]: 11112
      0.01701 [     4]: 02121
      0.01640 [    17]: 12102
      0.01451 [    27]: 21102
      0.00998 [     5]: 02211
      0.00979 [    25]: 21012
      0.00779 [    31]: 21210
      0.00740 [    18]: 12111
      0.00707 [     3]: 02112
      0.00441 [    12]: 11202
      0.00267 [    15]: 12012
ROOT  39:  E=   -2879.9177540994 Eh  4.669 eV  37657.8 cm**-1
      0.12037 [    20]: 12201
      0.11399 [    16]: 12021
      0.10556 [     8]: 10221
      0.10533 [    34]: 22110
      0.09815 [     3]: 02112
      0.07245 [    23]: 20121
      0.05356 [    17]: 12102
      0.04544 [    12]: 11202
      0.03728 [     4]: 02121
      0.03462 [    19]: 12120
      0.02830 [     1]: 01212
      0.02609 [    28]: 21111
      0.02550 [    22]: 20112
      0.02287 [    18]: 12111
      0.01907 [    10]: 11112
      0.01905 [    11]: 11121
      0.01325 [    33]: 22101
      0.00985 [    13]: 11211
      0.00794 [    21]: 12210
      0.00785 [    24]: 20211
      0.00733 [     5]: 02211
      0.00587 [    15]: 12012
      0.00565 [    25]: 21012
      0.00424 [    29]: 21120
      0.00380 [    30]: 21201
ROOT  40:  E=   -2879.9163616111 Eh  4.707 eV  37963.4 cm**-1
      0.14163 [     3]: 02112
      0.14122 [    34]: 22110
      0.09044 [    24]: 20211
      0.07154 [    14]: 11220
      0.06709 [    12]: 11202
      0.06120 [    22]: 20112
      0.05108 [     7]: 10212
      0.03599 [     4]: 02121
      0.03207 [    20]: 12201
      0.03052 [    17]: 12102
      0.02908 [     0]: 01122
      0.02813 [    32]: 22011
      0.02706 [    11]: 11121
      0.02336 [    10]: 11112
      0.02332 [     9]: 11022
      0.02314 [     5]: 02211
      0.01929 [    13]: 11211
      0.01897 [     6]: 10122
      0.01534 [    16]: 12021
      0.01506 [    28]: 21111
      0.01359 [    26]: 21021
      0.01014 [     2]: 01221
      0.00904 [    15]: 12012
      0.00594 [    18]: 12111
      0.00287 [    31]: 21210
      0.00268 [    25]: 21012
ROOT  41:  E=   -2879.9154484516 Eh  4.732 eV  38163.9 cm**-1
      0.12640 [     0]: 01122
      0.11084 [    21]: 12210
      0.11029 [    29]: 21120
      0.10141 [    30]: 21201
      0.07867 [     7]: 10212
      0.06082 [    15]: 12012
      0.05535 [    18]: 12111
      0.04033 [     1]: 01212
      0.03920 [    27]: 21102
      0.03552 [    17]: 12102
      0.03213 [    26]: 21021
      0.02818 [    34]: 22110
      0.02611 [    28]: 21111
      0.02323 [     4]: 02121
      0.02285 [    10]: 11112
      0.01817 [     2]: 01221
      0.01698 [    13]: 11211
      0.01383 [    20]: 12201
      0.01053 [     3]: 02112
      0.01016 [    33]: 22101
      0.00875 [    23]: 20121
      0.00464 [    32]: 22011
      0.00439 [    31]: 21210
      0.00424 [    25]: 21012
      0.00406 [    16]: 12021
      0.00385 [     8]: 10221
      0.00337 [     5]: 02211
ROOT  42:  E=   -2879.9131719071 Eh  4.794 eV  38663.5 cm**-1
      0.22158 [    30]: 21201
      0.10744 [    20]: 12201
      0.08784 [    18]: 12111
      0.08170 [     2]: 01221
      0.06504 [    12]: 11202
      0.04866 [     4]: 02121
      0.04840 [    33]: 22101
      0.04380 [     0]: 01122
      0.04135 [     5]: 02211
      0.03835 [    26]: 21021
      0.03041 [     8]: 10221
      0.02164 [    24]: 20211
      0.02056 [    29]: 21120
      0.02045 [    28]: 21111
      0.01973 [    34]: 22110
      0.01860 [    11]: 11121
      0.01268 [    31]: 21210
      0.01232 [     6]: 10122
      0.01137 [    14]: 11220
      0.00823 [    13]: 11211
      0.00669 [     3]: 02112
      0.00625 [    19]: 12120
      0.00588 [    32]: 22011
      0.00535 [    10]: 11112
      0.00339 [     9]: 11022
      0.00253 [    21]: 12210
ROOT  43:  E=   -2879.9118312706 Eh  4.830 eV  38957.7 cm**-1
      0.22406 [    24]: 20211
      0.10942 [    23]: 20121
      0.10096 [     3]: 02112
      0.06214 [     5]: 02211
      0.06174 [    11]: 11121
      0.04649 [     7]: 10212
      0.04308 [     1]: 01212
      0.03554 [     4]: 02121
      0.03207 [    32]: 22011
      0.02959 [     0]: 01122
      0.02838 [    18]: 12111
      0.02825 [    10]: 11112
      0.02571 [    19]: 12120
      0.02496 [    33]: 22101
      0.02224 [     6]: 10122
      0.01988 [    12]: 11202
      0.01555 [    21]: 12210
      0.01422 [    17]: 12102
      0.01420 [    29]: 21120
      0.01076 [     8]: 10221
      0.00977 [    14]: 11220
      0.00782 [    34]: 22110
      0.00705 [    22]: 20112
      0.00705 [    31]: 21210
      0.00553 [    13]: 11211
      0.00474 [    28]: 21111
      0.00375 [    30]: 21201
ROOT  44:  E=   -2879.9086752355 Eh  4.916 eV  39650.4 cm**-1
      0.42558 [    31]: 21210
      0.08786 [     1]: 01212
      0.07845 [    29]: 21120
      0.06801 [    13]: 11211
      0.05133 [    19]: 12120
      0.04956 [    24]: 20211
      0.03097 [    25]: 21012
      0.03065 [    34]: 22110
      0.02320 [     7]: 10212
      0.02094 [    28]: 21111
      0.01789 [     8]: 10221
      0.01735 [     6]: 10122
      0.01644 [    21]: 12210
      0.01432 [    17]: 12102
      0.01169 [    11]: 11121
      0.01079 [    18]: 12111
      0.00916 [    30]: 21201
      0.00728 [    23]: 20121
      0.00666 [    27]: 21102
      0.00322 [    26]: 21021
      0.00317 [     4]: 02121
      0.00301 [     0]: 01122

                 <<<<<<<<<<<<<<<<<<INITIAL CI STATE CHECK>>>>>>>>>>>>>>>>>>

   E(CAS)= -2880.102939345 Eh DE=    0.000000e+00
   --- Energy gap subspaces: Ext-Act = 0.223   Act-Int = -0.046
   N(occ)=  1.20000 1.20000 1.20000 1.20000 1.20000
   ||g|| =     6.365286e-04 Max(G)=   -9.208413e-05 Rot=130,123
                     ---- THE CAS-SCF GRADIENT HAS CONVERGED ----
                            --- FINALIZING ORBITALS ---
                    ---- DOING ONE FINAL ITERATION FOR PRINTING ----
   --- Forming Natural Orbitals
   --- Canonicalize Internal Space
   --- Canonicalize External Space

MACRO-ITERATION   2: 
   --- Inactive Energy E0 = -2864.33415059 Eh
   --- All densities will be recomputed
CI-ITERATION   0: 
 -2880.180835292   0.000000000000 (    0.00)
 -2880.179118635   0.000000000000
 -2880.176006383   0.000000000000
 -2880.175176211   0.000000000000
 -2880.169018417   0.000000000000
   CI-PROBLEM SOLVED
   DENSITIES MADE
CI-ITERATION   0: 
 -2880.089335777   0.000000000000 (    0.00)
 -2880.087363887   0.000000000000
 -2880.086188802   0.000000000000
 -2880.085743881   0.000000000000
 -2880.084424954   0.000000000000
 -2880.082966560   0.000000000000
 -2880.082368193   0.000000000000
 -2880.080147351   0.000000000000
 -2880.079357754   0.000000000000
 -2880.078023915   0.000000000000
 -2880.077465593   0.000000000000
 -2880.072823422   0.000000000000
 -2880.072123636   0.000000000000
 -2880.070903139   0.000000000000
 -2880.069660231   0.000000000000
 -2880.067339664   0.000000000000
 -2880.065824067   0.000000000000
 -2880.064705199   0.000000000000
 -2880.063425120   0.000000000000
 -2880.061521956   0.000000000000
 -2880.060940249   0.000000000000
 -2880.059727675   0.000000000000
 -2880.058838309   0.000000000000
 -2880.058335173   0.000000000000
 -2880.057834796   0.000000000000
 -2880.053400738   0.000000000000
 -2880.053030819   0.000000000000
 -2880.051309617   0.000000000000
 -2880.051082712   0.000000000000
 -2880.050658449   0.000000000000
 -2880.024314236   0.000000000000
 -2880.020827938   0.000000000000
 -2880.019573198   0.000000000000
 -2880.019004133   0.000000000000
 -2880.017148054   0.000000000000
 -2879.923254591   0.000000000000
 -2879.921799439   0.000000000000
 -2879.918856779   0.000000000000
 -2879.918253852   0.000000000000
 -2879.917754098   0.000000000000
 -2879.916361609   0.000000000000
 -2879.915448450   0.000000000000
 -2879.913171905   0.000000000000
 -2879.911831269   0.000000000000
 -2879.908675233   0.000000000000
   CI-PROBLEM SOLVED
   DENSITIES MADE
   E(CAS)= -2880.102939343 Eh DE=    1.884928e-09
   --- Energy gap subspaces: Ext-Act = 0.227   Act-Int = -0.046
   N(occ)=  1.20000 1.20000 1.20000 1.20000 1.20000
   ||g|| =     6.365286e-04 Max(G)=   -9.208413e-05 Rot=130,123
--------------
CASSCF RESULTS
--------------

Final CASSCF energy       : -2880.102939343 Eh  -78371.5853 eV

----------------
ORBITAL ENERGIES
----------------

  NO   OCC          E(Eh)            E(eV) 
   0   2.0000    -261.394113     -7112.8954 
   1   2.0000     -31.957279      -869.6018 
   2   2.0000     -27.437472      -746.6116 
   3   2.0000     -27.437081      -746.6009 
   4   2.0000     -27.436918      -746.5965 
   5   2.0000      -4.727884      -128.6523 
   6   2.0000      -4.727636      -128.6455 
   7   2.0000      -4.724221      -128.5526 
   8   2.0000      -4.722790      -128.5136 
   9   2.0000      -4.712448      -128.2322 
  10   2.0000      -4.710725      -128.1854 
  11   2.0000      -4.709911      -128.1632 
  12   2.0000      -4.709286      -128.1462 
  13   2.0000      -4.708332      -128.1202 
  14   2.0000      -4.706433      -128.0686 
  15   2.0000      -4.701290      -127.9286 
  16   2.0000      -4.701009      -127.9209 
  17   2.0000      -4.191267      -114.0502 
  18   2.0000      -2.773407       -75.4682 
  19   2.0000      -2.771139       -75.4065 
  20   2.0000      -2.770827       -75.3980 
  21   2.0000      -2.767973       -75.3204 
  22   2.0000      -2.765768       -75.2604 
  23   2.0000      -2.764483       -75.2254 
  24   2.0000      -2.764450       -75.2245 
  25   2.0000      -2.762933       -75.1832 
  26   2.0000      -2.762610       -75.1744 
  27   2.0000      -2.760501       -75.1171 
  28   2.0000      -2.760456       -75.1158 
  29   2.0000      -2.758757       -75.0696 
  30   2.0000      -2.758098       -75.0517 
  31   2.0000      -2.757649       -75.0394 
  32   2.0000      -2.756406       -75.0056 
  33   2.0000      -2.751790       -74.8800 
  34   2.0000      -2.750992       -74.8583 
  35   2.0000      -2.748787       -74.7983 
  36   2.0000      -2.747948       -74.7755 
  37   2.0000      -2.747064       -74.7514 
  38   2.0000      -2.746569       -74.7379 
  39   2.0000      -2.745342       -74.7046 
  40   2.0000      -2.745206       -74.7009 
  41   2.0000      -2.744904       -74.6926 
  42   2.0000      -2.743963       -74.6670 
  43   2.0000      -2.743666       -74.6590 
  44   2.0000      -2.743029       -74.6416 
  45   2.0000      -2.742844       -74.6366 
  46   2.0000      -2.742216       -74.6195 
  47   2.0000      -2.741466       -74.5991 
  48   2.0000      -2.740779       -74.5804 
  49   2.0000      -2.740560       -74.5744 
  50   2.0000      -2.739550       -74.5469 
  51   2.0000      -2.737605       -74.4940 
  52   2.0000      -2.737377       -74.4878 
  53   2.0000      -2.735338       -74.4323 
  54   2.0000      -2.735014       -74.4235 
  55   2.0000      -2.734214       -74.4018 
  56   2.0000      -2.732639       -74.3589 
  57   2.0000      -0.586962       -15.9720 
  58   2.0000      -0.567303       -15.4371 
  59   2.0000      -0.555980       -15.1290 
  60   2.0000      -0.550768       -14.9872 
  61   2.0000      -0.549275       -14.9465 
  62   2.0000      -0.548111       -14.9149 
  63   2.0000      -0.547270       -14.8920 
  64   2.0000      -0.546279       -14.8650 
[...]
 3 117   29677.9    337.0   0.000000000   0.00000   0.00011   0.00007   0.00026
 3 118   31083.8    321.7   0.000000000   0.00000   0.00003   0.00026   0.00007
 3 119   31090.2    321.6   0.000000001   0.00000   0.00006   0.00066   0.00022
 3 120   31093.3    321.6   0.000000000   0.00000   0.00007   0.00027   0.00029
 3 121   31462.5    317.8   0.000000000   0.00000   0.00004   0.00012   0.00029
 3 122   31465.2    317.8   0.000000000   0.00000   0.00033   0.00003   0.00030
 3 123   31481.8    317.6   0.000000001   0.00000   0.00015   0.00000   0.00045
 3 124   31713.4    315.3   0.000000000   0.00000   0.00017   0.00004   0.00017
 3 125   31726.1    315.2   0.000000000   0.00000   0.00019   0.00016   0.00017
 3 126   31728.7    315.2   0.000000000   0.00000   0.00015   0.00013   0.00008
 3 127   32428.6    308.4   0.000000000   0.00000   0.00006   0.00007   0.00028
 3 128   32429.7    308.4   0.000000003   0.00000   0.00070   0.00035   0.00074
 3 129   32432.3    308.3   0.000000000   0.00000   0.00002   0.00000   0.00008
 3 130   46530.3    214.9   0.000000000   0.00000   0.00037   0.00004   0.00003
 3 131   46548.1    214.8   0.000000001   0.00000   0.00015   0.00040   0.00003
 3 132   46553.2    214.8   0.000000000   0.00000   0.00012   0.00022   0.00004
 3 133   47313.4    211.4   0.000000000   0.00000   0.00016   0.00006   0.00007
 3 134   47314.1    211.4   0.000000000   0.00000   0.00009   0.00001   0.00003
 3 135   47323.1    211.3   0.000000000   0.00000   0.00005   0.00004   0.00015
 3 136   48268.1    207.2   0.000000001   0.00000   0.00022   0.00035   0.00001
 3 137   48292.2    207.1   0.000000001   0.00000   0.00002   0.00031   0.00030
 3 138   48309.6    207.0   0.000000000   0.00000   0.00013   0.00007   0.00013
 3 139   48603.6    205.7   0.000000001   0.00000   0.00023   0.00024   0.00027
 3 140   48615.1    205.7   0.000000001   0.00000   0.00039   0.00012   0.00029
 3 141   48619.8    205.7   0.000000001   0.00000   0.00031   0.00029   0.00025
 3 142   48887.7    204.6   0.000000001   0.00000   0.00026   0.00019   0.00050
 3 143   48889.7    204.5   0.000000002   0.00000   0.00021   0.00065   0.00002
 3 144   48899.9    204.5   0.000000001   0.00000   0.00023   0.00053   0.00000
 3 145   49485.1    202.1   0.000000000   0.00000   0.00004   0.00004   0.00001
 3 146   49491.9    202.1   0.000000001   0.00000   0.00005   0.00058   0.00022
 3 147   49500.9    202.0   0.000000000   0.00000   0.00018   0.00026   0.00004
 3 148   49717.0    201.1   0.000000001   0.00000   0.00022   0.00023   0.00021
 3 149   49727.1    201.1   0.000000001   0.00000   0.00032   0.00018   0.00024
 3 150   49809.6    200.8   0.000000000   0.00000   0.00014   0.00007   0.00019
 3 151   49841.6    200.6   0.000000000   0.00000   0.00008   0.00013   0.00026
 3 152   49848.7    200.6   0.000000001   0.00000   0.00047   0.00014   0.00012
 3 153   49851.2    200.6   0.000000001   0.00000   0.00019   0.00024   0.00023
 3 154   50334.4    198.7   0.000000000   0.00000   0.00003   0.00010   0.00030
 3 155   50475.1    198.1   0.000000000   0.00000   0.00020   0.00014   0.00003
 3 156   50488.0    198.1   0.000000000   0.00000   0.00015   0.00014   0.00003
 3 157   51600.3    193.8   0.000000000   0.00000   0.00010   0.00010   0.00029
 3 158   51615.5    193.7   0.000000001   0.00000   0.00021   0.00029   0.00011
 3 159   51649.8    193.6   0.000000000   0.00000   0.00002   0.00010   0.00002
 4  5     463.5   21576.3   0.000000020   0.00057   0.00178   0.01960   0.01340
 4  6     465.9   21462.1   0.000000000   0.00001   0.00334   0.00103   0.00143
 4  7     491.1   20361.7   0.000000001   0.00003   0.00011   0.00518   0.00279
 4  8     504.9   19804.4   0.000000001   0.00004   0.00262   0.00483   0.00253
 4  9     508.5   19664.5   0.000000001   0.00002   0.00119   0.00357   0.00287
 4 10    1721.3   5809.4   0.000000081   0.00063   0.00024   0.01199   0.02201
 4 11    1724.1   5800.1   0.000000469   0.00365   0.02561   0.04633   0.02915
 4 12    1849.3   5407.5   0.000000126   0.00092   0.01443   0.02370   0.01213
 4 13    1888.9   5294.1   0.000000007   0.00005   0.00572   0.00399   0.00035
 4 14    1940.1   5154.2   0.000000058   0.00040   0.00879   0.01531   0.00949
 4 15    2181.5   4584.0   0.000000060   0.00037   0.00316   0.01238   0.01446
 4 16    2214.7   4515.4   0.000000016   0.00010   0.00647   0.00749   0.00042
 4 17    2265.7   4413.7   0.000000194   0.00115   0.00568   0.02237   0.02484
 4 18    2339.1   4275.2   0.000000175   0.00101   0.00159   0.01463   0.02808
 4 19    2342.4   4269.2   0.000000317   0.00182   0.01683   0.02922   0.02605
 4 20    4411.4   2266.8   0.000000003   0.00001   0.00138   0.00226   0.00077
 4 21    4414.1   2265.5   0.000000032   0.00010   0.00512   0.00428   0.00718
 4 22    4419.3   2262.8   0.000000007   0.00002   0.00092   0.00412   0.00142
 4 23    4430.9   2256.9   0.000000049   0.00015   0.00864   0.00508   0.00689
 4 24    4431.4   2256.6   0.000000151   0.00046   0.01374   0.01590   0.00413
 4 25   16904.7    591.6   0.000000000   0.00000   0.00010   0.00024   0.00012
 4 26   16919.9    591.0   0.000000001   0.00000   0.00011   0.00035   0.00098
 4 27   16926.4    590.8   0.000000002   0.00000   0.00034   0.00049   0.00107
 4 28   18132.6    551.5   0.000000001   0.00000   0.00007   0.00039   0.00050
 4 29   18158.8    550.7   0.000000002   0.00000   0.00052   0.00039   0.00099
 4 30   18185.1    549.9   0.000000001   0.00000   0.00037   0.00031   0.00049
 4 31   18626.2    536.9   0.000000004   0.00000   0.00028   0.00155   0.00054
 4 32   18644.2    536.4   0.000000001   0.00000   0.00065   0.00052   0.00046
 4 33   18664.1    535.8   0.000000000   0.00000   0.00001   0.00011   0.00017
 4 34   19104.0    523.5   0.000000000   0.00000   0.00043   0.00002   0.00002
 4 35   19126.7    522.8   0.000000000   0.00000   0.00015   0.00019   0.00047
 4 36   19133.7    522.6   0.000000003   0.00000   0.00079   0.00069   0.00103
 4 37   19632.8    509.4   0.000000000   0.00000   0.00014   0.00055   0.00007
 4 38   19643.8    509.1   0.000000000   0.00000   0.00006   0.00029   0.00016
 4 39   19658.2    508.7   0.000000002   0.00000   0.00026   0.00096   0.00047
 4 40   19943.9    501.4   0.000000001   0.00000   0.00016   0.00039   0.00059
 4 41   19959.1    501.0   0.000000001   0.00000   0.00023   0.00012   0.00062
 4 42   19995.7    500.1   0.000000000   0.00000   0.00021   0.00013   0.00044
 4 43   20351.3    491.4   0.000000000   0.00000   0.00039   0.00009   0.00011
 4 44   20364.3    491.1   0.000000001   0.00000   0.00018   0.00039   0.00067
 4 45   20418.3    489.8   0.000000005   0.00000   0.00102   0.00130   0.00047
 4 46   20503.4    487.7   0.000000002   0.00000   0.00073   0.00032   0.00074
 4 47   20508.4    487.6   0.000000000   0.00000   0.00035   0.00026   0.00008
 4 48   20596.0    485.5   0.000000000   0.00000   0.00002   0.00018   0.00053
 4 49   20696.3    483.2   0.000000002   0.00000   0.00064   0.00076   0.00038
 4 50   20706.8    482.9   0.000000001   0.00000   0.00049   0.00044   0.00013
 4 51   20798.6    480.8   0.000000003   0.00000   0.00031   0.00062   0.00130
 4 52   20949.6    477.3   0.000000001   0.00000   0.00033   0.00008   0.00078
 4 53   21004.8    476.1   0.000000000   0.00000   0.00013   0.00014   0.00029
 4 54   21141.8    473.0   0.000000000   0.00000   0.00020   0.00020   0.00024
 4 55   21409.9    467.1   0.000000001   0.00000   0.00025   0.00026   0.00063
 4 56   21421.3    466.8   0.000000003   0.00000   0.00048   0.00080   0.00094
 4 57   21471.2    465.7   0.000000001   0.00000   0.00083   0.00014   0.00039
 4 58   21570.5    463.6   0.000000003   0.00000   0.00070   0.00101   0.00079
 4 59   21597.0    463.0   0.000000000   0.00000   0.00041   0.00004   0.00035
 4 60   21619.0    462.6   0.000000000   0.00000   0.00022   0.00009   0.00006
 4 61   21734.7    460.1   0.000000000   0.00000   0.00005   0.00030   0.00018
 4 62   21771.2    459.3   0.000000001   0.00000   0.00010   0.00058   0.00006
 4 63   21827.9    458.1   0.000000000   0.00000   0.00005   0.00045   0.00030
 4 64   21875.4    457.1   0.000000000   0.00000   0.00016   0.00015   0.00003
 4 65   21949.9    455.6   0.000000000   0.00000   0.00015   0.00020   0.00021
 4 66   21989.8    454.8   0.000000000   0.00000   0.00024   0.00005   0.00012
 4 67   22239.4    449.7   0.000000001   0.00000   0.00005   0.00046   0.00046
 4 68   22252.8    449.4   0.000000000   0.00000   0.00004   0.00000   0.00003
 4 69   22341.2    447.6   0.000000000   0.00000   0.00018   0.00016   0.00004
 4 70   22548.2    443.5   0.000000002   0.00000   0.00056   0.00071   0.00061
 4 71   22561.9    443.2   0.000000000   0.00000   0.00019   0.00007   0.00036
 4 72   22588.3    442.7   0.000000000   0.00000   0.00018   0.00012   0.00029
 4 73   23119.6    432.5   0.000000000   0.00000   0.00005   0.00019   0.00033
 4 74   23126.4    432.4   0.000000000   0.00000   0.00012   0.00016   0.00010
 4 75   23143.3    432.1   0.000000000   0.00000   0.00018   0.00048   0.00012
 4 76   23584.5    424.0   0.000000002   0.00000   0.00038   0.00003   0.00094
 4 77   23600.3    423.7   0.000000001   0.00000   0.00016   0.00074   0.00024
 4 78   23697.4    422.0   0.000000000   0.00000   0.00029   0.00015   0.00034
 4 79   23848.6    419.3   0.000000000   0.00000   0.00016   0.00017   0.00033
 4 80   23860.2    419.1   0.000000000   0.00000   0.00020   0.00021   0.00010
 4 81   24050.9    415.8   0.000000000   0.00000   0.00013   0.00033   0.00017
 4 82   24103.3    414.9   0.000000000   0.00000   0.00016   0.00035   0.00002
 4 83   24202.8    413.2   0.000000002   0.00000   0.00024   0.00102   0.00004
 4 84   24282.7    411.8   0.000000001   0.00000   0.00013   0.00022   0.00070
 4 85   24339.9    410.8   0.000000002   0.00000   0.00002   0.00078   0.00056
 4 86   24384.7    410.1   0.000000005   0.00000   0.00031   0.00118   0.00120
 4 87   24403.8    409.8   0.000000000   0.00000   0.00029   0.00022   0.00013
 4 88   24421.9    409.5   0.000000001   0.00000   0.00010   0.00011   0.00059
 4 89   24540.4    407.5   0.000000000   0.00000   0.00017   0.00010   0.00009
 4 90   24573.2    406.9   0.000000001   0.00000   0.00038   0.00006   0.00052
 4 91   24627.4    406.1   0.000000000   0.00000   0.00004   0.00010   0.00007
 4 92   24766.4    403.8   0.000000000   0.00000   0.00024   0.00010   0.00018
 4 93   24874.7    402.0   0.000000001   0.00000   0.00047   0.00006   0.00028
 4 94   24903.2    401.6   0.000000001   0.00000   0.00016   0.00016   0.00073
 4 95   24961.5    400.6   0.000000001   0.00000   0.00011   0.00023   0.00050
 4 96   24965.1    400.6   0.000000000   0.00000   0.00012   0.00017   0.00033
 4 97   25069.7    398.9   0.000000005   0.00000   0.00018   0.00102   0.00122
 4 98   25198.4    396.9   0.000000001   0.00000   0.00022   0.00047   0.00016
 4 99   25244.0    396.1   0.000000001   0.00000   0.00002   0.00069   0.00019
 4 100   26214.7    381.5   0.000000000   0.00000   0.00036   0.00007   0.00017
 4 101   26217.2    381.4   0.000000001   0.00000   0.00026   0.00066   0.00008
 4 102   26416.8    378.5   0.000000000   0.00000   0.00011   0.00014   0.00001
 4 103   26636.0    375.4   0.000000000   0.00000   0.00001   0.00010   0.00002
 4 104   26790.8    373.3   0.000000000   0.00000   0.00019   0.00021   0.00019
 4 105   26820.9    372.8   0.000000000   0.00000   0.00001   0.00037   0.00019
 4 106   27038.5    369.8   0.000000001   0.00000   0.00033   0.00001   0.00043
 4 107   27079.6    369.3   0.000000000   0.00000   0.00026   0.00007   0.00009
 4 108   27100.4    369.0   0.000000000   0.00000   0.00014   0.00011   0.00028
 4 109   27160.2    368.2   0.000000000   0.00000   0.00006   0.00015   0.00030
 4 110   27166.2    368.1   0.000000001   0.00000   0.00008   0.00013   0.00049
 4 111   27454.7    364.2   0.000000001   0.00000   0.00024   0.00037   0.00039
 4 112   27589.4    362.5   0.000000001   0.00000   0.00042   0.00028   0.00005
 4 113   27646.5    361.7   0.000000001   0.00000   0.00040   0.00010   0.00052
 4 114   27743.2    360.4   0.000000000   0.00000   0.00014   0.00003   0.00002
 4 115   29671.6    337.0   0.000000000   0.00000   0.00009   0.00002   0.00041
 4 116   29672.1    337.0   0.000000002   0.00000   0.00051   0.00035   0.00067
 4 117   29676.1    337.0   0.000000000   0.00000   0.00012   0.00001   0.00012
 4 118   31082.1    321.7   0.000000000   0.00000   0.00007   0.00026   0.00028
 4 119   31088.4    321.7   0.000000000   0.00000   0.00004   0.00032   0.00025
 4 120   31091.5    321.6   0.000000001   0.00000   0.00010   0.00063   0.00012
 4 121   31460.7    317.9   0.000000000   0.00000   0.00017   0.00000   0.00029
 4 122   31463.4    317.8   0.000000001   0.00000   0.00010   0.00009   0.00046
 4 123   31480.0    317.7   0.000000000   0.00000   0.00027   0.00009   0.00012
 4 124   31711.6    315.3   0.000000000   0.00000   0.00003   0.00004   0.00001
 4 125   31724.4    315.2   0.000000000   0.00000   0.00018   0.00011   0.00011
 4 126   31726.9    315.2   0.000000000   0.00000   0.00024   0.00014   0.00024
 4 127   32426.8    308.4   0.000000003   0.00000   0.00073   0.00036   0.00072
 4 128   32428.0    308.4   0.000000000   0.00000   0.00009   0.00008   0.00027
 4 129   32430.5    308.4   0.000000000   0.00000   0.00011   0.00005   0.00019
 4 130   46528.5    214.9   0.000000001   0.00000   0.00018   0.00041   0.00003
 4 131   46546.3    214.8   0.000000001   0.00000   0.00043   0.00015   0.00006
 4 132   46551.4    214.8   0.000000000   0.00000   0.00005   0.00015   0.00013
 4 133   47311.6    211.4   0.000000000   0.00000   0.00001   0.00008   0.00014
 4 134   47312.4    211.4   0.000000000   0.00000   0.00015   0.00002   0.00009
 4 135   47321.3    211.3   0.000000000   0.00000   0.00018   0.00009   0.00004
 4 136   48266.3    207.2   0.000000000   0.00000   0.00006   0.00005   0.00004
 4 137   48290.4    207.1   0.000000000   0.00000   0.00009   0.00006   0.00023
 4 138   48307.8    207.0   0.000000001   0.00000   0.00007   0.00039   0.00021
 4 139   48601.8    205.8   0.000000001   0.00000   0.00040   0.00031   0.00031
 4 140   48613.3    205.7   0.000000001   0.00000   0.00028   0.00026   0.00031
 4 141   48618.0    205.7   0.000000000   0.00000   0.00004   0.00016   0.00006
 4 142   48885.9    204.6   0.000000003   0.00000   0.00027   0.00081   0.00003
 4 143   48888.0    204.5   0.000000001   0.00000   0.00019   0.00015   0.00035
 4 144   48898.1    204.5   0.000000001   0.00000   0.00020   0.00011   0.00046
 4 145   49483.3    202.1   0.000000000   0.00000   0.00012   0.00010   0.00025
 4 146   49490.1    202.1   0.000000000   0.00000   0.00015   0.00025   0.00012
 4 147   49499.1    202.0   0.000000001   0.00000   0.00005   0.00058   0.00015
 4 148   49715.2    201.1   0.000000001   0.00000   0.00030   0.00009   0.00023
 4 149   49725.3    201.1   0.000000001   0.00000   0.00021   0.00025   0.00018
 4 150   49807.8    200.8   0.000000000   0.00000   0.00009   0.00002   0.00008
 4 151   49839.8    200.6   0.000000000   0.00000   0.00020   0.00002   0.00010
 4 152   49846.9    200.6   0.000000001   0.00000   0.00022   0.00026   0.00034
 4 153   49849.4    200.6   0.000000001   0.00000   0.00048   0.00019   0.00013
 4 154   50332.6    198.7   0.000000000   0.00000   0.00001   0.00004   0.00001
 4 155   50473.3    198.1   0.000000000   0.00000   0.00012   0.00010   0.00008
 4 156   50486.2    198.1   0.000000000   0.00000   0.00023   0.00013   0.00001
 4 157   51598.5    193.8   0.000000001   0.00000   0.00025   0.00032   0.00003
 4 158   51613.8    193.7   0.000000000   0.00000   0.00008   0.00009   0.00028
 4 159   51648.0    193.6   0.000000000   0.00000   0.00004   0.00011   0.00003

------------------------------------------------------------------------------
                           SOC CORRECTED DIPOLE MOMENTS
------------------------------------------------------------------------------
      TX        TY        TZ           |T|
   (Debye)   (Debye)   (Debye)      (Debye)
------------------------------------------------------------------------------
  12.33609 -46.28662  57.72709     75.01364

--------------
CASSCF TIMINGS
--------------

Total time                       ...     8933.3 sec
Sum of individual times          ...     8947.2 sec (100.2%)

Calculation of AO operators
   F(Core) operator              ...       73.7 sec (  0.8%)
   G(Act) operator               ...       61.6 sec (  0.7%)
   J(AO) operators               ...        0.0 sec (  0.0%)
Calculation of MO transformed quantities
   J(MO) operators               ...        5.8 sec (  0.1%)
   (pq|rs) integrals             ...        0.0 sec (  0.0%)
   AO->MO one electron integrals ...        0.2 sec (  0.0%)
Configuration interaction steps
   CI-setup phase                ...        0.0 sec (  0.0%)
   CI-solution phase             ...        0.1 sec (  0.0%)
   Generation of densities       ...        0.0 sec (  0.0%)
Orbital improvement steps
   Orbital gradient              ...        0.2 sec (  0.0%)
PT2 
   NEVPT2 time                   ...     8753.2 sec ( 98.0%)
Properties                       ...       28.2 sec (  0.3%)
   SOC integral calculation      ...       24.0 sec (  0.3%)
   SSC RMEs (incl. integrals)    ...        0.0 sec (  0.0%)
   SOC RMEs                      ...        0.1 sec (  0.0%)

Maximum memory used throughout the entire CASSCF-calculation: 1136.7 MB

-------------------------   --------------------
FINAL SINGLE POINT ENERGY     -2886.142472207096
-------------------------   --------------------


                            ***************************************
                            *     ORCA property calculations      *
                            ***************************************

                                    ---------------------
                                    Active property flags
                                    ---------------------
   (+) Dipole Moment


------------------------------------------------------------------------------
                       ORCA ELECTRIC PROPERTIES CALCULATION
------------------------------------------------------------------------------

Dipole Moment Calculation                       ... on
Quadrupole Moment Calculation                   ... off
Polarizability Calculation                      ... off
GBWName                                         ... nevpt2.gbw
Electron density                                ... nevpt2.scfp
The origin for moment calculation is the CENTER OF MASS  = (12.785465, 16.256603 11.051968)

-------------
DIPOLE MOMENT
-------------
                                X             Y             Z
Electronic contribution:     -4.92920      18.36562     -22.54540
Nuclear contribution   :      4.85410     -18.21001      22.71174
                        -----------------------------------------
Total Dipole Moment    :     -0.07511       0.15561       0.16634
                        -----------------------------------------
Magnitude (a.u.)       :      0.23985
Magnitude (Debye)      :      0.60964



--------------------
Rotational spectrum 
--------------------
 
Rotational constants in cm-1:     0.001597     0.001248     0.001082 
Rotational constants in MHz :    47.876720    37.425027    32.435478 

 Dipole components along the rotational axes: 
x,y,z [a.u.] :     0.004487    -0.179455    -0.159065 
x,y,z [Debye]:     0.011405    -0.456139    -0.404312 

 

Timings for individual modules:

Sum of individual times         ...     8962.456 sec (= 149.374 min)
GTO integral calculation        ...       16.733 sec (=   0.279 min)   0.2 %
SCF iterations                  ...        7.959 sec (=   0.133 min)   0.1 %
CASSCF iterations               ...     8937.764 sec (= 148.963 min)  99.7 %
                             ****ORCA TERMINATED NORMALLY****
TOTAL RUN TIME: 0 days 2 hours 29 minutes 24 seconds 457 msec
