
                                 *****************
                                 * O   R   C   A *
                                 *****************

                                            #,                                       
                                            ###                                      
                                            ####                                     
                                            #####                                    
                                            ######                                   
                                           ########,                                 
                                     ,,################,,,,,                         
                               ,,#################################,,                 
                          ,,##########################################,,             
                       ,#########################################, ''#####,          
                    ,#############################################,,   '####,        
                  ,##################################################,,,,####,       
                ,###########''''           ''''###############################       
              ,#####''   ,,,,##########,,,,          '''####'''          '####       
            ,##' ,,,,###########################,,,                        '##       
           ' ,,###''''                  '''############,,,                           
         ,,##''                                '''############,,,,        ,,,,,,###''
      ,#''                                            '''#######################'''  
     '                                                          ''''####''''         
             ,#######,   #######,   ,#######,      ##                                
            ,#'     '#,  ##    ##  ,#'     '#,    #''#        ######   ,####,        
            ##       ##  ##   ,#'  ##            #'  '#       #        #'  '#        
            ##       ##  #######   ##           ,######,      #####,   #    #        
            '#,     ,#'  ##    ##  '#,     ,#' ,#      #,         ##   #,  ,#        
             '#######'   ##     ##  '#######'  #'      '#     #####' # '####'        



                  #######################################################
                  #                        -***-                        #
                  #          Department of theory and spectroscopy      #
                  #    Directorship and core code : Frank Neese         #
                  #        Max Planck Institute fuer Kohlenforschung    #
                  #                Kaiser Wilhelm Platz 1               #
                  #                 D-45470 Muelheim/Ruhr               #
                  #                      Germany                        #
                  #                                                     #
                  #                  All rights reserved                #
                  #                        -***-                        #
                  #######################################################


                         Program Version 5.0.3 -  RELEASE  -


 With contributions from (in alphabetic order):
   Daniel Aravena         : Magnetic Suceptibility
   Michael Atanasov       : Ab Initio Ligand Field Theory (pilot matlab implementation)
   Alexander A. Auer      : GIAO ZORA, VPT2 properties, NMR spectrum
   Ute Becker             : Parallelization
   Giovanni Bistoni       : ED, misc. LED, open-shell LED, HFLD
   Martin Brehm           : Molecular dynamics
   Dmytro Bykov           : SCF Hessian
   Vijay G. Chilkuri      : MRCI spin determinant printing, contributions to CSF-ICE
   Dipayan Datta          : RHF DLPNO-CCSD density
   Achintya Kumar Dutta   : EOM-CC, STEOM-CC
   Dmitry Ganyushin       : Spin-Orbit,Spin-Spin,Magnetic field MRCI
   Miquel Garcia          : C-PCM and meta-GGA Hessian, CC/C-PCM, Gaussian charge scheme
   Yang Guo               : DLPNO-NEVPT2, F12-NEVPT2, CIM, IAO-localization
   Andreas Hansen         : Spin unrestricted coupled pair/coupled cluster methods
   Benjamin Helmich-Paris : MC-RPA, TRAH-SCF, COSX integrals
   Lee Huntington         : MR-EOM, pCC
   Robert Izsak           : Overlap fitted RIJCOSX, COSX-SCS-MP3, EOM
   Marcus Kettner         : VPT2
   Christian Kollmar      : KDIIS, OOCD, Brueckner-CCSD(T), CCSD density, CASPT2, CASPT2-K
   Simone Kossmann        : Meta GGA functionals, TD-DFT gradient, OOMP2, MP2 Hessian
   Martin Krupicka        : Initial AUTO-CI
   Lucas Lang             : DCDCAS
   Marvin Lechner         : AUTO-CI (C++ implementation), FIC-MRCC
   Dagmar Lenk            : GEPOL surface, SMD
   Dimitrios Liakos       : Extrapolation schemes; Compound Job, initial MDCI parallelization
   Dimitrios Manganas     : Further ROCIS development; embedding schemes
   Dimitrios Pantazis     : SARC Basis sets
   Anastasios Papadopoulos: AUTO-CI, single reference methods and gradients
   Taras Petrenko         : DFT Hessian,TD-DFT gradient, ASA, ECA, R-Raman, ABS, FL, XAS/XES, NRVS
   Peter Pinski           : DLPNO-MP2, DLPNO-MP2 Gradient
   Christoph Reimann      : Effective Core Potentials
   Marius Retegan         : Local ZFS, SOC
   Christoph Riplinger    : Optimizer, TS searches, QM/MM, DLPNO-CCSD(T), (RO)-DLPNO pert. Triples
   Tobias Risthaus        : Range-separated hybrids, TD-DFT gradient, RPA, STAB
   Michael Roemelt        : Original ROCIS implementation
   Masaaki Saitow         : Open-shell DLPNO-CCSD energy and density
   Barbara Sandhoefer     : DKH picture change effects
   Avijit Sen             : IP-ROCIS
   Kantharuban Sivalingam : CASSCF convergence, NEVPT2, FIC-MRCI
   Bernardo de Souza      : ESD, SOC TD-DFT
   Georgi Stoychev        : AutoAux, RI-MP2 NMR, DLPNO-MP2 response
   Willem Van den Heuvel  : Paramagnetic NMR
   Boris Wezisla          : Elementary symmetry handling
   Frank Wennmohs         : Technical directorship


 We gratefully acknowledge several colleagues who have allowed us to
 interface, adapt or use parts of their codes:
   Stefan Grimme, W. Hujo, H. Kruse, P. Pracht,  : VdW corrections, initial TS optimization,
                  C. Bannwarth, S. Ehlert          DFT functionals, gCP, sTDA/sTD-DF
   Ed Valeev, F. Pavosevic, A. Kumar             : LibInt (2-el integral package), F12 methods
   Garnet Chan, S. Sharma, J. Yang, R. Olivares  : DMRG
   Ulf Ekstrom                                   : XCFun DFT Library
   Mihaly Kallay                                 : mrcc  (arbitrary order and MRCC methods)
   Jiri Pittner, Ondrej Demel                    : Mk-CCSD
   Frank Weinhold                                : gennbo (NPA and NBO analysis)
   Christopher J. Cramer and Donald G. Truhlar   : smd solvation model
   Lars Goerigk                                  : TD-DFT with DH, B97 family of functionals
   V. Asgeirsson, H. Jonsson                     : NEB implementation
   FAccTs GmbH                                   : IRC, NEB, NEB-TS, DLPNO-Multilevel, CI-OPT
                                                   MM, QMMM, 2- and 3-layer-ONIOM, Crystal-QMMM,
                                                   LR-CPCM, SF, NACMEs, symmetry and pop. for TD-DFT,
                                                   nearIR, NL-DFT gradient (VV10), updates on ESD,
                                                   ML-optimized integration grids
   S Lehtola, MJT Oliveira, MAL Marques          : LibXC Library
   Liviu Ungur et al                             : ANISO software


 Your calculation uses the libint2 library for the computation of 2-el integrals
 For citations please refer to: http://libint.valeyev.net

 Your ORCA version has been built with support for libXC version: 5.1.0
 For citations please refer to: https://tddft.org/programs/libxc/

 This ORCA versions uses:
   CBLAS   interface :  Fast vector & matrix operations
   LAPACKE interface :  Fast linear algebra routines
   SCALAPACK package :  Parallel linear algebra routines
   Shared memory     :  Shared parallel matrices
   BLAS/LAPACK       :  OpenBLAS 0.3.15  USE64BITINT DYNAMIC_ARCH NO_AFFINITY Sandybridge SINGLE_THREADED
        Core in use  :  Sandybridge
   Copyright (c) 2011-2014, The OpenBLAS Project




***************************************
The coordinates will be read from file: pbe.xyz
***************************************


================================================================================

cite the ECPs for Au [Def2-ECP] as follows:
Ce-Yb(ecp-28): M. Dolg, H. Stoll, H.Preuss, J. Chem. Phys., 1989, 90, 1730-1734.
Y-Cd(ecp-28), Hf-Hg(ecp-46): D. Andrae,U. Haeussermann, M. Dolg, H. Stoll, H. Preuss, Theor. Chim. Acta, 1990, 77, 123-141.
In-Sb(ecp-28), Tl-Bi(ecp-46): B. Metz, H. Stoll, M. Dolg, J. Chem. Phys., 2000, 113, 2563-2569.
Te-Xe(ecp-28), Po-Rn(ecp-46): K. A. Peterson, D. Figgen, E. Goll, H. Stoll, M. Dolg, J. Chem. Phys., 2003, 119, 11113-11123.
Rb(ecp-28), Cs(ecp-46): T. Leininger, A. Nicklass, W. Kuechle, H. Stoll, M. Dolg, A. Bergner, Chem. Phys. Lett., 1996, 255, 274-280.
Sr(ecp-28), Ba(ecp-46): M. Kaupp, P. V. Schleyer, H. Stoll and H. Preuss, J. Chem. Phys., 1991, 94, 1360-1366.
La(ecp-46): M. Dolg, H. Stoll, A. Savin, H. Preuss, Theor. Chim. Acta, 1989, 75, 173-194.
Lu(ecp-28): X. Cao, M. Dolg, J. Chem. Phys., 2001, 115, 7348-7355.

ECP parameters for Au [Def2-ECP] have been obtained from:
TURBOMOLE (7.0.2)

----- Orbital basis set information -----
Your calculation utilizes the basis: def2-TZVP
   F. Weigend and R. Ahlrichs, Phys. Chem. Chem. Phys. 7, 3297 (2005).

----- AuxJ basis set information -----
Your calculation utilizes the auxiliary basis: def2/J
   F. Weigend, Phys. Chem. Chem. Phys. 8, 1057 (2006).

----- AuxC basis set information -----
Your calculation utilizes the auxiliary basis: def2-TZVP/C
  H-La, Hf-Rn : A. Hellweg, C. Hattig, S. Hofener and W. Klopper, Theor. Chem. Acc. 117, 587 (2007).
        Ce-Lu : J. Chmela and M. E. Harding, Mol. Phys. (2018).

================================================================================
                                        WARNINGS
                       Please study these warnings very carefully!
================================================================================


INFO   : the flag for use of the SHARK integral package has been found!

================================================================================
                                       INPUT FILE
================================================================================
NAME = casscf.inp
|  1> !CASSCF def2-TZVP def2-TZVP/C
|  2> !MOREAD RIJCOSX
|  3> %maxcore 6000
|  4> %moinp "pbe.qro"
|  5> %pal nprocs 16 end 
|  6> 
|  7> %casscf
|  8>  mult 6,4
|  9>  bweight 1,1
| 10>  nroots 1,24
| 11>  nel 5
| 12>  norb 5
| 13> end
| 14> 
| 15> 
| 16> *xyzfile 0 6 pbe.xyz
| 17> 
| 18> 
| 19>                          ****END OF INPUT****
================================================================================

                       ****************************
                       * Single Point Calculation *
                       ****************************

---------------------------------
CARTESIAN COORDINATES (ANGSTROEM)
---------------------------------
  Au     8.281853    7.693476   11.644014
  Au     7.823278    5.385492   10.426492
  Au     9.416817    7.451548    9.089886
  Au     7.348300    3.450184    8.763401
  Au     6.493577    7.822642    9.484179
  Au     6.205781    8.248715    6.919426
  Au     7.035865    3.928219    6.032678
  Au     9.121892    7.874378    6.524669
  Au     7.199918    6.294156    4.974315
  Au     7.468873    8.887958    4.496057
  Mn     7.532459    5.983388    7.726340

----------------------------
CARTESIAN COORDINATES (A.U.)
----------------------------
  NO LB      ZA    FRAG     MASS         X           Y           Z
   0 Au   19.0000*   0   196.966   15.650434   14.538562   22.003998
   1 Au   19.0000*   0   196.966   14.783853   10.177105   19.703214
   2 Au   19.0000*   0   196.966   17.795204   14.081386   17.177395
   3 Au   19.0000*   0   196.966   13.886275    6.519902   16.560429
   4 Au   19.0000*   0   196.966   12.271083   14.782652   17.922502
   5 Au   19.0000*   0   196.966   11.727227   15.587813   13.075820
   6 Au   19.0000*   0   196.966   13.295857    7.423258   11.400109
   7 Au   19.0000*   0   196.966   17.237878   14.880418   12.329837
   8 Au   19.0000*   0   196.966   13.605873   11.894231    9.400093
   9 Au   19.0000*   0   196.966   14.114125   16.795807    8.496316
  10 Mn   25.0000    0    54.940   14.234286   11.306964   14.600667
* core charge reduced due to ECP

--------------------------------
INTERNAL COORDINATES (ANGSTROEM)
--------------------------------
 Au     0   0   0     0.000000000000     0.00000000     0.00000000
 Au     1   0   0     2.649422500108     0.00000000     0.00000000
 Au     1   2   0     2.805395145228    64.94537044     0.00000000
 Au     2   1   3     2.595552623345   167.33223141   323.86688650
 Au     1   2   3     2.807044546465    64.92722794    71.57393727
 Au     5   1   2     2.615783812643   146.30579388   267.16494894
 Au     4   2   1     2.789800074506   121.32610553     0.30081798
 Au     3   1   2     2.616506100849   146.41341100    92.68924688
 Au     7   4   2     2.597056559542   123.22457292     0.16344430
 Au     9   7   4     2.651203469250   166.21714929   359.59487558
 Mn     7   4   2     2.709024936763    59.83515985     0.05069703

---------------------------
INTERNAL COORDINATES (A.U.)
---------------------------
 Au     0   0   0     0.000000000000     0.00000000     0.00000000
 Au     1   0   0     5.006682938253     0.00000000     0.00000000
 Au     1   2   0     5.301428521912    64.94537044     0.00000000
 Au     2   1   3     4.904883624303   167.33223141   323.86688650
 Au     1   2   3     5.304545438536    64.92722794    71.57393727
 Au     5   1   2     4.943115031439   146.30579388   267.16494894
 Au     4   2   1     5.271958109210   121.32610553     0.30081798
 Au     3   1   2     4.944479958339   146.41341100    92.68924688
 Au     7   4   2     4.907725651838   123.22457292     0.16344430
 Au     9   7   4     5.010048482184   166.21714929   359.59487558
 Mn     7   4   2     5.119315220445    59.83515985     0.05069703

---------------------
BASIS SET INFORMATION
---------------------
There are 2 groups of distinct atoms

 Group   1 Type Au  : 8s7p6d1f contracted to 6s4p3d1f pattern {311111/4111/411/1}
 Group   2 Type Mn  : 17s11p7d1f contracted to 6s4p4d1f pattern {842111/6311/4111/1}

Atom   0Au   basis set group =>   1
Atom   1Au   basis set group =>   1
Atom   2Au   basis set group =>   1
Atom   3Au   basis set group =>   1
Atom   4Au   basis set group =>   1
Atom   5Au   basis set group =>   1
Atom   6Au   basis set group =>   1
Atom   7Au   basis set group =>   1
Atom   8Au   basis set group =>   1
Atom   9Au   basis set group =>   1
Atom  10Mn   basis set group =>   2
---------------------------------
AUXILIARY/J BASIS SET INFORMATION
---------------------------------
There are 2 groups of distinct atoms

 Group   1 Type Au  : 11s5p5d3f3g contracted to 8s5p5d2f3g pattern {41111111/11111/11111/21/111}
 Group   2 Type Mn  : 19s5p5d3f3g contracted to 8s5p5d2f3g pattern {121111111/11111/11111/21/111}

Atom   0Au   basis set group =>   1
Atom   1Au   basis set group =>   1
Atom   2Au   basis set group =>   1
Atom   3Au   basis set group =>   1
Atom   4Au   basis set group =>   1
Atom   5Au   basis set group =>   1
Atom   6Au   basis set group =>   1
Atom   7Au   basis set group =>   1
Atom   8Au   basis set group =>   1
Atom   9Au   basis set group =>   1
Atom  10Mn   basis set group =>   2
---------------------------------
AUXILIARY/C BASIS SET INFORMATION
---------------------------------
There are 2 groups of distinct atoms

 Group   1 Type Au  : 8s8p7d5f3g2h contracted to 8s8p7d5f3g2h pattern {11111111/11111111/1111111/11111/111/11}
 Group   2 Type Mn  : 11s9p8d6f5g2h contracted to 9s8p8d6f5g2h pattern {311111111/21111111/11111111/111111/11111/11}

Atom   0Au   basis set group =>   1
Atom   1Au   basis set group =>   1
Atom   2Au   basis set group =>   1
Atom   3Au   basis set group =>   1
Atom   4Au   basis set group =>   1
Atom   5Au   basis set group =>   1
Atom   6Au   basis set group =>   1
Atom   7Au   basis set group =>   1
Atom   8Au   basis set group =>   1
Atom   9Au   basis set group =>   1
Atom  10Mn   basis set group =>   2
-------------------------
ECP PARAMETER INFORMATION
-------------------------

 Group 1, Type Au ECP Def2-ECP (replacing 60 core electrons, lmax=3)

Atom   0Au   ECP group =>   1
Atom   1Au   ECP group =>   1
Atom   2Au   ECP group =>   1
Atom   3Au   ECP group =>   1
Atom   4Au   ECP group =>   1
Atom   5Au   ECP group =>   1
Atom   6Au   ECP group =>   1
Atom   7Au   ECP group =>   1
Atom   8Au   ECP group =>   1
Atom   9Au   ECP group =>   1



           ************************************************************
           *        Program running with 16 parallel MPI-processes    *
           *              working on a common directory               *
           ************************************************************
------------------------------------------------------------------------------
                           ORCA GTO INTEGRAL CALCULATION
                           -- RI-GTO INTEGRALS CHOSEN --
------------------------------------------------------------------------------
------------------------------------------------------------------------------
                   ___                                                        
                  /   \      - P O W E R E D   B Y -                         
                 /     \                                                     
                 |  |  |   _    _      __       _____    __    __             
                 |  |  |  | |  | |    /  \     |  _  \  |  |  /  |          
                  \  \/   | |  | |   /    \    | | | |  |  | /  /          
                 / \  \   | |__| |  /  /\  \   | |_| |  |  |/  /          
                |  |  |   |  __  | /  /__\  \  |    /   |      \           
                |  |  |   | |  | | |   __   |  |    \   |  |\   \          
                \     /   | |  | | |  |  |  |  | |\  \  |  | \   \       
                 \___/    |_|  |_| |__|  |__|  |_| \__\ |__|  \__/        
                                                                              
                      - O R C A' S   B I G   F R I E N D -                    
                                      &                                       
                       - I N T E G R A L  F E E D E R -                       
                                                                              
 v1 FN, 2020, v2 2021                                                         
------------------------------------------------------------------------------


Reading SHARK input file casscf.SHARKINP.tmp ... ok
----------------------
SHARK INTEGRAL PACKAGE
----------------------

Number of atoms                             ...     11
Number of basis functions                   ...    445
Number of shells                            ...    155
Maximum angular momentum                    ...      3
Integral batch strategy                     ... SHARK/LIBINT Hybrid
RI-J (if used) integral strategy            ... SPLIT-RIJ (Revised 2003 algorithm where possible)
Printlevel                                  ...      1
Contraction scheme used                     ... SEGMENTED contraction
Coulomb Range Separation                    ... NOT USED
Exchange Range Separation                   ... NOT USED
Finite Nucleus Model                        ... NOT USED
Auxiliary Coulomb fitting basis             ... AVAILABLE
   # of basis functions in Aux-J            ...    979
   # of shells in Aux-J                     ...    253
   Maximum angular momentum in Aux-J        ...      4
Auxiliary J/K fitting basis                 ... NOT available
Auxiliary Correlation fitting basis         ... AVAILABLE
   # of basis functions in Aux-C            ...   1692
   # of shells in Aux-C                     ...    368
   Maximum angular momentum in Aux-C        ...      5
Auxiliary 'external' fitting basis          ... NOT available
Integral threshold                          ...     1.000000e-10
Primitive cut-off                           ...     1.000000e-11
Primitive pair pre-selection threshold      ...     1.000000e-11

Calculating pre-screening integrals         ... done (  0.1 sec) Dimension = 155
Organizing shell pair data                  ... done (  0.2 sec)
Shell pair information
Total number of shell pairs                 ...     12090
Shell pairs after pre-screening             ...      9676
Total number of primitive shell pairs       ...     33105
Primitive shell pairs kept                  ...     19432
          la=0 lb=0:   1535 shell pairs
          la=1 lb=0:   2198 shell pairs
          la=1 lb=1:    837 shell pairs
          la=2 lb=0:   1916 shell pairs
          la=2 lb=1:   1358 shell pairs
          la=2 lb=2:    561 shell pairs
          la=3 lb=0:    510 shell pairs
          la=3 lb=1:    382 shell pairs
          la=3 lb=2:    328 shell pairs
          la=3 lb=3:     51 shell pairs

Calculating one electron integrals          ... done (  0.0 sec)
Calculating ECP integrals                   ... done (  4.8 sec)
Calculating RI/J V-Matrix + Cholesky decomp.... done (  0.1 sec)
Calculating RI/C V-Matrix + Cholesky decomp.... done (  0.2 sec)
Calculating Nuclear repulsion               ... done (  0.0 sec) ENN=   3057.469587505664 Eh

SHARK setup successfully completed in   5.6 seconds

Maximum memory used throughout the entire GTOINT-calculation: 29.6 MB


           ************************************************************
           *        Program running with 16 parallel MPI-processes    *
           *              working on a common directory               *
           ************************************************************
-------------------------------------------------------------------------------
                                 ORCA SCF
-------------------------------------------------------------------------------

------------
SCF SETTINGS
------------
Hamiltonian:
 Ab initio Hamiltonian  Method          .... Hartree-Fock(GTOs)
 RI-approximation to the Coulomb term is turned on
   Number of AuxJ basis functions       .... 979
   RIJ-COSX (HFX calculated with COS-X)).... on


General Settings:
 Integral files         IntName         .... casscf
 Hartree-Fock type      HFTyp           .... CASSCF
 Total Charge           Charge          ....    0
 Multiplicity           Mult            ....    6
 Number of Electrons    NEL             ....  215
 Basis Dimension        Dim             ....  445
 Nuclear Repulsion      ENuc            ....   3057.4695875057 Eh


Diagonalization of the overlap matrix:
Smallest eigenvalue                        ... 6.733e-04
Time for diagonalization                   ...    0.050 sec
Threshold for overlap eigenvalues          ... 1.000e-08
Number of eigenvalues below threshold      ... 0
Time for construction of square roots      ...    0.034 sec
Total time needed                          ...    0.086 sec

---------------------
INITIAL GUESS: MOREAD
---------------------
Guess MOs are being read from file: pbe.qro
Input Geometry matches current geometry (good)
Input basis set matches current basis set (good)
MOs were renormalized
Gram-Schmidt orthogonalization of all MOs with pivot on actives
                      ------------------
                      INITIAL GUESS DONE (   1.1 sec)
                      ------------------
--------------------
COSX GRID GENERATION
--------------------

GRIDX 1
-------
General Integration Accuracy     IntAcc      ... 3.816
Radial Grid Type                 RadialGrid  ... OptM3 with GC (2021)
Angular Grid (max. ang.)         AngularGrid ... 1 (Lebedev-50)
Angular grid pruning method      GridPruning ... 4 (adaptive)
Weight generation scheme         WeightScheme... Becke
Basis function cutoff            BFCut       ... 1.0000e-10
Integration weight cutoff        WCut        ... 1.0000e-14
Angular grids for H and He will be reduced by one unit
Partially contracted basis set               ... on
Rotationally invariant grid construction     ... off

Total number of grid points                  ...    13070
Total number of batches                      ...      211
Average number of points per batch           ...       61
Average number of grid points per atom       ...     1188
UseSFitting                                  ... on

GRIDX 2
-------
General Integration Accuracy     IntAcc      ... 4.020
Radial Grid Type                 RadialGrid  ... OptM3 with GC (2021)
Angular Grid (max. ang.)         AngularGrid ... 2 (Lebedev-110)
Angular grid pruning method      GridPruning ... 4 (adaptive)
Weight generation scheme         WeightScheme... Becke
Basis function cutoff            BFCut       ... 1.0000e-10
Integration weight cutoff        WCut        ... 1.0000e-14
Angular grids for H and He will be reduced by one unit
Partially contracted basis set               ... on
Rotationally invariant grid construction     ... off

Total number of grid points                  ...    39522
Total number of batches                      ...      624
Average number of points per batch           ...       63
Average number of grid points per atom       ...     3593
UseSFitting                                  ... on

GRIDX 3
-------
General Integration Accuracy     IntAcc      ... 4.338
Radial Grid Type                 RadialGrid  ... OptM3 with GC (2021)
Angular Grid (max. ang.)         AngularGrid ... 3 (Lebedev-194)
Angular grid pruning method      GridPruning ... 4 (adaptive)
Weight generation scheme         WeightScheme... Becke
Basis function cutoff            BFCut       ... 1.0000e-10
Integration weight cutoff        WCut        ... 1.0000e-14
Angular grids for H and He will be reduced by one unit
Partially contracted basis set               ... on
Rotationally invariant grid construction     ... off

Total number of grid points                  ...    72807
Total number of batches                      ...     1141
Average number of points per batch           ...       63
Average number of grid points per atom       ...     6619
UseSFitting                                  ... on

Time for X-Grid setup             =    0.809 sec



 ... the calculation is a CASSCF calculation -I'm leaving here GOOD LUCK!!!



           ************************************************************
           *        Program running with 16 parallel MPI-processes    *
           *              working on a common directory               *
           ************************************************************
-------------------------------------------------------------------------------
                              ORCA-CASSCF
-------------------------------------------------------------------------------

Setting up the integral package       ... done
Setting up the integral package (RI)  ... done
Building the CAS space                ... done (1 configurations for Mult=6)
Building the CAS space                ... done (21 configurations for Mult=4)

SYSTEM-SPECIFIC SETTINGS:
Number of active electrons          ...    5
Number of active orbitals           ...    5
Total number of electrons           ...  215
Total number of orbitals            ...  445
Total number aux. functions         ... 1692

Determined orbital ranges:
   Internal       0 -  104 ( 105 orbitals)
   Active       105 -  109 (   5 orbitals)
   External     110 -  444 ( 335 orbitals)
Number of rotation parameters      ...  37375

CI-STEP:
CI strategy                         ... General CI
Number of multiplicity blocks       ...    2
BLOCK  1 WEIGHT=   0.5000
  Multiplicity                      ...    6
  #(Configurations)                 ...    1
  #(CSFs)                           ...    1
  #(Roots)                          ...    1
    ROOT=0 WEIGHT=    0.500000

BLOCK  2 WEIGHT=   0.5000
  Multiplicity                      ...    4
  #(Configurations)                 ...   21
  #(CSFs)                           ...   24
  #(Roots)                          ...   24
    ROOT=0 WEIGHT=    0.020833
    ROOT=1 WEIGHT=    0.020833
    ROOT=2 WEIGHT=    0.020833
    ROOT=3 WEIGHT=    0.020833
    ROOT=4 WEIGHT=    0.020833
    ROOT=5 WEIGHT=    0.020833
    ROOT=6 WEIGHT=    0.020833
    ROOT=7 WEIGHT=    0.020833
    ROOT=8 WEIGHT=    0.020833
    ROOT=9 WEIGHT=    0.020833
    ROOT=10 WEIGHT=    0.020833
    ROOT=11 WEIGHT=    0.020833
    ROOT=12 WEIGHT=    0.020833
    ROOT=13 WEIGHT=    0.020833
    ROOT=14 WEIGHT=    0.020833
    ROOT=15 WEIGHT=    0.020833
    ROOT=16 WEIGHT=    0.020833
    ROOT=17 WEIGHT=    0.020833
    ROOT=18 WEIGHT=    0.020833
    ROOT=19 WEIGHT=    0.020833
    ROOT=20 WEIGHT=    0.020833
    ROOT=21 WEIGHT=    0.020833
    ROOT=22 WEIGHT=    0.020833
    ROOT=23 WEIGHT=    0.020833

  PrintLevel                        ...    1
  N(GuessMat)                       ...       512
  MaxDim(CI)                        ...        10
  MaxIter(CI)                       ...        64
  Energy Tolerance CI               ...  1.00e-08
  Residual Tolerance CI             ...  1.00e-08
  Shift(CI)                         ...  1.00e-04

INTEGRAL-TRANSFORMATION-STEP:
  Algorithm                         ... RI-MO

ORBITAL-IMPROVEMENT-STEP:
  Algorithm                         ... SuperCI(PT)
  Default Parametrization           ... CAYLEY
  Act-Act rotations                 ... depends on algorithm used

  Note: SuperCI(PT) will ignore FreezeIE, FreezeAct and FreezeGrad. In general Default settings are encouraged.
        In conjunction with ShiftUp, ShiftDn or GradScaling the performance of SuperCI(PT) is less optimal.  

  MaxRot                            ... 2.00e-01 
  Max. no of vectors (DIIS)         ... 15
  DThresh (cut-off) metric          ... 1.00e-06
  Switch step at gradient           ...  3.00e-02 
  Switch step at iteration          ...        50   
  Switch step to                    ... SuperCI(PT)    

SCF-SETTINGS:
  Incremental                       ... off
  RIJCOSX approximation             ... on
  UseFinalGrid                      ... on
  RI-JK approximation               ... off
  AO integral handling              ... DIRECT
  Integral Neglect Thresh           ...  1.00e-10
  Primitive cutoff TCut             ...  1.00e-11
  Energy convergence tolerance      ...  1.00e-07
  Orbital gradient convergence      ...  1.00e-03
  Max. number of iterations         ...        75  


FINAL ORBITALS:
  Active   Orbitals                 ... natural 
  Internal Orbitals                 ... canonical 
  External Orbitals                 ... canonical 

------------------
CAS-SCF ITERATIONS
------------------


MACRO-ITERATION   1: 
   --- Inactive Energy E0 = -2488.66319151 Eh
CI-ITERATION   0: 
 -2497.659681180   0.000000000000 (    0.00)
   CI-PROBLEM SOLVED
   DENSITIES MADE
CI-ITERATION   0: 
 -2497.554104230   0.000000000000 (    0.00)
 -2497.553475344   0.000000000000
 -2497.550383549   0.000000000000
 -2497.550240972   0.000000000000
 -2497.548128884   0.000000000000
 -2497.548020742   0.000000000000
 -2497.547464470   0.000000000000
 -2497.547092799   0.000000000000
 -2497.546622800   0.000000000000
 -2497.535404658   0.000000000000
 -2497.530073376   0.000000000000
 -2497.529821787   0.000000000000
 -2497.524476006   0.000000000000
 -2497.523275611   0.000000000000
 -2497.522575635   0.000000000000
 -2497.519430713   0.000000000000
 -2497.518637325   0.000000000000
 -2497.478271438   0.000000000000
 -2497.477980861   0.000000000000
 -2497.473541863   0.000000000000
 -2497.472405602   0.000000000000
 -2497.470701094   0.000000000000
 -2497.470223864   0.000000000000
 -2497.469551197   0.000000000000
   CI-PROBLEM SOLVED
   DENSITIES MADE

                 <<<<<<<<<<<<<<<<<<INITIAL CI STATE CHECK>>>>>>>>>>>>>>>>>>

BLOCK  1 MULT= 6 NROOTS= 1 
ROOT   0:  E=   -2497.6596811799 Eh
      1.00000 [     0]: 11111

BLOCK  2 MULT= 4 NROOTS=24 
ROOT   0:  E=   -2497.5541042300 Eh
      0.65401 [     7]: 11210
      0.28790 [    13]: 11012
      0.02901 [     0]: 21110
      0.01315 [    10]: 11111
      0.01120 [    20]: 01112
      0.00362 [    15]: 10121
ROOT   1:  E=   -2497.5534753435 Eh  0.017 eV    138.0 cm**-1
      0.96546 [    10]: 11111
      0.01055 [     2]: 21011
      0.01026 [    18]: 01211
      0.00756 [     7]: 11210
      0.00555 [    13]: 11012
ROOT   2:  E=   -2497.5503835485 Eh  0.101 eV    816.6 cm**-1
      0.30518 [     4]: 12110
      0.25276 [     8]: 11201
      0.18377 [    12]: 11021
      0.15219 [    16]: 10112
      0.02473 [     1]: 21101
      0.02405 [    11]: 11102
      0.02378 [     9]: 11120
      0.01580 [     6]: 12011
      0.01213 [    14]: 10211
      0.00265 [    17]: 02111
ROOT   3:  E=   -2497.5502409725 Eh  0.105 eV    847.9 cm**-1
      0.28901 [     9]: 11120
      0.26234 [    11]: 11102
      0.16489 [     6]: 12011
      0.14235 [    14]: 10211
      0.03325 [    17]: 02111
      0.02825 [     4]: 12110
      0.02683 [     3]: 20111
      0.02104 [     8]: 11201
      0.01586 [    12]: 11021
      0.01478 [    16]: 10112
ROOT   4:  E=   -2497.5481288840 Eh  0.163 eV   1311.4 cm**-1
      0.39356 [     5]: 12101
      0.22355 [    15]: 10121
      0.20202 [     0]: 21110
      0.14740 [    20]: 01112
      0.02847 [    13]: 11012
      0.00426 [    10]: 11111
ROOT   5:  E=   -2497.5480207417 Eh  0.166 eV   1335.2 cm**-1
      0.86672 [    10]: 11111
      0.06841 [    18]: 01211
      0.06072 [     2]: 21011
ROOT   6:  E=   -2497.5474644699 Eh  0.181 eV   1457.3 cm**-1
      0.38271 [    17]: 02111
      0.28052 [     6]: 12011
      0.16956 [     3]: 20111
      0.10845 [    14]: 10211
      0.04535 [     9]: 11120
      0.00754 [    11]: 11102
ROOT   7:  E=   -2497.5470927985 Eh  0.191 eV   1538.8 cm**-1
      0.47776 [     1]: 21101
      0.45038 [    19]: 01121
      0.03607 [     4]: 12110
      0.02472 [    16]: 10112
      0.00339 [     8]: 11201
      0.00272 [    17]: 02111
ROOT   8:  E=   -2497.5466228002 Eh  0.204 eV   1642.0 cm**-1
      0.76678 [    10]: 11111
      0.12041 [    18]: 01211
      0.11117 [     2]: 21011
ROOT   9:  E=   -2497.5354046579 Eh  0.509 eV   4104.1 cm**-1
      0.52855 [    13]: 11012
      0.24096 [     7]: 11210
      0.09551 [    15]: 10121
      0.08454 [    20]: 01112
      0.04996 [     5]: 12101
ROOT  10:  E=   -2497.5300733759 Eh  0.654 eV   5274.2 cm**-1
      0.33969 [     1]: 21101
      0.28044 [    19]: 01121
      0.14117 [    12]: 11021
      0.13668 [     4]: 12110
      0.07281 [    16]: 10112
      0.00812 [    14]: 10211
      0.00551 [     3]: 20111
      0.00508 [    11]: 11102
      0.00380 [     9]: 11120
      0.00327 [     6]: 12011
ROOT  11:  E=   -2497.5298217870 Eh  0.661 eV   5329.4 cm**-1
      0.29875 [    14]: 10211
      0.23965 [     3]: 20111
      0.15159 [    11]: 11102
      0.11501 [     6]: 12011
      0.09062 [     9]: 11120
      0.07715 [    17]: 02111
      0.00937 [     1]: 21101
      0.00751 [    19]: 01121
      0.00423 [     4]: 12110
      0.00401 [    12]: 11021
ROOT  12:  E=   -2497.5244760059 Eh  0.806 eV   6502.6 cm**-1
      0.95396 [    10]: 11111
      0.02327 [     2]: 21011
      0.02195 [    18]: 01211
ROOT  13:  E=   -2497.5232756109 Eh  0.839 eV   6766.1 cm**-1
      0.30183 [     8]: 11201
      0.24813 [    16]: 10112
      0.18909 [     4]: 12110
      0.14416 [    12]: 11021
      0.11207 [    19]: 01121
ROOT  14:  E=   -2497.5225756350 Eh  0.858 eV   6919.7 cm**-1
      0.20867 [    17]: 02111
      0.19292 [     9]: 11120
      0.16249 [     3]: 20111
      0.15934 [     6]: 12011
      0.15764 [    11]: 11102
      0.11374 [    14]: 10211
ROOT  15:  E=   -2497.5194307125 Eh  0.944 eV   7610.0 cm**-1
      0.33214 [     0]: 21110
      0.23990 [    20]: 01112
      0.20800 [     5]: 12101
      0.17032 [    15]: 10121
      0.04064 [    13]: 11012
      0.00463 [     7]: 11210
ROOT  16:  E=   -2497.5186373253 Eh  0.965 eV   7784.1 cm**-1
      0.42496 [    10]: 11111
      0.30671 [    18]: 01211
      0.26388 [     2]: 21011
ROOT  17:  E=   -2497.4782714381 Eh  2.064 eV  16643.4 cm**-1
      0.28781 [    11]: 11102
      0.26501 [     9]: 11120
      0.12955 [    14]: 10211
      0.10785 [     6]: 12011
      0.09803 [    12]: 11021
      0.07765 [     8]: 11201
      0.01232 [    16]: 10112
      0.00628 [     4]: 12110
      0.00599 [     3]: 20111
      0.00392 [    17]: 02111
      0.00280 [    19]: 01121
      0.00265 [     1]: 21101
ROOT  18:  E=   -2497.4779808610 Eh  2.071 eV  16707.1 cm**-1
      0.39285 [    12]: 11021
      0.31769 [     8]: 11201
      0.07049 [    11]: 11102
      0.06322 [     9]: 11120
      0.05038 [    16]: 10112
      0.03451 [    14]: 10211
      0.02950 [     6]: 12011
      0.02694 [     4]: 12110
      0.00650 [    19]: 01121
      0.00599 [     1]: 21101
ROOT  19:  E=   -2497.4735418626 Eh  2.192 eV  17681.4 cm**-1
      0.45211 [    15]: 10121
      0.31181 [     5]: 12101
      0.10148 [    13]: 11012
      0.08666 [     7]: 11210
      0.02561 [     0]: 21110
      0.02096 [    20]: 01112
ROOT  20:  E=   -2497.4724056021 Eh  2.223 eV  17930.8 cm**-1
      0.42022 [    16]: 10112
      0.26542 [     4]: 12110
      0.13529 [    19]: 01121
      0.13458 [     1]: 21101
      0.02282 [     8]: 11201
      0.01756 [    12]: 11021
ROOT  21:  E=   -2497.4707010939 Eh  2.270 eV  18304.9 cm**-1
      0.43856 [    20]: 01112
      0.36343 [     0]: 21110
      0.05701 [     2]: 21011
      0.04955 [    15]: 10121
      0.04934 [    18]: 01211
      0.03076 [     5]: 12101
      0.00599 [    13]: 11012
      0.00487 [     7]: 11210
ROOT  22:  E=   -2497.4702238637 Eh  2.283 eV  18409.6 cm**-1
      0.47097 [     2]: 21011
      0.42030 [    18]: 01211
      0.05581 [    20]: 01112
      0.04528 [     0]: 21110
      0.00279 [    15]: 10121
ROOT  23:  E=   -2497.4695511971 Eh  2.301 eV  18557.2 cm**-1
      0.38186 [     3]: 20111
      0.28351 [    17]: 02111
      0.15081 [    14]: 10211
      0.12182 [     6]: 12011
      0.03257 [    11]: 11102
      0.02458 [     9]: 11120

                 <<<<<<<<<<<<<<<<<<INITIAL CI STATE CHECK>>>>>>>>>>>>>>>>>>

   E(CAS)= -2497.589463607 Eh DE=    0.000000e+00
   --- Energy gap subspaces: Ext-Act = 0.092   Act-Int = 0.157
   N(occ)=  1.00000 1.00000 1.00000 1.00000 1.00000
   ||g|| =     2.235032e+00 Max(G)=    4.516852e-01 Rot=382,1
   --- Orbital Update [SuperCI(PT)]
   --- Canonicalize Internal Space
   --- Canonicalize External Space
   --- SX_PT (Skipped TA=0 IT=0): ||X|| =      0.435795333 Max(X)(108,70) =      0.075025420 
   --- SFit(Active Orbitals)

MACRO-ITERATION   2: 
   --- Inactive Energy E0 = -2487.68646539 Eh
CI-ITERATION   0: 
 -2497.971232191   0.000000000000 (    0.00)
   CI-PROBLEM SOLVED
   DENSITIES MADE
CI-ITERATION   0: 
 -2497.847405573   0.000000000000 (    0.00)
 -2497.846255683   0.000000000000
 -2497.846016075   0.000000000000
 -2497.845035922   0.000000000000
 -2497.844763239   0.000000000000
 -2497.844132505   0.000000000000
 -2497.843663341   0.000000000000
 -2497.842942830   0.000000000000
 -2497.842412747   0.000000000000
 -2497.824886444   0.000000000000
 -2497.824653266   0.000000000000
 -2497.824266241   0.000000000000
 -2497.813996381   0.000000000000
 -2497.813127456   0.000000000000
 -2497.812021854   0.000000000000
 -2497.811491548   0.000000000000
 -2497.811133230   0.000000000000
 -2497.758926106   0.000000000000
 -2497.758642979   0.000000000000
 -2497.756216071   0.000000000000
 -2497.755432384   0.000000000000
 -2497.755078312   0.000000000000
 -2497.754804996   0.000000000000
 -2497.753732131   0.000000000000
   CI-PROBLEM SOLVED
   DENSITIES MADE
   E(CAS)= -2497.890429372 Eh DE=   -3.009658e-01
   --- Energy gap subspaces: Ext-Act = 0.173   Act-Int = 0.066
   N(occ)=  1.00000 1.00000 1.00000 1.00000 1.00000
   ||g|| =     7.379971e-01 Max(G)=    5.646761e-02 Rot=375,10
   --- Orbital Update [SuperCI(PT)]
   --- Canonicalize Internal Space
   --- Canonicalize External Space
   --- SX_PT (Skipped TA=0 IT=0): ||X|| =      0.168409843 Max(X)(110,107) =     -0.038506586 
   --- SFit(Active Orbitals)

MACRO-ITERATION   3: 
   --- Inactive Energy E0 = -2487.65745236 Eh
CI-ITERATION   0: 
 -2498.011264202   0.000000000000 (    0.00)
   CI-PROBLEM SOLVED
   DENSITIES MADE
CI-ITERATION   0: 
 -2497.877158388   0.000000000000 (    0.00)
 -2497.876058012   0.000000000000
 -2497.875760330   0.000000000000
 -2497.875042623   0.000000000000
 -2497.875005018   0.000000000000
 -2497.874651679   0.000000000000
 -2497.874328043   0.000000000000
 -2497.873931356   0.000000000000
 -2497.873546614   0.000000000000
 -2497.853169626   0.000000000000
 -2497.852795101   0.000000000000
 -2497.852684239   0.000000000000
 -2497.841760825   0.000000000000
 -2497.841132923   0.000000000000
 -2497.841086052   0.000000000000
 -2497.840977369   0.000000000000
 -2497.839978683   0.000000000000
 -2497.782826799   0.000000000000
 -2497.782513388   0.000000000000
 -2497.780947054   0.000000000000
 -2497.780575282   0.000000000000
 -2497.780304295   0.000000000000
 -2497.780082667   0.000000000000
 -2497.779795175   0.000000000000
   CI-PROBLEM SOLVED
   DENSITIES MADE
   E(CAS)= -2497.924509424 Eh DE=   -3.408005e-02
   --- Energy gap subspaces: Ext-Act = 0.076   Act-Int = 0.177
   N(occ)=  1.00000 1.00000 1.00000 1.00000 1.00000
   ||g|| =     4.796975e-01 Max(G)=    8.579594e-02 Rot=382,15
   --- Orbital Update [SuperCI(PT)]
   --- Canonicalize Internal Space
   --- Canonicalize External Space
   --- SX_PT (Skipped TA=0 IT=0): ||X|| =      0.108237854 Max(X)(109,103) =     -0.027941991 
   --- SFit(Active Orbitals)

MACRO-ITERATION   4: 
   --- Inactive Energy E0 = -2487.37325433 Eh
CI-ITERATION   0: 
 -2498.024598867   0.000000000000 (    0.00)
   CI-PROBLEM SOLVED
   DENSITIES MADE
CI-ITERATION   0: 
 -2497.889126417   0.000000000000 (    0.00)
 -2497.888399588   0.000000000000
 -2497.887463167   0.000000000000
 -2497.887382759   0.000000000000
 -2497.887145231   0.000000000000
 -2497.887086551   0.000000000000
 -2497.886598554   0.000000000000
 -2497.886416538   0.000000000000
 -2497.886009899   0.000000000000
 -2497.865013100   0.000000000000
 -2497.864937351   0.000000000000
 -2497.864576252   0.000000000000
 -2497.853411715   0.000000000000
 -2497.853313769   0.000000000000
 -2497.852727481   0.000000000000
 -2497.852465397   0.000000000000
 -2497.852153903   0.000000000000
 -2497.793469419   0.000000000000
 -2497.793324373   0.000000000000
 -2497.792196225   0.000000000000
 -2497.792106305   0.000000000000
 -2497.791716618   0.000000000000
 -2497.791356624   0.000000000000
 -2497.791223000   0.000000000000
   CI-PROBLEM SOLVED
   DENSITIES MADE
   E(CAS)= -2497.937083188 Eh DE=   -1.257376e-02
   --- Energy gap subspaces: Ext-Act = 0.126   Act-Int = 0.121
   N(occ)=  1.00000 1.00000 1.00000 1.00000 1.00000
   ||g|| =     8.192698e-02 Max(G)=    7.963914e-03 Rot=393,107
   --- Orbital Update [SuperCI(PT)]
   --- Canonicalize Internal Space
   --- Canonicalize External Space
   --- SX_PT (Skipped TA=0 IT=0): ||X|| =      0.020766755 Max(X)(115,102) =      0.006117609 
   --- SFit(Active Orbitals)

MACRO-ITERATION   5: 
   --- Inactive Energy E0 = -2487.37862704 Eh
CI-ITERATION   0: 
 -2498.025393350   0.000000000000 (    0.00)
   CI-PROBLEM SOLVED
   DENSITIES MADE
CI-ITERATION   0: 
 -2497.889243248   0.000000000000 (    0.00)
 -2497.888571741   0.000000000000
 -2497.887629078   0.000000000000
 -2497.887605452   0.000000000000
 -2497.887392437   0.000000000000
 -2497.887299055   0.000000000000
 -2497.886859458   0.000000000000
 -2497.886738699   0.000000000000
 -2497.886335474   0.000000000000
 -2497.865173661   0.000000000000
 -2497.865067161   0.000000000000
 -2497.864695264   0.000000000000
 -2497.853481121   0.000000000000
 -2497.853421116   0.000000000000
 -2497.852849196   0.000000000000
 -2497.852663671   0.000000000000
 -2497.852323993   0.000000000000
 -2497.793292924   0.000000000000
 -2497.793136314   0.000000000000
 -2497.792124164   0.000000000000
 -2497.792049176   0.000000000000
 -2497.791682673   0.000000000000
 -2497.791348068   0.000000000000
 -2497.791246177   0.000000000000
   CI-PROBLEM SOLVED
   DENSITIES MADE
   E(CAS)= -2497.937534785 Eh DE=   -4.515971e-04
   --- Energy gap subspaces: Ext-Act = 0.120   Act-Int = 0.129
   N(occ)=  1.00000 1.00000 1.00000 1.00000 1.00000
   ||g|| =     5.542775e-02 Max(G)=   -3.866971e-03 Rot=110,92
   --- Orbital Update [SuperCI(PT)]
   --- Canonicalize Internal Space
   --- Canonicalize External Space
   --- SX_PT (Skipped TA=0 IT=0): ||X|| =      0.013488552 Max(X)(110,101) =     -0.003867643 
   --- SFit(Active Orbitals)

MACRO-ITERATION   6: 
   --- Inactive Energy E0 = -2487.35347382 Eh
CI-ITERATION   0: 
 -2498.025662862   0.000000000000 (    0.00)
   CI-PROBLEM SOLVED
   DENSITIES MADE
CI-ITERATION   0: 
 -2497.889378631   0.000000000000 (    0.00)
 -2497.888712309   0.000000000000
 -2497.887761206   0.000000000000
 -2497.887745316   0.000000000000
 -2497.887544554   0.000000000000
 -2497.887438048   0.000000000000
 -2497.887013471   0.000000000000
 -2497.886922781   0.000000000000
 -2497.886515365   0.000000000000
 -2497.865311718   0.000000000000
 -2497.865196757   0.000000000000
 -2497.864793574   0.000000000000
 -2497.853594218   0.000000000000
 -2497.853539009   0.000000000000
 -2497.852973411   0.000000000000
 -2497.852803319   0.000000000000
 -2497.852462672   0.000000000000
 -2497.793329398   0.000000000000
 -2497.793162825   0.000000000000
 -2497.792210236   0.000000000000
 -2497.792135255   0.000000000000
 -2497.791791825   0.000000000000
 -2497.791445787   0.000000000000
 -2497.791355135   0.000000000000
   CI-PROBLEM SOLVED
   DENSITIES MADE
   E(CAS)= -2497.937730114 Eh DE=   -1.953289e-04
   --- Energy gap subspaces: Ext-Act = 0.123   Act-Int = 0.125
   N(occ)=  1.00000 1.00000 1.00000 1.00000 1.00000
   ||g|| =     1.632300e-02 Max(G)=    2.233442e-03 Rot=115,104
   --- Orbital Update [SuperCI(PT)]
   --- Canonicalize Internal Space
   --- Canonicalize External Space
   --- SX_PT (Skipped TA=0 IT=0): ||X|| =      0.005309892 Max(X)(115,102) =     -0.001839708 
   --- SFit(Active Orbitals)

MACRO-ITERATION   7: 
   --- Inactive Energy E0 = -2487.35702376 Eh
CI-ITERATION   0: 
 -2498.025670417   0.000000000000 (    0.00)
   CI-PROBLEM SOLVED
   DENSITIES MADE
CI-ITERATION   0: 
 -2497.889412615   0.000000000000 (    0.00)
 -2497.888740011   0.000000000000
 -2497.887793681   0.000000000000
 -2497.887781016   0.000000000000
 -2497.887572474   0.000000000000
 -2497.887474692   0.000000000000
 -2497.887053075   0.000000000000
 -2497.886971955   0.000000000000
 -2497.886561631   0.000000000000
 -2497.865355044   0.000000000000
 -2497.865225062   0.000000000000
 -2497.864832121   0.000000000000
 -2497.853638737   0.000000000000
 -2497.853585089   0.000000000000
 -2497.853026322   0.000000000000
 -2497.852876270   0.000000000000
 -2497.852509326   0.000000000000
 -2497.793384648   0.000000000000
 -2497.793220489   0.000000000000
 -2497.792280926   0.000000000000
 -2497.792212167   0.000000000000
 -2497.791873940   0.000000000000
 -2497.791535039   0.000000000000
 -2497.791439416   0.000000000000
   CI-PROBLEM SOLVED
   DENSITIES MADE
   E(CAS)= -2497.937759286 Eh DE=   -2.917197e-05
   --- Energy gap subspaces: Ext-Act = 0.123   Act-Int = 0.125
   N(occ)=  1.00000 1.00000 1.00000 1.00000 1.00000
   ||g|| =     1.080160e-02 Max(G)=    1.163848e-03 Rot=110,102
   --- Orbital Update [SuperCI(PT)]
   --- Canonicalize Internal Space
   --- Canonicalize External Space
   --- SX_PT (Skipped TA=0 IT=0): ||X|| =      0.002696559 Max(X)(110,104) =     -0.001363448 
   --- SFit(Active Orbitals)

MACRO-ITERATION   8: 
   --- Inactive Energy E0 = -2487.35449419 Eh
CI-ITERATION   0: 
 -2498.025676532   0.000000000000 (    0.00)
   CI-PROBLEM SOLVED
   DENSITIES MADE
CI-ITERATION   0: 
 -2497.889429227   0.000000000000 (    0.00)
 -2497.888749373   0.000000000000
 -2497.887802840   0.000000000000
 -2497.887789102   0.000000000000
 -2497.887576366   0.000000000000
 -2497.887480123   0.000000000000
 -2497.887059837   0.000000000000
 -2497.886979800   0.000000000000
 -2497.886567995   0.000000000000
 -2497.865352086   0.000000000000
 -2497.865218409   0.000000000000
 -2497.864838256   0.000000000000
 -2497.853644182   0.000000000000
 -2497.853589604   0.000000000000
 -2497.853044727   0.000000000000
 -2497.852900866   0.000000000000
 -2497.852512786   0.000000000000
 -2497.793398267   0.000000000000
 -2497.793230509   0.000000000000
 -2497.792294367   0.000000000000
 -2497.792223741   0.000000000000
 -2497.791886536   0.000000000000
 -2497.791551534   0.000000000000
 -2497.791456942   0.000000000000
   CI-PROBLEM SOLVED
   DENSITIES MADE
   E(CAS)= -2497.937766963 Eh DE=   -7.677152e-06
   --- Energy gap subspaces: Ext-Act = 0.124   Act-Int = 0.125
   N(occ)=  1.00000 1.00000 1.00000 1.00000 1.00000
   ||g|| =     4.455937e-03 Max(G)=   -6.419275e-04 Rot=382,15
   --- Orbital Update [SuperCI(PT)]
   --- Canonicalize Internal Space
   --- Canonicalize External Space
   --- SX_PT (Skipped TA=0 IT=0): ||X|| =      0.001269210 Max(X)(110,104) =     -0.000629144 
   --- SFit(Active Orbitals)

MACRO-ITERATION   9: 
   --- Inactive Energy E0 = -2487.35804012 Eh
CI-ITERATION   0: 
 -2498.025677642   0.000000000000 (    0.00)
   CI-PROBLEM SOLVED
   DENSITIES MADE
CI-ITERATION   0: 
 -2497.889439154   0.000000000000 (    0.00)
 -2497.888750286   0.000000000000
 -2497.887808519   0.000000000000
 -2497.887789616   0.000000000000
 -2497.887572584   0.000000000000
 -2497.887481143   0.000000000000
 -2497.887060182   0.000000000000
 -2497.886978981   0.000000000000
 -2497.886566146   0.000000000000
 -2497.865348377   0.000000000000
 -2497.865211786   0.000000000000
 -2497.864839624   0.000000000000
 -2497.853646614   0.000000000000
 -2497.853589974   0.000000000000
 -2497.853050891   0.000000000000
 -2497.852913444   0.000000000000
 -2497.852509653   0.000000000000
 -2497.793406732   0.000000000000
 -2497.793238582   0.000000000000
 -2497.792297739   0.000000000000
 -2497.792228369   0.000000000000
 -2497.791887265   0.000000000000
 -2497.791559099   0.000000000000
 -2497.791462775   0.000000000000
   CI-PROBLEM SOLVED
   DENSITIES MADE
   E(CAS)= -2497.937768769 Eh DE=   -1.805918e-06
   --- Energy gap subspaces: Ext-Act = 0.123   Act-Int = 0.125
   N(occ)=  1.00000 1.00000 1.00000 1.00000 1.00000
   ||g|| =     2.642116e-03 Max(G)=    2.779294e-04 Rot=382,15
   --- Orbital Update [SuperCI(PT)]
   --- Canonicalize Internal Space
   --- Canonicalize External Space
   --- SX_PT (Skipped TA=0 IT=0): ||X|| =      0.000689419 Max(X)(110,104) =     -0.000249551 
   --- SFit(Active Orbitals)

MACRO-ITERATION  10: 
   --- Inactive Energy E0 = -2487.35680555 Eh
CI-ITERATION   0: 
 -2498.025671901   0.000000000000 (    0.00)
   CI-PROBLEM SOLVED
   DENSITIES MADE
CI-ITERATION   0: 
 -2497.889446661   0.000000000000 (    0.00)
 -2497.888755130   0.000000000000
 -2497.887813564   0.000000000000
 -2497.887793029   0.000000000000
 -2497.887575566   0.000000000000
 -2497.887484639   0.000000000000
 -2497.887063913   0.000000000000
 -2497.886982106   0.000000000000
 -2497.886569013   0.000000000000
 -2497.865351130   0.000000000000
 -2497.865212859   0.000000000000
 -2497.864843779   0.000000000000
 -2497.853652942   0.000000000000
 -2497.853595074   0.000000000000
 -2497.853059371   0.000000000000
 -2497.852923706   0.000000000000
 -2497.852514212   0.000000000000
 -2497.793418691   0.000000000000
 -2497.793250906   0.000000000000
 -2497.792309132   0.000000000000
 -2497.792239257   0.000000000000
 -2497.791898103   0.000000000000
 -2497.791570118   0.000000000000
 -2497.791473627   0.000000000000
   CI-PROBLEM SOLVED
   DENSITIES MADE
   E(CAS)= -2497.937769211 Eh DE=   -4.418343e-07
   --- Energy gap subspaces: Ext-Act = 0.123   Act-Int = 0.125
   N(occ)=  1.00000 1.00000 1.00000 1.00000 1.00000
   ||g|| =     8.639322e-04 Max(G)=    1.637925e-04 Rot=110,102
                     ---- THE CAS-SCF GRADIENT HAS CONVERGED ----
                            --- FINALIZING ORBITALS ---
                    ---- DOING ONE FINAL ITERATION FOR PRINTING ----
   --- Forming Natural Orbitals
   --- Canonicalize Internal Space
   --- Canonicalize External Space

MACRO-ITERATION  11: 
   --- Inactive Energy E0 = -2487.35680555 Eh
   --- All densities will be recomputed
CI-ITERATION   0: 
 -2498.025671902   0.000000000000 (    0.00)
   CI-PROBLEM SOLVED
   DENSITIES MADE
CI-ITERATION   0: 
 -2497.889446662   0.000000000000 (    0.00)
 -2497.888755130   0.000000000000
 -2497.887813565   0.000000000000
 -2497.887793029   0.000000000000
 -2497.887575567   0.000000000000
 -2497.887484640   0.000000000000
 -2497.887063913   0.000000000000
 -2497.886982107   0.000000000000
 -2497.886569014   0.000000000000
 -2497.865351131   0.000000000000
 -2497.865212860   0.000000000000
 -2497.864843780   0.000000000000
 -2497.853652943   0.000000000000
 -2497.853595074   0.000000000000
 -2497.853059372   0.000000000000
 -2497.852923707   0.000000000000
 -2497.852514213   0.000000000000
 -2497.793418692   0.000000000000
 -2497.793250906   0.000000000000
 -2497.792309133   0.000000000000
 -2497.792239258   0.000000000000
 -2497.791898103   0.000000000000
 -2497.791570119   0.000000000000
 -2497.791473627   0.000000000000
   CI-PROBLEM SOLVED
   DENSITIES MADE
   E(CAS)= -2497.937769212 Eh DE=   -7.835297e-10
   --- Energy gap subspaces: Ext-Act = 0.110   Act-Int = 0.100
   N(occ)=  1.00000 1.00000 1.00000 1.00000 1.00000
   ||g|| =     8.639322e-04 Max(G)=    1.785172e-04 Rot=110,104
--------------
CASSCF RESULTS
--------------

Final CASSCF energy       : -2497.937769212 Eh  -67972.3423 eV

----------------
ORBITAL ENERGIES
----------------

  NO   OCC          E(Eh)            E(eV) 
   0   2.0000    -240.549847     -6545.6941 
   1   2.0000     -29.127005      -792.5861 
   2   2.0000     -24.831976      -675.7124 
   3   2.0000     -24.831685      -675.7045 
   4   2.0000     -24.831263      -675.6930 
   5   2.0000      -4.715975      -128.3282 
   6   2.0000      -4.715231      -128.3080 
   7   2.0000      -4.708435      -128.1230 
   8   2.0000      -4.708118      -128.1144 
   9   2.0000      -4.707815      -128.1062 
  10   2.0000      -4.707691      -128.1028 
  11   2.0000      -4.705385      -128.0400 
  12   2.0000      -4.705298      -128.0377 
  13   2.0000      -4.704875      -128.0261 
  14   2.0000      -4.704784      -128.0237 
  15   2.0000      -3.831364      -104.2567 
  16   2.0000      -2.758798       -75.0707 
  17   2.0000      -2.758203       -75.0545 
  18   2.0000      -2.752583       -74.9016 
  19   2.0000      -2.751911       -74.8833 
  20   2.0000      -2.749072       -74.8060 
  21   2.0000      -2.748675       -74.7953 
  22   2.0000      -2.747771       -74.7706 
  23   2.0000      -2.747119       -74.7529 
  24   2.0000      -2.746698       -74.7415 
  25   2.0000      -2.745991       -74.7222 
  26   2.0000      -2.745926       -74.7204 
  27   2.0000      -2.744031       -74.6689 
  28   2.0000      -2.743244       -74.6475 
  29   2.0000      -2.742370       -74.6237 
  30   2.0000      -2.741997       -74.6135 
  31   2.0000      -2.741862       -74.6099 
  32   2.0000      -2.741735       -74.6064 
  33   2.0000      -2.741580       -74.6022 
  34   2.0000      -2.740757       -74.5798 
  35   2.0000      -2.740603       -74.5756 
  36   2.0000      -2.740532       -74.5737 
  37   2.0000      -2.739455       -74.5444 
  38   2.0000      -2.738983       -74.5315 
  39   2.0000      -2.738284       -74.5125 
  40   2.0000      -2.737877       -74.5014 
  41   2.0000      -2.737127       -74.4810 
  42   2.0000      -2.736574       -74.4660 
  43   2.0000      -2.735911       -74.4479 
  44   2.0000      -2.735721       -74.4428 
  45   2.0000      -2.735644       -74.4407 
  46   2.0000      -2.499450       -68.0135 
  47   2.0000      -2.498245       -67.9807 
  48   2.0000      -2.497887       -67.9710 
  49   2.0000      -0.562763       -15.3136 
  50   2.0000      -0.550993       -14.9933 
  51   2.0000      -0.550487       -14.9795 
  52   2.0000      -0.547510       -14.8985 
  53   2.0000      -0.545790       -14.8517 
  54   2.0000      -0.541855       -14.7446 
  55   2.0000      -0.535591       -14.5742 
  56   2.0000      -0.526835       -14.3359 
  57   2.0000      -0.523091       -14.2340 
  58   2.0000      -0.521628       -14.1942 
  59   2.0000      -0.516073       -14.0431 
  60   2.0000      -0.514646       -14.0042 
  61   2.0000      -0.512141       -13.9361 
  62   2.0000      -0.506565       -13.7843 
  63   2.0000      -0.505084       -13.7440 
  64   2.0000      -0.501635       -13.6502 
  65   2.0000      -0.501286       -13.6407 
  66   2.0000      -0.494762       -13.4632 
  67   2.0000      -0.490429       -13.3453 
  68   2.0000      -0.489554       -13.3214 
  69   2.0000      -0.483165       -13.1476 
  70   2.0000      -0.482721       -13.1355 
  71   2.0000      -0.479567       -13.0497 
  72   2.0000      -0.471738       -12.8366 
  73   2.0000      -0.470414       -12.8006 
  74   2.0000      -0.469101       -12.7649 
  75   2.0000      -0.468608       -12.7515 
  76   2.0000      -0.465046       -12.6545 
  77   2.0000      -0.462411       -12.5829 
  78   2.0000      -0.455412       -12.3924 
  79   2.0000      -0.454833       -12.3766 
  80   2.0000      -0.453666       -12.3449 
  81   2.0000      -0.449452       -12.2302 
  82   2.0000      -0.448937       -12.2162 
  83   2.0000      -0.444753       -12.1023 
  84   2.0000      -0.444102       -12.0846 
  85   2.0000      -0.441873       -12.0240 
  86   2.0000      -0.440162       -11.9774 
  87   2.0000      -0.438604       -11.9350 
  88   2.0000      -0.437784       -11.9127 
  89   2.0000      -0.436436       -11.8760 
  90   2.0000      -0.433677       -11.8009 
  91   2.0000      -0.427883       -11.6433 
  92   2.0000      -0.426474       -11.6049 
  93   2.0000      -0.426151       -11.5962 
  94   2.0000      -0.420563       -11.4441 
  95   2.0000      -0.416665       -11.3380 
  96   2.0000      -0.412173       -11.2158 
  97   2.0000      -0.408558       -11.1174 
  98   2.0000      -0.389547       -10.6001 
  99   2.0000      -0.388835       -10.5807 
 100   2.0000      -0.366316        -9.9680 
 101   2.0000      -0.335036        -9.1168 
 102   2.0000      -0.259385        -7.0582 
 103   2.0000      -0.256401        -6.9770 
 104   2.0000      -0.252328        -6.8662 
 105   1.0000      -0.150767        -4.1026 
 106   1.0000      -0.152714        -4.1555 
 107   1.0000      -0.150818        -4.1040 
 108   1.0000      -0.143889        -3.9154 
 109   1.0000      -0.151379        -4.1192 
 110   0.0000      -0.033604        -0.9144 
 111   0.0000      -0.007898        -0.2149 
 112   0.0000       0.001409         0.0383 
 113   0.0000       0.018797         0.5115 
 114   0.0000       0.029895         0.8135 
 115   0.0000       0.032670         0.8890 
 116   0.0000       0.038633         1.0512 
 117   0.0000       0.053202         1.4477 
 118   0.0000       0.053493         1.4556 
 119   0.0000       0.068094         1.8529 
 120   0.0000       0.076988         2.0950 
 121   0.0000       0.095026         2.5858 
 122   0.0000       0.098674         2.6851 
 123   0.0000       0.099638         2.7113 
 124   0.0000       0.105003         2.8573 
 125   0.0000       0.118074         3.2130 
 126   0.0000       0.123361         3.3568 
 127   0.0000       0.132127         3.5954 
 128   0.0000       0.132297         3.6000 
 129   0.0000       0.138780         3.7764 
 130   0.0000       0.148253         4.0342 
 131   0.0000       0.151325         4.1178 
 132   0.0000       0.159973         4.3531 
 133   0.0000       0.160420         4.3652 
 134   0.0000       0.163048         4.4368 
 135   0.0000       0.163467         4.4482 
 136   0.0000       0.170136         4.6296 
 137   0.0000       0.173278         4.7151 
 138   0.0000       0.191678         5.2158 
 139   0.0000       0.201915         5.4944 
 140   0.0000       0.207628         5.6498 
 141   0.0000       0.207722         5.6524 
 142   0.0000       0.225866         6.1461 
 143   0.0000       0.249707         6.7949 
 144   0.0000       0.260525         7.0893 
 145   0.0000       0.261314         7.1107 
 146   0.0000       0.265038         7.2121 
 147   0.0000       0.294865         8.0237 
 148   0.0000       0.297615         8.0985 
 149   0.0000       0.302651         8.2356 
 150   0.0000       0.313902         8.5417 
 151   0.0000       0.314168         8.5490 
 152   0.0000       0.325420         8.8551 
 153   0.0000       0.328925         8.9505 
 154   0.0000       0.357418         9.7258 
 155   0.0000       0.369893        10.0653 
 156   0.0000       0.371382        10.1058 
 157   0.0000       0.389028        10.5860 
 158   0.0000       0.401047        10.9130 
 159   0.0000       0.402201        10.9444 
 160   0.0000       0.406464        11.0604 
 161   0.0000       0.409778        11.1506 
 162   0.0000       0.411193        11.1891 
 163   0.0000       0.419921        11.4266 
 164   0.0000       0.438771        11.9396 
 165   0.0000       0.439333        11.9548 
 166   0.0000       0.445639        12.1264 
 167   0.0000       0.448882        12.2147 
 168   0.0000       0.453370        12.3368 
 169   0.0000       0.458484        12.4760 
 170   0.0000       0.459833        12.5127 
 171   0.0000       0.460842        12.5401 
 172   0.0000       0.481386        13.0992 
 173   0.0000       0.482793        13.1375 
 174   0.0000       0.485029        13.1983 
 175   0.0000       0.489643        13.3239 
 176   0.0000       0.490202        13.3391 
 177   0.0000       0.491536        13.3754 
 178   0.0000       0.492108        13.3909 
 179   0.0000       0.510956        13.9038 
 180   0.0000       0.515772        14.0349 
 181   0.0000       0.518559        14.1107 
 182   0.0000       0.530180        14.4269 
 183   0.0000       0.541904        14.7460 
 184   0.0000       0.542767        14.7694 
 185   0.0000       0.546777        14.8786 
 186   0.0000       0.551687        15.0122 
 187   0.0000       0.559382        15.2216 
 188   0.0000       0.572246        15.5716 
 189   0.0000       0.576308        15.6821 
 190   0.0000       0.582702        15.8561 
 191   0.0000       0.588727        16.0201 
 192   0.0000       0.590111        16.0577 
 193   0.0000       0.592895        16.1335 
 194   0.0000       0.608989        16.5714 
 195   0.0000       0.610112        16.6020 
 196   0.0000       0.619809        16.8659 
 197   0.0000       0.620108        16.8740 
 198   0.0000       0.631828        17.1929 
 199   0.0000       0.640024        17.4159 
 200   0.0000       0.641197        17.4479 
 201   0.0000       0.645567        17.5668 
 202   0.0000       0.659268        17.9396 
 203   0.0000       0.670375        18.2418 
 204   0.0000       0.676115        18.3980 
 205   0.0000       0.692810        18.8523 
 206   0.0000       0.694329        18.8937 
 207   0.0000       0.707132        19.2420 
 208   0.0000       0.709062        19.2946 
 209   0.0000       0.713771        19.4227 
 210   0.0000       0.737276        20.0623 
 211   0.0000       0.738485        20.0952 
 212   0.0000       0.765488        20.8300 
 213   0.0000       0.791738        21.5443 
 214   0.0000       0.815912        22.2021 
 215   0.0000       0.838649        22.8208 
 216   0.0000       0.864553        23.5257 
 217   0.0000       0.877142        23.8683 
 218   0.0000       0.901791        24.5390 
 219   0.0000       0.909994        24.7622 
 220   0.0000       0.918604        24.9965 
 221   0.0000       0.971080        26.4244 
 222   0.0000       0.983718        26.7683 
 223   0.0000       0.997268        27.1371 
 224   0.0000       1.006509        27.3885 
 225   0.0000       1.009621        27.4732 
 226   0.0000       1.039615        28.2894 
 227   0.0000       1.049748        28.5651 
 228   0.0000       1.054457        28.6932 
 229   0.0000       1.055700        28.7271 
 230   0.0000       1.080530        29.4027 
 231   0.0000       1.084797        29.5188 
 232   0.0000       1.091156        29.6919 
 233   0.0000       1.115917        30.3657 
 234   0.0000       1.137721        30.9590 
 235   0.0000       1.185065        32.2473 
 236   0.0000       1.187884        32.3240 
 237   0.0000       1.213752        33.0279 
 238   0.0000       1.214605        33.0511 
 239   0.0000       1.228732        33.4355 
 240   0.0000       1.231289        33.5051 
 241   0.0000       1.232614        33.5411 
 242   0.0000       1.237727        33.6803 
 243   0.0000       1.271280        34.5933 
 244   0.0000       1.286384        35.0043 
 245   0.0000       1.289969        35.1018 
 246   0.0000       1.327318        36.1182 
 247   0.0000       1.354872        36.8679 
 248   0.0000       1.431171        38.9441 
 249   0.0000       1.553502        42.2729 
 250   0.0000       1.568169        42.6720 
 251   0.0000       1.599873        43.5348 
 252   0.0000       1.620563        44.0978 
 253   0.0000       1.624414        44.2026 
 254   0.0000       1.627328        44.2818 
 255   0.0000       1.648264        44.8515 
 256   0.0000       1.685703        45.8703 
 257   0.0000       1.687142        45.9095 
 258   0.0000       1.690536        46.0018 
 259   0.0000       1.709442        46.5163 
 260   0.0000       1.712511        46.5998 
 261   0.0000       1.713911        46.6379 
 262   0.0000       1.719517        46.7904 
 263   0.0000       1.720879        46.8275 
 264   0.0000       1.722314        46.8665 
 265   0.0000       1.738644        47.3109 
 266   0.0000       1.742277        47.4098 
 267   0.0000       1.745091        47.4863 
 268   0.0000       1.756841        47.8061 
 269   0.0000       1.763678        47.9921 
 270   0.0000       1.773553        48.2608 
 271   0.0000       1.777137        48.3584 
 272   0.0000       1.779977        48.4356 
 273   0.0000       1.786487        48.6128 
 274   0.0000       1.795085        48.8468 
 275   0.0000       1.808003        49.1983 
 276   0.0000       1.821526        49.5662 
 277   0.0000       1.823113        49.6094 
 278   0.0000       1.825791        49.6823 
 279   0.0000       1.828367        49.7524 
 280   0.0000       1.831447        49.8362 
 281   0.0000       1.836016        49.9605 
 282   0.0000       1.837312        49.9958 
 283   0.0000       1.839464        50.0544 
 284   0.0000       1.842986        50.1502 
 285   0.0000       1.845701        50.2241 
 286   0.0000       1.849685        50.3325 
 287   0.0000       1.854708        50.4692 
 288   0.0000       1.855808        50.4991 
 289   0.0000       1.861156        50.6446 
 290   0.0000       1.861344        50.6497 
 291   0.0000       1.861645        50.6579 
 292   0.0000       1.864045        50.7232 
 293   0.0000       1.864680        50.7405 
 294   0.0000       1.867599        50.8199 
 295   0.0000       1.870249        50.8921 
 296   0.0000       1.872699        50.9587 
 297   0.0000       1.873979        50.9935 
 298   0.0000       1.874314        51.0027 
 299   0.0000       1.876841        51.0714 
 300   0.0000       1.877770        51.0967 
 301   0.0000       1.877838        51.0986 
 302   0.0000       1.881243        51.1912 
 303   0.0000       1.881292        51.1925 
 304   0.0000       1.881893        51.2089 
 305   0.0000       1.885163        51.2979 
 306   0.0000       1.885531        51.3079 
 307   0.0000       1.886900        51.3452 
 308   0.0000       1.891310        51.4652 
 309   0.0000       1.892156        51.4882 
 310   0.0000       1.894059        51.5400 
 311   0.0000       1.896311        51.6013 
 312   0.0000       1.896429        51.6045 
 313   0.0000       1.901958        51.7549 
 314   0.0000       1.907603        51.9085 
 315   0.0000       1.911532        52.0154 
 316   0.0000       1.913143        52.0593 
 317   0.0000       1.916720        52.1566 
 318   0.0000       1.919088        52.2210 
 319   0.0000       1.919512        52.2326 
 320   0.0000       1.921738        52.2932 
 321   0.0000       1.922605        52.3167 
 322   0.0000       1.927345        52.4457 
 323   0.0000       1.931140        52.5490 
 324   0.0000       1.931303        52.5534 
 325   0.0000       1.933505        52.6133 
 326   0.0000       1.938930        52.7610 
 327   0.0000       1.939909        52.7876 
 328   0.0000       1.941464        52.8299 
 329   0.0000       1.951309        53.0978 
 330   0.0000       1.951843        53.1123 
 331   0.0000       1.954126        53.1745 
 332   0.0000       1.956336        53.2346 
 333   0.0000       1.961585        53.3774 
 334   0.0000       1.961730        53.3814 
 335   0.0000       1.964659        53.4611 
 336   0.0000       1.970375        53.6166 
 337   0.0000       1.971153        53.6378 
 338   0.0000       1.972463        53.6735 
 339   0.0000       1.975636        53.7598 
 340   0.0000       1.984905        54.0120 
 341   0.0000       1.986625        54.0588 
 342   0.0000       1.989377        54.1337 
 343   0.0000       1.991578        54.1936 
 344   0.0000       1.995840        54.3096 
 345   0.0000       2.020444        54.9791 
 346   0.0000       2.024321        55.0846 
 347   0.0000       2.026041        55.1314 
 348   0.0000       2.027069        55.1593 
 349   0.0000       2.036717        55.4219 
 350   0.0000       2.042595        55.5818 
 351   0.0000       2.068516        56.2872 
 352   0.0000       2.080273        56.6071 
 353   0.0000       2.082991        56.6811 
 354   0.0000       2.102962        57.2245 
 355   0.0000       2.122477        57.7555 
 356   0.0000       2.132347        58.0241 
 357   0.0000       2.138072        58.1799 
 358   0.0000       2.188723        59.5582 
 359   0.0000       2.192527        59.6617 
 360   0.0000       2.199276        59.8454 
 361   0.0000       2.200264        59.8722 
 362   0.0000       2.238247        60.9058 
 363   0.0000       2.261051        61.5263 
 364   0.0000       2.262789        61.5736 
 365   0.0000       2.275090        61.9084 
 366   0.0000       2.366585        64.3981 
 367   0.0000       2.379069        64.7378 
 368   0.0000       2.408339        65.5342 
 369   0.0000       2.428035        66.0702 
 370   0.0000       2.534507        68.9674 
 371   0.0000       2.578279        70.1585 
 372   0.0000       2.645459        71.9866 
 373   0.0000       2.710285        73.7506 
 374   0.0000       2.729796        74.2815 
 375   0.0000       2.807136        76.3861 
 376   0.0000       2.815180        76.6049 
 377   0.0000       2.846850        77.4667 
 378   0.0000       2.952653        80.3458 
 379   0.0000       2.975819        80.9762 
 380   0.0000       2.992714        81.4359 
 381   0.0000       3.003755        81.7363 
 382   0.0000       3.281886        89.3047 
 383   0.0000       3.756815       102.2281 
 384   0.0000       3.759756       102.3082 
 385   0.0000       3.765031       102.4517 
 386   0.0000       3.767755       102.5258 
 387   0.0000       3.774636       102.7131 
 388   0.0000       3.786399       103.0331 
 389   0.0000       3.795350       103.2767 
 390   0.0000       3.826494       104.1242 
 391   0.0000       3.891020       105.8800 
 392   0.0000       3.897752       106.0632 
 393   0.0000       3.970802       108.0510 
 394   0.0000       4.045332       110.0791 
 395   0.0000      23.982792       652.6049 
 396   0.0000      24.095464       655.6709 
 397   0.0000      24.475558       666.0138 
 398   0.0000      24.585545       669.0067 
 399   0.0000      24.587435       669.0581 
 400   0.0000      24.951381       678.9616 
 401   0.0000      25.204963       685.8619 
 402   0.0000      25.272309       687.6945 
 403   0.0000      25.340252       689.5433 
 404   0.0000      25.524393       694.5541 
 405   0.0000      25.659503       698.2306 
 406   0.0000      25.746402       700.5952 
 407   0.0000      26.122194       710.8210 
 408   0.0000      26.430145       719.2008 
 409   0.0000      26.680256       726.0067 
 410   0.0000      26.700266       726.5512 
 411   0.0000      26.748140       727.8539 
 412   0.0000      26.801010       729.2926 
 413   0.0000      26.849397       730.6092 
 414   0.0000      26.943104       733.1591 
 415   0.0000      27.310839       743.1657 
 416   0.0000      27.462670       747.2972 
 417   0.0000      27.791147       756.2356 
 418   0.0000      27.903431       759.2910 
 419   0.0000      27.982437       761.4408 
 420   0.0000      28.278750       769.5039 
 421   0.0000      28.667207       780.0744 
 422   0.0000      28.763688       782.6997 
 423   0.0000      29.083159       791.3930 
 424   0.0000      29.534862       803.6845 
 425   0.0000      44.511111      1211.2089 
 426   0.0000      44.564806      1212.6700 
 427   0.0000      44.579786      1213.0777 
 428   0.0000      44.665362      1215.4063 
 429   0.0000      44.670528      1215.5469 
 430   0.0000      44.699562      1216.3369 
 431   0.0000      44.757396      1217.9107 
 432   0.0000      44.799914      1219.0676 
 433   0.0000      44.820833      1219.6369 
 434   0.0000      44.823742      1219.7160 
 435   0.0000     205.384893      5588.8071 
 436   0.0000     205.402928      5589.2978 
 437   0.0000     205.409328      5589.4720 
 438   0.0000     205.448527      5590.5386 
 439   0.0000     205.448879      5590.5482 
 440   0.0000     205.458517      5590.8105 
 441   0.0000     205.478831      5591.3632 
 442   0.0000     205.499192      5591.9173 
 443   0.0000     205.512057      5592.2674 
 444   0.0000     205.513650      5592.3107 


---------------------------------------------
CAS-SCF STATES FOR BLOCK  1 MULT= 6 NROOTS= 1
---------------------------------------------

ROOT   0:  E=   -2498.0256719017 Eh
      1.00000 [     0]: 11111


---------------------------------------------
CAS-SCF STATES FOR BLOCK  2 MULT= 4 NROOTS=24
---------------------------------------------

ROOT   0:  E=   -2497.8894466623 Eh
      0.56665 [     8]: 11201
      0.19892 [    12]: 11021
      0.08983 [     1]: 21101
      0.03355 [    19]: 01121
      0.03261 [    10]: 11111
      0.02888 [    11]: 11102
      0.00953 [    17]: 02111
      0.00829 [     4]: 12110
      0.00790 [     5]: 12101
      0.00581 [     9]: 11120
      0.00423 [    16]: 10112
      0.00351 [     2]: 21011
      0.00304 [    18]: 01211
ROOT   1:  E=   -2497.8887551304 Eh  0.019 eV    151.8 cm**-1
      0.18175 [    10]: 11111
      0.15867 [     5]: 12101
      0.12339 [    18]: 01211
      0.09723 [     1]: 21101
      0.07167 [    14]: 10211
      0.06105 [    15]: 10121
      0.04713 [     7]: 11210
      0.03996 [     0]: 21110
      0.03846 [    11]: 11102
      0.03643 [    19]: 01121
      0.03479 [     2]: 21011
      0.02843 [    13]: 11012
      0.02602 [     6]: 12011
      0.01601 [     8]: 11201
      0.01491 [     9]: 11120
      0.00598 [    12]: 11021
      0.00573 [    20]: 01112
      0.00477 [    17]: 02111
      0.00369 [     3]: 20111
      0.00332 [     4]: 12110
ROOT   2:  E=   -2497.8878135648 Eh  0.044 eV    358.4 cm**-1
      0.75426 [    10]: 11111
      0.04698 [    13]: 11012
      0.04658 [     7]: 11210
      0.01966 [    11]: 11102
      0.01847 [    14]: 10211
      0.01656 [     0]: 21110
      0.01507 [     9]: 11120
      0.01472 [     6]: 12011
      0.01217 [    20]: 01112
      0.00924 [     4]: 12110
      0.00878 [     5]: 12101
      0.00822 [    16]: 10112
      0.00670 [    17]: 02111
      0.00664 [    15]: 10121
      0.00514 [     2]: 21011
      0.00504 [    18]: 01211
      0.00364 [     3]: 20111
ROOT   3:  E=   -2497.8877930294 Eh  0.045 eV    362.9 cm**-1
      0.30345 [    10]: 11111
      0.16692 [    11]: 11102
      0.12749 [     9]: 11120
      0.07399 [     5]: 12101
      0.05581 [    15]: 10121
      0.05239 [     4]: 12110
      0.04524 [    16]: 10112
      0.04477 [     2]: 21011
      0.04362 [    18]: 01211
      0.02181 [    17]: 02111
      0.01773 [     6]: 12011
      0.01092 [    14]: 10211
      0.00688 [     7]: 11210
      0.00633 [     3]: 20111
      0.00565 [     1]: 21101
      0.00560 [    12]: 11021
      0.00368 [    13]: 11012
      0.00352 [    20]: 01112
ROOT   4:  E=   -2497.8875755667 Eh  0.051 eV    410.7 cm**-1
      0.38689 [    10]: 11111
      0.09236 [    17]: 02111
      0.08219 [     3]: 20111
      0.06589 [    20]: 01112
      0.06392 [     7]: 11210
      0.05700 [    13]: 11012
      0.04399 [     1]: 21101
      0.03809 [     5]: 12101
      0.03773 [    19]: 01121
      0.03188 [    15]: 10121
      0.02781 [    18]: 01211
      0.02682 [     0]: 21110
      0.00857 [    16]: 10112
      0.00773 [     8]: 11201
      0.00675 [     2]: 21011
      0.00670 [    11]: 11102
      0.00662 [    12]: 11021
      0.00554 [     9]: 11120
ROOT   5:  E=   -2497.8874846400 Eh  0.053 eV    430.6 cm**-1
      0.10829 [    10]: 11111
      0.09509 [     1]: 21101
      0.09164 [    19]: 01121
      0.07889 [     6]: 12011
      0.05766 [    14]: 10211
      0.05416 [    13]: 11012
      0.05375 [     7]: 11210
      0.04883 [     3]: 20111
      0.04837 [     5]: 12101
      0.04714 [    11]: 11102
      0.04569 [    15]: 10121
      0.04535 [     2]: 21011
      0.04495 [     9]: 11120
      0.04081 [    17]: 02111
      0.03040 [    18]: 01211
      0.02653 [     4]: 12110
      0.02135 [     8]: 11201
      0.02060 [    12]: 11021
      0.02029 [     0]: 21110
      0.01213 [    20]: 01112
      0.00808 [    16]: 10112
ROOT   6:  E=   -2497.8870639133 Eh  0.065 eV    523.0 cm**-1
      0.13461 [    10]: 11111
      0.13197 [    20]: 01112
      0.12524 [     0]: 21110
      0.11461 [     6]: 12011
      0.10650 [    14]: 10211
      0.09032 [     2]: 21011
      0.08963 [     3]: 20111
      0.08786 [    18]: 01211
      0.08718 [    17]: 02111
      0.01508 [    13]: 11012
      0.01119 [     7]: 11210
      0.00293 [    16]: 10112
      0.00285 [     4]: 12110
ROOT   7:  E=   -2497.8869821067 Eh  0.067 eV    540.9 cm**-1
      0.41360 [    10]: 11111
      0.13843 [     0]: 21110
      0.09203 [    20]: 01112
      0.09153 [     4]: 12110
      0.05149 [     1]: 21101
      0.03238 [    16]: 10112
      0.03004 [    14]: 10211
      0.02754 [    19]: 01121
      0.02236 [    11]: 11102
      0.02054 [     5]: 12101
      0.01732 [     6]: 12011
      0.01221 [     9]: 11120
      0.01147 [     8]: 11201
      0.01132 [    15]: 10121
      0.00921 [     3]: 20111
      0.00642 [     7]: 11210
      0.00613 [    12]: 11021
      0.00369 [    13]: 11012
ROOT   8:  E=   -2497.8865690136 Eh  0.078 eV    631.6 cm**-1
      0.27844 [     4]: 12110
      0.27790 [    16]: 10112
      0.21567 [    10]: 11111
      0.05144 [    18]: 01211
      0.05037 [     2]: 21011
      0.04788 [     3]: 20111
      0.04623 [    17]: 02111
      0.01480 [     0]: 21110
      0.01380 [    20]: 01112
ROOT   9:  E=   -2497.8653511309 Eh  0.656 eV   5288.4 cm**-1
      0.20810 [    16]: 10112
      0.15991 [    20]: 01112
      0.14699 [     4]: 12110
      0.09602 [     1]: 21101
      0.08350 [     6]: 12011
      0.05669 [     3]: 20111
      0.05373 [    17]: 02111
      0.05004 [     0]: 21110
      0.04104 [    19]: 01121
      0.02072 [    11]: 11102
      0.02052 [     8]: 11201
[...]
      dyz     :     0.773946
      dx2y2   :     0.788631
      dxy     :     0.780446
      f0      :     0.000000  f :     0.000001
      f+1     :     0.000000
      f-1     :     0.000000
      f+2     :     0.000000
      f-2     :     0.000000
      f+3     :     0.000000
      f-3     :     0.000000


                     *******************************
                     * LOEWDIN POPULATION ANALYSIS *
                     *******************************

-----------------------------------------
LOEWDIN ATOMIC CHARGES AND SPIN DENSITIES
-----------------------------------------
   0 Au:    0.161194    0.003986
   1 Au:   -0.122040    0.012509
   2 Au:   -0.069295    0.012553
   3 Au:    0.060180    0.013491
   4 Au:   -0.068962    0.012618
   5 Au:   -0.070901    0.012722
   6 Au:    0.057436    0.014379
   7 Au:   -0.070807    0.012711
   8 Au:   -0.119583    0.012317
   9 Au:    0.161095    0.003991
  10 Mn:    0.081683    3.888723

--------------------------------------------------
LOEWDIN REDUCED ORBITAL CHARGES AND SPIN DENSITIES
--------------------------------------------------
CHARGE
  0 Aus       :     2.705008  s :     2.705008
      pz      :     2.079197  p :     6.170729
      px      :     2.041271
      py      :     2.050260
      dz2     :     2.000304  d :     9.959804
      dxz     :     1.988193
      dyz     :     1.989523
      dx2y2   :     1.987855
      dxy     :     1.993929
      f0      :     0.000550  f :     0.003266
      f+1     :     0.000614
      f-1     :     0.000468
      f+2     :     0.000613
      f-2     :     0.000387
      f+3     :     0.000311
      f-3     :     0.000322
  1 Aus       :     2.539402  s :     2.539402
      pz      :     2.184124  p :     6.611977
      px      :     2.072877
      py      :     2.354976
      dz2     :     1.981384  d :     9.965035
      dxz     :     1.994522
      dyz     :     1.997122
      dx2y2   :     1.996920
      dxy     :     1.995087
      f0      :     0.000734  f :     0.005626
      f+1     :     0.000232
      f-1     :     0.001063
      f+2     :     0.001269
      f-2     :     0.000933
      f+3     :     0.000729
      f-3     :     0.000667
  2 Aus       :     2.557857  s :     2.557857
      pz      :     2.341227  p :     6.533253
      px      :     2.132117
      py      :     2.059908
      dz2     :     1.994478  d :     9.973787
      dxz     :     2.001738
      dyz     :     1.985435
      dx2y2   :     2.002409
      dxy     :     1.989727
      f0      :     0.001264  f :     0.004398
      f+1     :     0.001106
      f-1     :     0.000687
      f+2     :     0.000290
      f-2     :     0.000433
      f+3     :     0.000404
      f-3     :     0.000214
  3 Aus       :     2.732086  s :     2.732086
      pz      :     2.182377  p :     6.262058
      px      :     2.023005
      py      :     2.056675
      dz2     :     1.995972  d :     9.942153
      dxz     :     1.992265
      dyz     :     1.980563
      dx2y2   :     1.984957
      dxy     :     1.988398
      f0      :     0.000759  f :     0.003523
      f+1     :     0.000304
      f-1     :     0.000799
      f+2     :     0.000627
      f-2     :     0.000427
      f+3     :     0.000268
      f-3     :     0.000339
  4 Aus       :     2.558002  s :     2.558002
      pz      :     2.283833  p :     6.532898
      px      :     2.176489
      py      :     2.072577
      dz2     :     1.991284  d :     9.973661
      dxz     :     2.009082
      dyz     :     1.978583
      dx2y2   :     2.003103
      dxy     :     1.991610
      f0      :     0.001139  f :     0.004400
      f+1     :     0.001002
      f-1     :     0.000663
      f+2     :     0.000488
      f-2     :     0.000435
      f+3     :     0.000458
      f-3     :     0.000214
  5 Aus       :     2.556878  s :     2.556878
      pz      :     2.338404  p :     6.535648
      px      :     2.128072
      py      :     2.069171
      dz2     :     1.988801  d :     9.973955
      dxz     :     2.006943
      dyz     :     1.993067
      dx2y2   :     1.999050
      dxy     :     1.986093
      f0      :     0.001148  f :     0.004420
      f+1     :     0.001062
      f-1     :     0.000823
      f+2     :     0.000369
      f-2     :     0.000425
      f+3     :     0.000388
      f-3     :     0.000206
  6 Aus       :     2.728280  s :     2.728280
      pz      :     2.172613  p :     6.270069
      px      :     2.021843
      py      :     2.075612
      dz2     :     2.002958  d :     9.940660
      dxz     :     1.991004
      dyz     :     1.969767
      dx2y2   :     1.987719
      dxy     :     1.989212
      f0      :     0.000728  f :     0.003555
      f+1     :     0.000254
      f-1     :     0.000772
      f+2     :     0.000551
      f-2     :     0.000300
      f+3     :     0.000416
      f-3     :     0.000534
  7 Aus       :     2.557258  s :     2.557258
      pz      :     2.280114  p :     6.535278
      px      :     2.180580
      py      :     2.074584
      dz2     :     1.986345  d :     9.973858
      dxz     :     2.009939
      dyz     :     1.991157
      dx2y2   :     1.998257
      dxy     :     1.988160
      f0      :     0.001080  f :     0.004412
      f+1     :     0.000949
      f-1     :     0.000729
      f+2     :     0.000376
      f-2     :     0.000602
      f+3     :     0.000394
      f-3     :     0.000283
  8 Aus       :     2.539389  s :     2.539389
      pz      :     2.114837  p :     6.608926
      px      :     2.064199
      py      :     2.429891
      dz2     :     1.980046  d :     9.965688
      dxz     :     1.997291
      dyz     :     2.000478
      dx2y2   :     1.997018
      dxy     :     1.990856
      f0      :     0.000652  f :     0.005580
      f+1     :     0.000238
      f-1     :     0.001032
      f+2     :     0.001062
      f-2     :     0.000587
      f+3     :     0.000744
      f-3     :     0.001265
  9 Aus       :     2.705509  s :     2.705509
      pz      :     2.068112  p :     6.170182
      px      :     2.039707
      py      :     2.062363
      dz2     :     1.997772  d :     9.959964
      dxz     :     1.989410
      dyz     :     1.994483
      dx2y2   :     1.985801
      dxy     :     1.992497
      f0      :     0.000452  f :     0.003250
      f+1     :     0.000503
      f-1     :     0.000509
      f+2     :     0.000498
      f-2     :     0.000360
      f+3     :     0.000422
      f-3     :     0.000506
 10 Mns       :     6.341942  s :     6.341942
      pz      :     4.224467  p :    12.656117
      px      :     4.176490
      py      :     4.255160
      dz2     :     1.211346  d :     5.919570
      dxz     :     1.091461
      dyz     :     1.318580
      dx2y2   :     1.110036
      dxy     :     1.188146
      f0      :     0.000151  f :     0.000688
      f+1     :     0.000049
      f-1     :     0.000107
      f+2     :     0.000098
      f-2     :     0.000123
      f+3     :     0.000086
      f-3     :     0.000073

SPIN
  0 Aus       :     0.002414  s :     0.002414
      pz      :     0.000189  p :     0.001022
      px      :     0.000495
      py      :     0.000338
      dz2     :     0.000074  d :     0.000547
      dxz     :     0.000183
      dyz     :     0.000131
      dx2y2   :     0.000094
      dxy     :     0.000064
      f0      :     0.000001  f :     0.000003
      f+1     :     0.000001
      f-1     :     0.000001
      f+2     :     0.000000
      f-2     :     0.000000
      f+3     :     0.000000
      f-3     :     0.000000
  1 Aus       :     0.000832  s :     0.000832
      pz      :     0.001428  p :     0.003262
      px      :     0.000828
      py      :     0.001007
      dz2     :     0.003091  d :     0.008288
      dxz     :     0.001839
      dyz     :     0.002916
      dx2y2   :     0.000167
      dxy     :     0.000275
      f0      :     0.000059  f :     0.000127
      f+1     :     0.000020
      f-1     :     0.000039
      f+2     :     0.000005
      f-2     :     0.000004
      f+3     :     0.000000
      f-3     :     0.000000
  2 Aus       :     0.001528  s :     0.001528
      pz      :     0.000857  p :     0.002404
      px      :     0.000844
      py      :     0.000703
      dz2     :     0.001983  d :     0.008477
      dxz     :     0.001600
      dyz     :     0.001317
      dx2y2   :     0.001494
      dxy     :     0.002084
      f0      :     0.000031  f :     0.000144
      f+1     :     0.000010
      f-1     :     0.000005
      f+2     :     0.000016
      f-2     :     0.000043
      f+3     :     0.000015
      f-3     :     0.000023
  3 Aus       :     0.002295  s :     0.002295
      pz      :     0.001270  p :     0.002449
      px      :     0.000713
      py      :     0.000466
      dz2     :     0.001009  d :     0.008597
      dxz     :     0.000489
      dyz     :     0.002957
      dx2y2   :     0.001833
      dxy     :     0.002309
      f0      :     0.000020  f :     0.000151
      f+1     :     0.000001
      f-1     :     0.000013
      f+2     :     0.000048
      f-2     :     0.000013
      f+3     :     0.000026
      f-3     :     0.000030
  4 Aus       :     0.001531  s :     0.001531
      pz      :     0.000757  p :     0.002406
      px      :     0.000863
      py      :     0.000786
      dz2     :     0.001566  d :     0.008536
      dxz     :     0.001729
      dyz     :     0.002394
      dx2y2   :     0.001534
      dxy     :     0.001314
      f0      :     0.000023  f :     0.000145
      f+1     :     0.000012
      f-1     :     0.000022
      f+2     :     0.000023
      f-2     :     0.000041
      f+3     :     0.000015
      f-3     :     0.000008
  5 Aus       :     0.001532  s :     0.001532
      pz      :     0.000671  p :     0.002441
      px      :     0.000752
      py      :     0.001018
      dz2     :     0.002029  d :     0.008602
      dxz     :     0.000587
      dyz     :     0.001399
      dx2y2   :     0.002166
      dxy     :     0.002421
      f0      :     0.000023  f :     0.000146
      f+1     :     0.000008
      f-1     :     0.000020
      f+2     :     0.000010
      f-2     :     0.000023
      f+3     :     0.000043
      f-3     :     0.000020
  6 Aus       :     0.002248  s :     0.002248
      pz      :     0.001576  p :     0.002571
      px      :     0.000795
      py      :     0.000200
      dz2     :     0.001570  d :     0.009383
      dxz     :     0.001308
      dyz     :     0.003349
      dx2y2   :     0.001331
      dxy     :     0.001825
      f0      :     0.000018  f :     0.000177
      f+1     :     0.000003
      f-1     :     0.000032
      f+2     :     0.000059
      f-2     :     0.000034
      f+3     :     0.000016
      f-3     :     0.000013
  7 Aus       :     0.001532  s :     0.001532
      pz      :     0.000555  p :     0.002440
      px      :     0.000916
      py      :     0.000968
      dz2     :     0.001643  d :     0.008594
      dxz     :     0.001412
      dyz     :     0.001287
      dx2y2   :     0.001631
      dxy     :     0.002622
      f0      :     0.000028  f :     0.000146
      f+1     :     0.000007
      f-1     :     0.000009
      f+2     :     0.000011
      f-2     :     0.000043
      f+3     :     0.000028
      f-3     :     0.000021
  8 Aus       :     0.000860  s :     0.000860
      pz      :     0.001090  p :     0.003265
      px      :     0.000779
      py      :     0.001396
      dz2     :     0.004126  d :     0.008070
      dxz     :     0.002009
      dyz     :     0.001436
      dx2y2   :     0.000433
      dxy     :     0.000066
      f0      :     0.000080  f :     0.000122
      f+1     :     0.000025
      f-1     :     0.000013
      f+2     :     0.000002
      f-2     :     0.000001
      f+3     :     0.000000
      f-3     :     0.000001
  9 Aus       :     0.002419  s :     0.002419
      pz      :     0.000253  p :     0.001021
      px      :     0.000498
      py      :     0.000269
      dz2     :     0.000071  d :     0.000547
      dxz     :     0.000161
      dyz     :     0.000111
      dx2y2   :     0.000121
      dxy     :     0.000084
      f0      :     0.000001  f :     0.000003
      f+1     :     0.000000
      f-1     :     0.000001
      f+2     :     0.000001
      f-2     :     0.000001
      f+3     :     0.000000
      f-3     :     0.000000
 10 Mns       :     0.001422  s :     0.001422
      pz      :     0.000601  p :     0.004343
      px      :     0.002853
      py      :     0.000889
      dz2     :     0.774407  d :     3.882955
      dxz     :     0.785075
      dyz     :     0.765681
      dx2y2   :     0.783650
      dxy     :     0.774142
      f0      :     0.000000  f :     0.000002
      f+1     :     0.000000
      f-1     :     0.000000
      f+2     :     0.000000
      f-2     :     0.000000
      f+3     :     0.000001
      f-3     :     0.000000


                      *****************************
                      * MAYER POPULATION ANALYSIS *
                      *****************************

  NA   - Mulliken gross atomic population
  ZA   - Total nuclear charge
  QA   - Mulliken gross atomic charge
  VA   - Mayer's total valence
  BVA  - Mayer's bonded valence
  FA   - Mayer's free valence

  ATOM       NA         ZA         QA         VA         BVA        FA
  0 Au    18.5959    19.0000     0.4041     1.0407     1.0392     0.0014
  1 Au    19.2047    19.0000    -0.2047     2.0063     2.0025     0.0037
  2 Au    19.0076    19.0000    -0.0076     1.6549     1.6509     0.0040
  3 Au    18.8283    19.0000     0.1717     1.2120     1.2078     0.0042
  4 Au    19.0065    19.0000    -0.0065     1.6537     1.6497     0.0040
  5 Au    19.0114    19.0000    -0.0114     1.6637     1.6597     0.0040
  6 Au    18.8360    19.0000     0.1640     1.2146     1.2100     0.0046
  7 Au    19.0107    19.0000    -0.0107     1.6620     1.6580     0.0040
  8 Au    19.1819    19.0000    -0.1819     1.9795     1.9758     0.0037
  9 Au    18.6032    19.0000     0.3968     1.0449     1.0434     0.0014
 10 Mn    25.7138    25.0000    -0.7138     8.3507     3.5074     4.8433

  Mayer bond orders larger than 0.100000
B(  0-Au,  1-Au) :   0.4914 B(  0-Au,  2-Au) :   0.2083 B(  0-Au,  4-Au) :   0.2073 
B(  1-Au,  2-Au) :   0.1816 B(  1-Au,  3-Au) :   0.6315 B(  1-Au,  4-Au) :   0.1809 
B(  1-Au, 10-Mn) :   0.4040 B(  2-Au,  4-Au) :   0.1415 B(  2-Au,  7-Au) :   0.6026 
B(  2-Au, 10-Mn) :   0.4373 B(  3-Au, 10-Mn) :   0.4440 B(  4-Au,  5-Au) :   0.6031 
B(  4-Au, 10-Mn) :   0.4374 B(  5-Au,  7-Au) :   0.1440 B(  5-Au,  8-Au) :   0.1809 
B(  5-Au,  9-Au) :   0.2127 B(  5-Au, 10-Mn) :   0.4397 B(  6-Au,  8-Au) :   0.6165 
B(  6-Au, 10-Mn) :   0.4620 B(  7-Au,  8-Au) :   0.1806 B(  7-Au,  9-Au) :   0.2121 
B(  7-Au, 10-Mn) :   0.4394 B(  8-Au,  9-Au) :   0.4851 B(  8-Au, 10-Mn) :   0.3981 



-------------------------------------------------------------
 Forming the transition density       ... done in 0.023231 sec
-------------------------------------------------------------



==========================================
CASSCF UV, CD spectra and dipole moments
==========================================
-------------------
ABSORPTION SPECTRUM
-------------------

Center of mass           = ( 14.4313, 12.6312, 14.8014)
Nuclear contribution to the dipole moment =    -3.880971,  -26.087418,   -3.953974 au

Calculating the Dipole integrals                  ... done
Transforming integrals                            ... done
Calculating the Linear Momentum integrals         ... done
Transforming integrals                            ... done
Calculating the Angular Momentum integrals        ... done
Transforming integrals                            ... done

------------------------------------------------------------------------------
                                 DIPOLE MOMENTS
------------------------------------------------------------------------------
  Root  Block           TX        TY        TZ           |T|
                      (Debye)   (Debye)   (Debye)      (Debye)
------------------------------------------------------------------------------
    0    0            0.03384   0.23646   0.06099      0.24653

--------------
CASSCF TIMINGS
--------------

Total time                       ...      131.2 sec
Sum of individual times          ...      127.4 sec ( 97.1%)

Calculation of AO operators
   F(Core) operator              ...       62.0 sec ( 47.2%)
   G(Act) operator               ...       57.0 sec ( 43.5%)
   J(AO) operators               ...        0.0 sec (  0.0%)
Calculation of MO transformed quantities
   J(MO) operators               ...        6.2 sec (  4.8%)
   (pq|rs) integrals             ...        0.0 sec (  0.0%)
   AO->MO one electron integrals ...        0.5 sec (  0.4%)
Configuration interaction steps
   CI-setup phase                ...        0.0 sec (  0.0%)
   CI-solution phase             ...        0.2 sec (  0.1%)
   Generation of densities       ...        0.0 sec (  0.0%)
Orbital improvement steps
   Orbital gradient              ...        0.1 sec (  0.1%)
   O(1) converger                ...        1.4 sec (  1.1%)
Properties                       ...        0.0 sec (  0.0%)
   SOC integral calculation      ...        0.0 sec (  0.0%)
   SSC RMEs (incl. integrals)    ...        0.0 sec (  0.0%)
   SOC RMEs                      ...        0.0 sec (  0.0%)

Maximum memory used throughout the entire CASSCF-calculation: 217.7 MB

-------------------------   --------------------
FINAL SINGLE POINT ENERGY     -2497.937769211977
-------------------------   --------------------


                            ***************************************
                            *     ORCA property calculations      *
                            ***************************************

                                    ---------------------
                                    Active property flags
                                    ---------------------
   (+) Dipole Moment


------------------------------------------------------------------------------
                       ORCA ELECTRIC PROPERTIES CALCULATION
------------------------------------------------------------------------------

Dipole Moment Calculation                       ... on
Quadrupole Moment Calculation                   ... off
Polarizability Calculation                      ... off
GBWName                                         ... casscf.gbw
Electron density                                ... casscf.scfp
The origin for moment calculation is the CENTER OF MASS  = (14.431286, 12.631177 14.801373)

-------------
DIPOLE MOMENT
-------------
                                X             Y             Z
Electronic contribution:      3.89428      26.18045       3.97797
Nuclear contribution   :     -3.88097     -26.08742      -3.95397
                        -----------------------------------------
Total Dipole Moment    :      0.01331       0.09303       0.02399
                        -----------------------------------------
Magnitude (a.u.)       :      0.09699
Magnitude (Debye)      :      0.24653



--------------------
Rotational spectrum 
--------------------
 
Rotational constants in cm-1:     0.002128     0.001389     0.001016 
Rotational constants in MHz :    63.790126    41.641656    30.472454 

 Dipole components along the rotational axes: 
x,y,z [a.u.] :     0.009220     0.096533     0.001902 
x,y,z [Debye]:     0.023436     0.245366     0.004833 

 

Timings for individual modules:

Sum of individual times         ...      143.838 sec (=   2.397 min)
GTO integral calculation        ...        5.786 sec (=   0.096 min)   4.0 %
SCF iterations                  ...        2.564 sec (=   0.043 min)   1.8 %
CASSCF iterations               ...      135.488 sec (=   2.258 min)  94.2 %
                             ****ORCA TERMINATED NORMALLY****
TOTAL RUN TIME: 0 days 0 hours 2 minutes 24 seconds 672 msec
