
                                 *****************
                                 * O   R   C   A *
                                 *****************

                                            #,                                       
                                            ###                                      
                                            ####                                     
                                            #####                                    
                                            ######                                   
                                           ########,                                 
                                     ,,################,,,,,                         
                               ,,#################################,,                 
                          ,,##########################################,,             
                       ,#########################################, ''#####,          
                    ,#############################################,,   '####,        
                  ,##################################################,,,,####,       
                ,###########''''           ''''###############################       
              ,#####''   ,,,,##########,,,,          '''####'''          '####       
            ,##' ,,,,###########################,,,                        '##       
           ' ,,###''''                  '''############,,,                           
         ,,##''                                '''############,,,,        ,,,,,,###''
      ,#''                                            '''#######################'''  
     '                                                          ''''####''''         
             ,#######,   #######,   ,#######,      ##                                
            ,#'     '#,  ##    ##  ,#'     '#,    #''#        ######   ,####,        
            ##       ##  ##   ,#'  ##            #'  '#       #        #'  '#        
            ##       ##  #######   ##           ,######,      #####,   #    #        
            '#,     ,#'  ##    ##  '#,     ,#' ,#      #,         ##   #,  ,#        
             '#######'   ##     ##  '#######'  #'      '#     #####' # '####'        



                  #######################################################
                  #                        -***-                        #
                  #          Department of theory and spectroscopy      #
                  #    Directorship and core code : Frank Neese         #
                  #        Max Planck Institute fuer Kohlenforschung    #
                  #                Kaiser Wilhelm Platz 1               #
                  #                 D-45470 Muelheim/Ruhr               #
                  #                      Germany                        #
                  #                                                     #
                  #                  All rights reserved                #
                  #                        -***-                        #
                  #######################################################


                         Program Version 5.0.3 -  RELEASE  -


 With contributions from (in alphabetic order):
   Daniel Aravena         : Magnetic Suceptibility
   Michael Atanasov       : Ab Initio Ligand Field Theory (pilot matlab implementation)
   Alexander A. Auer      : GIAO ZORA, VPT2 properties, NMR spectrum
   Ute Becker             : Parallelization
   Giovanni Bistoni       : ED, misc. LED, open-shell LED, HFLD
   Martin Brehm           : Molecular dynamics
   Dmytro Bykov           : SCF Hessian
   Vijay G. Chilkuri      : MRCI spin determinant printing, contributions to CSF-ICE
   Dipayan Datta          : RHF DLPNO-CCSD density
   Achintya Kumar Dutta   : EOM-CC, STEOM-CC
   Dmitry Ganyushin       : Spin-Orbit,Spin-Spin,Magnetic field MRCI
   Miquel Garcia          : C-PCM and meta-GGA Hessian, CC/C-PCM, Gaussian charge scheme
   Yang Guo               : DLPNO-NEVPT2, F12-NEVPT2, CIM, IAO-localization
   Andreas Hansen         : Spin unrestricted coupled pair/coupled cluster methods
   Benjamin Helmich-Paris : MC-RPA, TRAH-SCF, COSX integrals
   Lee Huntington         : MR-EOM, pCC
   Robert Izsak           : Overlap fitted RIJCOSX, COSX-SCS-MP3, EOM
   Marcus Kettner         : VPT2
   Christian Kollmar      : KDIIS, OOCD, Brueckner-CCSD(T), CCSD density, CASPT2, CASPT2-K
   Simone Kossmann        : Meta GGA functionals, TD-DFT gradient, OOMP2, MP2 Hessian
   Martin Krupicka        : Initial AUTO-CI
   Lucas Lang             : DCDCAS
   Marvin Lechner         : AUTO-CI (C++ implementation), FIC-MRCC
   Dagmar Lenk            : GEPOL surface, SMD
   Dimitrios Liakos       : Extrapolation schemes; Compound Job, initial MDCI parallelization
   Dimitrios Manganas     : Further ROCIS development; embedding schemes
   Dimitrios Pantazis     : SARC Basis sets
   Anastasios Papadopoulos: AUTO-CI, single reference methods and gradients
   Taras Petrenko         : DFT Hessian,TD-DFT gradient, ASA, ECA, R-Raman, ABS, FL, XAS/XES, NRVS
   Peter Pinski           : DLPNO-MP2, DLPNO-MP2 Gradient
   Christoph Reimann      : Effective Core Potentials
   Marius Retegan         : Local ZFS, SOC
   Christoph Riplinger    : Optimizer, TS searches, QM/MM, DLPNO-CCSD(T), (RO)-DLPNO pert. Triples
   Tobias Risthaus        : Range-separated hybrids, TD-DFT gradient, RPA, STAB
   Michael Roemelt        : Original ROCIS implementation
   Masaaki Saitow         : Open-shell DLPNO-CCSD energy and density
   Barbara Sandhoefer     : DKH picture change effects
   Avijit Sen             : IP-ROCIS
   Kantharuban Sivalingam : CASSCF convergence, NEVPT2, FIC-MRCI
   Bernardo de Souza      : ESD, SOC TD-DFT
   Georgi Stoychev        : AutoAux, RI-MP2 NMR, DLPNO-MP2 response
   Willem Van den Heuvel  : Paramagnetic NMR
   Boris Wezisla          : Elementary symmetry handling
   Frank Wennmohs         : Technical directorship


 We gratefully acknowledge several colleagues who have allowed us to
 interface, adapt or use parts of their codes:
   Stefan Grimme, W. Hujo, H. Kruse, P. Pracht,  : VdW corrections, initial TS optimization,
                  C. Bannwarth, S. Ehlert          DFT functionals, gCP, sTDA/sTD-DF
   Ed Valeev, F. Pavosevic, A. Kumar             : LibInt (2-el integral package), F12 methods
   Garnet Chan, S. Sharma, J. Yang, R. Olivares  : DMRG
   Ulf Ekstrom                                   : XCFun DFT Library
   Mihaly Kallay                                 : mrcc  (arbitrary order and MRCC methods)
   Jiri Pittner, Ondrej Demel                    : Mk-CCSD
   Frank Weinhold                                : gennbo (NPA and NBO analysis)
   Christopher J. Cramer and Donald G. Truhlar   : smd solvation model
   Lars Goerigk                                  : TD-DFT with DH, B97 family of functionals
   V. Asgeirsson, H. Jonsson                     : NEB implementation
   FAccTs GmbH                                   : IRC, NEB, NEB-TS, DLPNO-Multilevel, CI-OPT
                                                   MM, QMMM, 2- and 3-layer-ONIOM, Crystal-QMMM,
                                                   LR-CPCM, SF, NACMEs, symmetry and pop. for TD-DFT,
                                                   nearIR, NL-DFT gradient (VV10), updates on ESD,
                                                   ML-optimized integration grids
   S Lehtola, MJT Oliveira, MAL Marques          : LibXC Library
   Liviu Ungur et al                             : ANISO software


 Your calculation uses the libint2 library for the computation of 2-el integrals
 For citations please refer to: http://libint.valeyev.net

 Your ORCA version has been built with support for libXC version: 5.1.0
 For citations please refer to: https://tddft.org/programs/libxc/

 This ORCA versions uses:
   CBLAS   interface :  Fast vector & matrix operations
   LAPACKE interface :  Fast linear algebra routines
   SCALAPACK package :  Parallel linear algebra routines
   Shared memory     :  Shared parallel matrices
   BLAS/LAPACK       :  OpenBLAS 0.3.15  USE64BITINT DYNAMIC_ARCH NO_AFFINITY Sandybridge SINGLE_THREADED
        Core in use  :  Sandybridge
   Copyright (c) 2011-2014, The OpenBLAS Project




***************************************
The coordinates will be read from file: pbe.xyz
***************************************


================================================================================

cite the ECPs for Au [Def2-ECP] as follows:
Ce-Yb(ecp-28): M. Dolg, H. Stoll, H.Preuss, J. Chem. Phys., 1989, 90, 1730-1734.
Y-Cd(ecp-28), Hf-Hg(ecp-46): D. Andrae,U. Haeussermann, M. Dolg, H. Stoll, H. Preuss, Theor. Chim. Acta, 1990, 77, 123-141.
In-Sb(ecp-28), Tl-Bi(ecp-46): B. Metz, H. Stoll, M. Dolg, J. Chem. Phys., 2000, 113, 2563-2569.
Te-Xe(ecp-28), Po-Rn(ecp-46): K. A. Peterson, D. Figgen, E. Goll, H. Stoll, M. Dolg, J. Chem. Phys., 2003, 119, 11113-11123.
Rb(ecp-28), Cs(ecp-46): T. Leininger, A. Nicklass, W. Kuechle, H. Stoll, M. Dolg, A. Bergner, Chem. Phys. Lett., 1996, 255, 274-280.
Sr(ecp-28), Ba(ecp-46): M. Kaupp, P. V. Schleyer, H. Stoll and H. Preuss, J. Chem. Phys., 1991, 94, 1360-1366.
La(ecp-46): M. Dolg, H. Stoll, A. Savin, H. Preuss, Theor. Chim. Acta, 1989, 75, 173-194.
Lu(ecp-28): X. Cao, M. Dolg, J. Chem. Phys., 2001, 115, 7348-7355.

ECP parameters for Au [Def2-ECP] have been obtained from:
TURBOMOLE (7.0.2)

----- Orbital basis set information -----
Your calculation utilizes the basis: def2-TZVP
   F. Weigend and R. Ahlrichs, Phys. Chem. Chem. Phys. 7, 3297 (2005).

----- AuxJ basis set information -----
Your calculation utilizes the auxiliary basis: def2/J
   F. Weigend, Phys. Chem. Chem. Phys. 8, 1057 (2006).

----- AuxC basis set information -----
Your calculation utilizes the auxiliary basis: def2-TZVP/C
  H-La, Hf-Rn : A. Hellweg, C. Hattig, S. Hofener and W. Klopper, Theor. Chem. Acc. 117, 587 (2007).
        Ce-Lu : J. Chmela and M. E. Harding, Mol. Phys. (2018).

================================================================================
                                        WARNINGS
                       Please study these warnings very carefully!
================================================================================


IMPORTANT NOTE: CASSCF must signal convergence for a subsequent CASPT2/NEVPT2! 
                Set maxiter=1 to run CASPT2/NEVPT2 with arbitrary orbitals.


INFO   : the flag for use of the SHARK integral package has been found!

================================================================================
                                       INPUT FILE
================================================================================
NAME = nevpt2.inp
|  1> !SC-NEVPT2 def2-TZVP def2-TZVP/C
|  2> !MOREAD RIJCOSX def2/J
|  3> %maxcore 4000
|  4> %moinp "casscf.gbw"
|  5> %pal nprocs 6 end 
|  6> 
|  7> %casscf
|  8>  mult 6,4
|  9>  bweight 1,1
| 10>  nroots 1,24
| 11>  nel 5
| 12>  norb 5
| 13>  ptsettings
| 14>   d4tpre 1e-14 # default = 1e-10
| 15>   d3tpre 1e-14
| 16>  end
| 17>  rel           
| 18>    dosoc true   
| 19>    gtensor true 
| 20>  end           
| 21> end
| 22> 
| 23> 
| 24> *xyzfile 0 6 pbe.xyz
| 25> 
| 26> 
| 27>                          ****END OF INPUT****
================================================================================

                       ****************************
                       * Single Point Calculation *
                       ****************************

---------------------------------
CARTESIAN COORDINATES (ANGSTROEM)
---------------------------------
  Au     4.264621    5.552259    6.848960
  Au     8.015262    9.862266    7.969594
  Au     9.723380    9.107442    5.846305
  Au     4.656485    7.895376    8.509740
  Au     5.989329   10.072230    9.948679
  Au     6.140165    6.143541    4.841868
  Au     7.050532    8.749463    5.457020
  Au     4.385024    8.124637    5.720842
  Au     5.368732   10.223154    7.208894
  Au     9.539022    7.627135    8.279984
  Au     5.867558    7.505934   11.024300
  Au     7.892467    6.004408    9.862039
  Au     8.721921    6.475980    5.756566
  Au     5.195456    5.322627    9.418857
  Au     9.598401    4.880657    7.974562
  Au     6.943108    4.981530    7.256653
  Mn     8.168444    8.637665   10.313475

----------------------------
CARTESIAN COORDINATES (A.U.)
----------------------------
  NO LB      ZA    FRAG     MASS         X           Y           Z
   0 Au   19.0000*   0   196.966    8.058965   10.492249   12.942659
   1 Au   19.0000*   0   196.966   15.146650   18.636981   15.060350
   2 Au   19.0000*   0   196.966   18.374525   17.210571   11.047916
   3 Au   19.0000*   0   196.966    8.799482   14.920099   16.081077
   4 Au   19.0000*   0   196.966   11.318192   19.033755   18.800278
   5 Au   19.0000*   0   196.966   11.603231   11.609610    9.149805
   6 Au   19.0000*   0   196.966   13.323574   16.534089   10.312273
   7 Au   19.0000*   0   196.966    8.286495   15.353338   10.810825
   8 Au   19.0000*   0   196.966   10.145433   19.318961   13.622835
   9 Au   19.0000*   0   196.966   18.026139   14.413196   15.646901
  10 Au   19.0000*   0   196.966   11.088078   14.184160   20.832907
  11 Au   19.0000*   0   196.966   14.914600   11.346687   18.636553
  12 Au   19.0000*   0   196.966   16.482042   12.237829   10.878334
  13 Au   19.0000*   0   196.966    9.817989   10.058307   17.799060
  14 Au   19.0000*   0   196.966   18.138349    9.223104   15.069739
  15 Au   19.0000*   0   196.966   13.120573    9.413728   13.713087
  16 Mn   25.0000    0    54.940   15.436123   16.322821   19.489643
* core charge reduced due to ECP

--------------------------------
INTERNAL COORDINATES (ANGSTROEM)
--------------------------------
 Au     0   0   0     0.000000000000     0.00000000     0.00000000
 Au     1   0   0     5.822309531604     0.00000000     0.00000000
 Au     2   1   0     2.827681000174    92.69396538     0.00000000
 Au     1   2   3     2.898610942031    37.27295603   185.88884272
 Au     2   1   3     2.839940812789    74.29500344   181.62192927
 Au     1   2   3     2.809928755509    63.36768959   344.95621533
 Au     3   2   1     2.724666519241    63.24180059    34.44681499
 Au     7   3   2     2.750443877301   165.20159817   315.08520207
 Au     8   7   3     2.754224958304    62.13439063    70.39281436
 Au     2   1   3     2.722865569976    76.98410020   299.69766110
 Au     5   2   1     2.785257609917   103.42604626    52.26618542
 Au    11   5   2     2.775911281674   107.74638008     4.96090848
 Au     6   1   2     2.759103224055   114.40104965    45.49870814
 Au     1   2   3     2.742909773573    70.30765047   121.54472995
 Au    10   2   1     2.764046385626   144.59557693     7.67162364
 Au    15  10   2     2.752480399400    88.37721168   354.65133499
 Mn     5   2   1     2.634311042547    57.73315866    90.83736715

---------------------------
INTERNAL COORDINATES (A.U.)
---------------------------
 Au     0   0   0     0.000000000000     0.00000000     0.00000000
 Au     1   0   0    11.002570481651     0.00000000     0.00000000
 Au     2   1   0     5.343542684421    92.69396538     0.00000000
 Au     1   2   3     5.477580849226    37.27295603   185.88884272
 Au     2   1   3     5.366710372717    74.29500344   181.62192927
 Au     1   2   3     5.309995803742    63.36768959   344.95621533
 Au     3   2   1     5.148873527629    63.24180059    34.44681499
 Au     7   3   2     5.197585674820   165.20159817   315.08520207
 Au     8   7   3     5.204730882404    62.13439063    70.39281436
 Au     2   1   3     5.145470226738    76.98410020   299.69766110
 Au     5   2   1     5.263374095163   103.42604626    52.26618542
 Au    11   5   2     5.245712094427   107.74638008     4.96090848
 Au     6   1   2     5.213949468684   114.40104965    45.49870814
 Au     1   2   3     5.183348282110    70.30765047   121.54472995
 Au    10   2   1     5.223290690289   144.59557693     7.67162364
 Au    15  10   2     5.201434143853    88.37721168   354.65133499
 Mn     5   2   1     4.978126421978    57.73315866    90.83736715

---------------------
BASIS SET INFORMATION
---------------------
There are 2 groups of distinct atoms

 Group   1 Type Au  : 8s7p6d1f contracted to 6s4p3d1f pattern {311111/4111/411/1}
 Group   2 Type Mn  : 17s11p7d1f contracted to 6s4p4d1f pattern {842111/6311/4111/1}

Atom   0Au   basis set group =>   1
Atom   1Au   basis set group =>   1
Atom   2Au   basis set group =>   1
Atom   3Au   basis set group =>   1
Atom   4Au   basis set group =>   1
Atom   5Au   basis set group =>   1
Atom   6Au   basis set group =>   1
Atom   7Au   basis set group =>   1
Atom   8Au   basis set group =>   1
Atom   9Au   basis set group =>   1
Atom  10Au   basis set group =>   1
Atom  11Au   basis set group =>   1
Atom  12Au   basis set group =>   1
Atom  13Au   basis set group =>   1
Atom  14Au   basis set group =>   1
Atom  15Au   basis set group =>   1
Atom  16Mn   basis set group =>   2
---------------------------------
AUXILIARY/J BASIS SET INFORMATION
---------------------------------
There are 2 groups of distinct atoms

 Group   1 Type Au  : 11s5p5d3f3g contracted to 8s5p5d2f3g pattern {41111111/11111/11111/21/111}
 Group   2 Type Mn  : 19s5p5d3f3g contracted to 8s5p5d2f3g pattern {121111111/11111/11111/21/111}

Atom   0Au   basis set group =>   1
Atom   1Au   basis set group =>   1
Atom   2Au   basis set group =>   1
Atom   3Au   basis set group =>   1
Atom   4Au   basis set group =>   1
Atom   5Au   basis set group =>   1
Atom   6Au   basis set group =>   1
Atom   7Au   basis set group =>   1
Atom   8Au   basis set group =>   1
Atom   9Au   basis set group =>   1
Atom  10Au   basis set group =>   1
Atom  11Au   basis set group =>   1
Atom  12Au   basis set group =>   1
Atom  13Au   basis set group =>   1
Atom  14Au   basis set group =>   1
Atom  15Au   basis set group =>   1
Atom  16Mn   basis set group =>   2
---------------------------------
AUXILIARY/C BASIS SET INFORMATION
---------------------------------
There are 2 groups of distinct atoms

 Group   1 Type Au  : 8s8p7d5f3g2h contracted to 8s8p7d5f3g2h pattern {11111111/11111111/1111111/11111/111/11}
 Group   2 Type Mn  : 11s9p8d6f5g2h contracted to 9s8p8d6f5g2h pattern {311111111/21111111/11111111/111111/11111/11}

Atom   0Au   basis set group =>   1
Atom   1Au   basis set group =>   1
Atom   2Au   basis set group =>   1
Atom   3Au   basis set group =>   1
Atom   4Au   basis set group =>   1
Atom   5Au   basis set group =>   1
Atom   6Au   basis set group =>   1
Atom   7Au   basis set group =>   1
Atom   8Au   basis set group =>   1
Atom   9Au   basis set group =>   1
Atom  10Au   basis set group =>   1
Atom  11Au   basis set group =>   1
Atom  12Au   basis set group =>   1
Atom  13Au   basis set group =>   1
Atom  14Au   basis set group =>   1
Atom  15Au   basis set group =>   1
Atom  16Mn   basis set group =>   2
-------------------------
ECP PARAMETER INFORMATION
-------------------------

 Group 1, Type Au ECP Def2-ECP (replacing 60 core electrons, lmax=3)

Atom   0Au   ECP group =>   1
Atom   1Au   ECP group =>   1
Atom   2Au   ECP group =>   1
Atom   3Au   ECP group =>   1
Atom   4Au   ECP group =>   1
Atom   5Au   ECP group =>   1
Atom   6Au   ECP group =>   1
Atom   7Au   ECP group =>   1
Atom   8Au   ECP group =>   1
Atom   9Au   ECP group =>   1
Atom  10Au   ECP group =>   1
Atom  11Au   ECP group =>   1
Atom  12Au   ECP group =>   1
Atom  13Au   ECP group =>   1
Atom  14Au   ECP group =>   1
Atom  15Au   ECP group =>   1



           ************************************************************
           *        Program running with 6 parallel MPI-processes     *
           *              working on a common directory               *
           ************************************************************
------------------------------------------------------------------------------
                           ORCA GTO INTEGRAL CALCULATION
                           -- RI-GTO INTEGRALS CHOSEN --
------------------------------------------------------------------------------
------------------------------------------------------------------------------
                   ___                                                        
                  /   \      - P O W E R E D   B Y -                         
                 /     \                                                     
                 |  |  |   _    _      __       _____    __    __             
                 |  |  |  | |  | |    /  \     |  _  \  |  |  /  |          
                  \  \/   | |  | |   /    \    | | | |  |  | /  /          
                 / \  \   | |__| |  /  /\  \   | |_| |  |  |/  /          
                |  |  |   |  __  | /  /__\  \  |    /   |      \           
                |  |  |   | |  | | |   __   |  |    \   |  |\   \          
                \     /   | |  | | |  |  |  |  | |\  \  |  | \   \       
                 \___/    |_|  |_| |__|  |__|  |_| \__\ |__|  \__/        
                                                                              
                      - O R C A' S   B I G   F R I E N D -                    
                                      &                                       
                       - I N T E G R A L  F E E D E R -                       
                                                                              
 v1 FN, 2020, v2 2021                                                         
------------------------------------------------------------------------------


Reading SHARK input file nevpt2.SHARKINP.tmp ... ok
----------------------
SHARK INTEGRAL PACKAGE
----------------------

Number of atoms                             ...     17
Number of basis functions                   ...    685
Number of shells                            ...    239
Maximum angular momentum                    ...      3
Integral batch strategy                     ... SHARK/LIBINT Hybrid
RI-J (if used) integral strategy            ... SPLIT-RIJ (Revised 2003 algorithm where possible)
Printlevel                                  ...      1
Contraction scheme used                     ... SEGMENTED contraction
Coulomb Range Separation                    ... NOT USED
Exchange Range Separation                   ... NOT USED
Finite Nucleus Model                        ... NOT USED
Auxiliary Coulomb fitting basis             ... AVAILABLE
   # of basis functions in Aux-J            ...   1513
   # of shells in Aux-J                     ...    391
   Maximum angular momentum in Aux-J        ...      4
Auxiliary J/K fitting basis                 ... NOT available
Auxiliary Correlation fitting basis         ... AVAILABLE
   # of basis functions in Aux-C            ...   2598
   # of shells in Aux-C                     ...    566
   Maximum angular momentum in Aux-C        ...      5
Auxiliary 'external' fitting basis          ... NOT available
Integral threshold                          ...     1.000000e-10
Primitive cut-off                           ...     1.000000e-11
Primitive pair pre-selection threshold      ...     1.000000e-11

Calculating pre-screening integrals         ... done (  0.2 sec) Dimension = 239
Organizing shell pair data                  ... done (  1.0 sec)
Shell pair information
Total number of shell pairs                 ...     28680
Shell pairs after pre-screening             ...     21781
Total number of primitive shell pairs       ...     75765
Primitive shell pairs kept                  ...     40607
          la=0 lb=0:   3478 shell pairs
          la=1 lb=0:   4952 shell pairs
          la=1 lb=1:   1862 shell pairs
          la=2 lb=0:   4317 shell pairs
          la=2 lb=1:   3082 shell pairs
          la=2 lb=2:   1275 shell pairs
          la=3 lb=0:   1102 shell pairs
          la=3 lb=1:    852 shell pairs
          la=3 lb=2:    755 shell pairs
          la=3 lb=3:    106 shell pairs

Calculating one electron integrals          ... done (  0.1 sec)
Calculating ECP integrals                   ... done ( 16.5 sec)
Calculating RI/J V-Matrix + Cholesky decomp.... done (  0.2 sec)
Calculating RI/C V-Matrix + Cholesky decomp.... done (  0.6 sec)
Calculating Nuclear repulsion               ... done (  0.0 sec) ENN=   6779.561722129900 Eh

SHARK setup successfully completed in  19.2 seconds

Maximum memory used throughout the entire GTOINT-calculation: 60.3 MB


           ************************************************************
           *        Program running with 6 parallel MPI-processes     *
           *              working on a common directory               *
           ************************************************************
-------------------------------------------------------------------------------
                                 ORCA SCF
-------------------------------------------------------------------------------

------------
SCF SETTINGS
------------
Hamiltonian:
 Ab initio Hamiltonian  Method          .... Hartree-Fock(GTOs)
 RI-approximation to the Coulomb term is turned on
   Number of AuxJ basis functions       .... 1513
   RIJ-COSX (HFX calculated with COS-X)).... on


General Settings:
 Integral files         IntName         .... nevpt2
 Hartree-Fock type      HFTyp           .... CASSCF
 Total Charge           Charge          ....    0
 Multiplicity           Mult            ....    6
 Number of Electrons    NEL             ....  329
 Basis Dimension        Dim             ....  685
 Nuclear Repulsion      ENuc            ....   6779.5617221299 Eh


Diagonalization of the overlap matrix:
Smallest eigenvalue                        ... 4.284e-04
Time for diagonalization                   ...    0.157 sec
Threshold for overlap eigenvalues          ... 1.000e-08
Number of eigenvalues below threshold      ... 0
Time for construction of square roots      ...    0.089 sec
Total time needed                          ...    0.249 sec

---------------------
INITIAL GUESS: MOREAD
---------------------
Guess MOs are being read from file: casscf.gbw
Input Geometry matches current geometry (good)
Input basis set matches current basis set (good)
MOs were renormalized
Gram-Schmidt orthogonalization of all MOs with pivot on actives
                      ------------------
                      INITIAL GUESS DONE (  13.2 sec)
                      ------------------
--------------------
COSX GRID GENERATION
--------------------

GRIDX 1
-------
General Integration Accuracy     IntAcc      ... 3.816
Radial Grid Type                 RadialGrid  ... OptM3 with GC (2021)
Angular Grid (max. ang.)         AngularGrid ... 1 (Lebedev-50)
Angular grid pruning method      GridPruning ... 4 (adaptive)
Weight generation scheme         WeightScheme... Becke
Basis function cutoff            BFCut       ... 1.0000e-10
Integration weight cutoff        WCut        ... 1.0000e-14
Angular grids for H and He will be reduced by one unit
Partially contracted basis set               ... on
Rotationally invariant grid construction     ... off

Total number of grid points                  ...    19531
Total number of batches                      ...      314
Average number of points per batch           ...       62
Average number of grid points per atom       ...     1149
UseSFitting                                  ... on

GRIDX 2
-------
General Integration Accuracy     IntAcc      ... 4.020
Radial Grid Type                 RadialGrid  ... OptM3 with GC (2021)
Angular Grid (max. ang.)         AngularGrid ... 2 (Lebedev-110)
Angular grid pruning method      GridPruning ... 4 (adaptive)
Weight generation scheme         WeightScheme... Becke
Basis function cutoff            BFCut       ... 1.0000e-10
Integration weight cutoff        WCut        ... 1.0000e-14
Angular grids for H and He will be reduced by one unit
Partially contracted basis set               ... on
Rotationally invariant grid construction     ... off

Total number of grid points                  ...    59229
Total number of batches                      ...      935
Average number of points per batch           ...       63
Average number of grid points per atom       ...     3484
UseSFitting                                  ... on

GRIDX 3
-------
General Integration Accuracy     IntAcc      ... 4.338
Radial Grid Type                 RadialGrid  ... OptM3 with GC (2021)
Angular Grid (max. ang.)         AngularGrid ... 3 (Lebedev-194)
Angular grid pruning method      GridPruning ... 4 (adaptive)
Weight generation scheme         WeightScheme... Becke
Basis function cutoff            BFCut       ... 1.0000e-10
Integration weight cutoff        WCut        ... 1.0000e-14
Angular grids for H and He will be reduced by one unit
Partially contracted basis set               ... on
Rotationally invariant grid construction     ... off

Total number of grid points                  ...   107327
Total number of batches                      ...     1684
Average number of points per batch           ...       63
Average number of grid points per atom       ...     6313
UseSFitting                                  ... on

Time for X-Grid setup             =    2.438 sec



 ... the calculation is a CASSCF calculation -I'm leaving here GOOD LUCK!!!



           ************************************************************
           *        Program running with 6 parallel MPI-processes     *
           *              working on a common directory               *
           ************************************************************
-------------------------------------------------------------------------------
                              ORCA-CASSCF
-------------------------------------------------------------------------------

Setting up the integral package       ... done
Setting up the integral package (RI)  ... done
Building the CAS space                ... done (1 configurations for Mult=6)
Building the CAS space                ... done (21 configurations for Mult=4)

 CASSCF (estimated) memory needed     ... 192.6 MB
 NEVPT2 (estimated) memory needed     ... 763.8 MB


SYSTEM-SPECIFIC SETTINGS:
Number of active electrons          ...    5
Number of active orbitals           ...    5
Total number of electrons           ...  329
Total number of orbitals            ...  685
Total number aux. functions         ... 2598

Determined orbital ranges:
   Internal       0 -  161 ( 162 orbitals)
   Active       162 -  166 (   5 orbitals)
   External     167 -  684 ( 518 orbitals)
Number of rotation parameters      ...  87316

CI-STEP:
CI strategy                         ... General CI
Number of multiplicity blocks       ...    2
BLOCK  1 WEIGHT=   0.5000
  Multiplicity                      ...    6
  #(Configurations)                 ...    1
  #(CSFs)                           ...    1
  #(Roots)                          ...    1
    ROOT=0 WEIGHT=    0.500000

BLOCK  2 WEIGHT=   0.5000
  Multiplicity                      ...    4
  #(Configurations)                 ...   21
  #(CSFs)                           ...   24
  #(Roots)                          ...   24
    ROOT=0 WEIGHT=    0.020833
    ROOT=1 WEIGHT=    0.020833
    ROOT=2 WEIGHT=    0.020833
    ROOT=3 WEIGHT=    0.020833
    ROOT=4 WEIGHT=    0.020833
    ROOT=5 WEIGHT=    0.020833
    ROOT=6 WEIGHT=    0.020833
    ROOT=7 WEIGHT=    0.020833
    ROOT=8 WEIGHT=    0.020833
    ROOT=9 WEIGHT=    0.020833
    ROOT=10 WEIGHT=    0.020833
    ROOT=11 WEIGHT=    0.020833
    ROOT=12 WEIGHT=    0.020833
    ROOT=13 WEIGHT=    0.020833
    ROOT=14 WEIGHT=    0.020833
    ROOT=15 WEIGHT=    0.020833
    ROOT=16 WEIGHT=    0.020833
    ROOT=17 WEIGHT=    0.020833
    ROOT=18 WEIGHT=    0.020833
    ROOT=19 WEIGHT=    0.020833
    ROOT=20 WEIGHT=    0.020833
    ROOT=21 WEIGHT=    0.020833
    ROOT=22 WEIGHT=    0.020833
    ROOT=23 WEIGHT=    0.020833

  PrintLevel                        ...    1
  N(GuessMat)                       ...       512
  MaxDim(CI)                        ...        10
  MaxIter(CI)                       ...        64
  Energy Tolerance CI               ...  1.00e-08
  Residual Tolerance CI             ...  1.00e-08
  Shift(CI)                         ...  1.00e-04

INTEGRAL-TRANSFORMATION-STEP:
  Algorithm                         ... RI-MO

ORBITAL-IMPROVEMENT-STEP:
  Algorithm                         ... SuperCI(PT)
  Default Parametrization           ... CAYLEY
  Act-Act rotations                 ... depends on algorithm used

  Note: SuperCI(PT) will ignore FreezeIE, FreezeAct and FreezeGrad. In general Default settings are encouraged.
        In conjunction with ShiftUp, ShiftDn or GradScaling the performance of SuperCI(PT) is less optimal.  

  MaxRot                            ... 2.00e-01 
  Max. no of vectors (DIIS)         ... 15
  DThresh (cut-off) metric          ... 1.00e-06
  Switch step at gradient           ...  3.00e-02 
  Switch step at iteration          ...        50   
  Switch step to                    ... SuperCI(PT)    

SCF-SETTINGS:
  Incremental                       ... off
  RIJCOSX approximation             ... on
  UseFinalGrid                      ... on
  RI-JK approximation               ... off
  AO integral handling              ... DIRECT
  Integral Neglect Thresh           ...  1.00e-10
  Primitive cutoff TCut             ...  1.00e-11
  Energy convergence tolerance      ...  1.00e-07
  Orbital gradient convergence      ...  1.00e-03
  Max. number of iterations         ...        75  

PT2-SETTINGS:
  A PT2 calculation will be performed on top of the CASSCF wave function (PT2 = SC-NEVPT2)   
 CI step strategy                   ... General CI
  D4C handling                      ... on the fly 
  CI truncation for D4C at          ...  1.00e-14
  CI truncation for D3  at          ...  1.00e-14
  Orbitals                          ... canonical for each state 
  Last  frozen  orbital             ... 4
  First deleted orbital             ... 685
  RI Step                           ... store IJV(array) (MC_ONDISK during integral transformation) 

PROPERTIES-SETTINGS:
  Spin orbit coupling               ... true
  GTensor                           ... true
  QDPT diagonal energies            ... NEVPT2 energies 

FINAL ORBITALS:
  Active   Orbitals                 ... natural 
  Internal Orbitals                 ... canonical 
  External Orbitals                 ... canonical 

------------------
CAS-SCF ITERATIONS
------------------


MACRO-ITERATION   1: 
   --- Inactive Energy E0 = -3296.08112706 Eh
CI-ITERATION   0: 
 -3306.902873902   0.000000000000 (    0.00)
   CI-PROBLEM SOLVED
   DENSITIES MADE
CI-ITERATION   0: 
 -3306.764097701   0.000000000000 (    0.00)
 -3306.764076194   0.000000000000
 -3306.763946660   0.000000000000
 -3306.763882786   0.000000000000
 -3306.763867697   0.000000000000
 -3306.763722837   0.000000000000
 -3306.763669575   0.000000000000
 -3306.763652016   0.000000000000
 -3306.763400801   0.000000000000
 -3306.742631560   0.000000000000
 -3306.742489845   0.000000000000
 -3306.741967472   0.000000000000
 -3306.729668460   0.000000000000
 -3306.729651700   0.000000000000
 -3306.729489281   0.000000000000
 -3306.729121726   0.000000000000
 -3306.728767860   0.000000000000
 -3306.669282526   0.000000000000
 -3306.669066844   0.000000000000
 -3306.668860999   0.000000000000
 -3306.668602517   0.000000000000
 -3306.668316451   0.000000000000
 -3306.668025036   0.000000000000
 -3306.667664170   0.000000000000
   CI-PROBLEM SOLVED
   DENSITIES MADE

                 <<<<<<<<<<<<<<<<<<INITIAL CI STATE CHECK>>>>>>>>>>>>>>>>>>

BLOCK  1 MULT= 6 NROOTS= 1 
ROOT   0:  E=   -3306.9028739021 Eh
      1.00000 [     0]: 11111

BLOCK  2 MULT= 4 NROOTS=24 
ROOT   0:  E=   -3306.7640977007 Eh
      0.27887 [    10]: 11111
      0.20995 [     8]: 11201
      0.18773 [    12]: 11021
      0.09244 [     1]: 21101
      0.08064 [    19]: 01121
      0.04529 [    18]: 01211
      0.03318 [     2]: 21011
      0.02077 [     5]: 12101
      0.01476 [    14]: 10211
      0.01277 [    15]: 10121
      0.00794 [     6]: 12011
      0.00492 [    16]: 10112
      0.00439 [     4]: 12110
ROOT   1:  E=   -3306.7640761945 Eh  0.001 eV      4.7 cm**-1
      0.40803 [    10]: 11111
      0.19706 [     2]: 21011
      0.19249 [    18]: 01211
      0.04520 [     8]: 11201
      0.04135 [    12]: 11021
      0.04130 [    19]: 01121
      0.04011 [     1]: 21101
      0.01030 [     3]: 20111
      0.00703 [    17]: 02111
      0.00378 [     6]: 12011
      0.00326 [    20]: 01112
ROOT   2:  E=   -3306.7639466605 Eh  0.004 eV     33.1 cm**-1
      0.22583 [    10]: 11111
      0.13236 [    15]: 10121
      0.10060 [    14]: 10211
      0.08789 [     5]: 12101
      0.07972 [    16]: 10112
      0.07938 [     0]: 21110
      0.07623 [    20]: 01112
      0.05992 [     6]: 12011
      0.03369 [     7]: 11210
      0.02888 [     3]: 20111
      0.02029 [     4]: 12110
      0.01979 [    13]: 11012
      0.01430 [    11]: 11102
      0.01263 [     9]: 11120
      0.01205 [    17]: 02111
      0.00963 [    19]: 01121
      0.00356 [    12]: 11021
ROOT   3:  E=   -3306.7638827856 Eh  0.006 eV     47.2 cm**-1
      0.33512 [    10]: 11111
      0.15138 [    14]: 10211
      0.15001 [     6]: 12011
      0.06708 [    20]: 01112
      0.05578 [     0]: 21110
      0.04417 [    18]: 01211
      0.04174 [    11]: 11102
      0.03631 [     2]: 21011
      0.03561 [     9]: 11120
      0.02131 [     7]: 11210
      0.02033 [    13]: 11012
      0.01056 [    16]: 10112
      0.00746 [     4]: 12110
      0.00704 [     1]: 21101
      0.00501 [    19]: 01121
      0.00428 [    17]: 02111
      0.00297 [    12]: 11021
      0.00297 [     3]: 20111
ROOT   4:  E=   -3306.7638676973 Eh  0.006 eV     50.5 cm**-1
      0.25003 [    10]: 11111
      0.12159 [    13]: 11012
      0.11718 [     5]: 12101
      0.10461 [     7]: 11210
      0.09277 [    15]: 10121
      0.05108 [    18]: 01211
      0.04810 [     2]: 21011
      0.03090 [     3]: 20111
      0.03071 [    12]: 11021
      0.03018 [     8]: 11201
      0.02971 [    17]: 02111
      0.02255 [     1]: 21101
      0.02180 [    19]: 01121
      0.01344 [    16]: 10112
      0.01242 [     4]: 12110
      0.01216 [    20]: 01112
      0.00558 [     0]: 21110
ROOT   5:  E=   -3306.7637228374 Eh  0.010 eV     82.3 cm**-1
      0.27360 [    10]: 11111
      0.13895 [    17]: 02111
      0.13888 [    11]: 11102
      0.12606 [     3]: 20111
      0.08848 [     9]: 11120
      0.03506 [     1]: 21101
      0.02598 [    19]: 01121
      0.02574 [    16]: 10112
      0.02570 [     4]: 12110
      0.02167 [    12]: 11021
      0.02142 [     8]: 11201
      0.01603 [     0]: 21110
      0.01534 [     5]: 12101
      0.01147 [     6]: 12011
      0.01071 [    14]: 10211
      0.00639 [     7]: 11210
      0.00593 [    13]: 11012
      0.00453 [    15]: 10121
      0.00429 [     2]: 21011
      0.00270 [    20]: 01112
ROOT   6:  E=   -3306.7636695749 Eh  0.012 eV     94.0 cm**-1
      0.18196 [    10]: 11111
      0.07787 [    20]: 01112
      0.07290 [    13]: 11012
      0.06491 [     0]: 21110
      0.06289 [    11]: 11102
      0.05802 [     1]: 21101
      0.05793 [     9]: 11120
      0.05635 [    19]: 01121
      0.05237 [     7]: 11210
      0.05103 [    12]: 11021
      0.04211 [     8]: 11201
      0.03701 [    16]: 10112
      0.03384 [     4]: 12110
      0.02553 [     6]: 12011
      0.02207 [     3]: 20111
      0.02143 [    17]: 02111
      0.01862 [     2]: 21011
      0.01827 [    14]: 10211
      0.01687 [     5]: 12101
      0.01460 [    18]: 01211
      0.01342 [    15]: 10121
ROOT   7:  E=   -3306.7636520161 Eh  0.012 eV     97.8 cm**-1
      0.44479 [    10]: 11111
      0.12404 [    20]: 01112
      0.09215 [    15]: 10121
      0.09202 [     5]: 12101
      0.08129 [     0]: 21110
      0.02392 [    16]: 10112
      0.02298 [     8]: 11201
      0.02094 [    14]: 10211
      0.01769 [    18]: 01211
      0.01612 [     6]: 12011
      0.01603 [     2]: 21011
      0.01573 [    12]: 11021
      0.00987 [     4]: 12110
      0.00658 [    17]: 02111
      0.00541 [    19]: 01121
      0.00515 [     1]: 21101
      0.00348 [     3]: 20111
ROOT   8:  E=   -3306.7634008014 Eh  0.019 eV    153.0 cm**-1
      0.20457 [    16]: 10112
      0.20349 [     4]: 12110
      0.15730 [    10]: 11111
      0.09116 [     0]: 21110
      0.08185 [    20]: 01112
      0.05106 [    15]: 10121
      0.04307 [     5]: 12101
      0.02731 [    11]: 11102
      0.02586 [    13]: 11012
      0.02536 [     9]: 11120
      0.02341 [     7]: 11210
      0.01758 [     1]: 21101
      0.01720 [    19]: 01121
      0.01248 [    17]: 02111
      0.01009 [     3]: 20111
      0.00310 [     6]: 12011
ROOT   9:  E=   -3306.7426315604 Eh  0.584 eV   4711.3 cm**-1
      0.22043 [    12]: 11021
      0.16326 [     8]: 11201
      0.15351 [     2]: 21011
      0.13032 [    18]: 01211
      0.07251 [     4]: 12110
      0.07227 [    16]: 10112
      0.04382 [    19]: 01121
      0.04363 [     1]: 21101
      0.02798 [     5]: 12101
      0.02465 [    15]: 10121
      0.01080 [    11]: 11102
      0.00898 [    17]: 02111
      0.00841 [    10]: 11111
      0.00646 [    13]: 11012
      0.00401 [     9]: 11120
      0.00331 [     3]: 20111
      0.00287 [    14]: 10211
ROOT  10:  E=   -3306.7424898446 Eh  0.588 eV   4742.4 cm**-1
      0.28590 [    20]: 01112
      0.20190 [     0]: 21110
      0.15249 [     5]: 12101
      0.10067 [     2]: 21011
      0.08797 [    15]: 10121
      0.05375 [     9]: 11120
      0.02829 [    11]: 11102
      0.02283 [    18]: 01211
      0.02092 [    12]: 11021
      0.01417 [    10]: 11111
      0.00958 [     6]: 12011
      0.00657 [    14]: 10211
      0.00570 [     3]: 20111
      0.00545 [     1]: 21101
ROOT  11:  E=   -3306.7419674724 Eh  0.602 eV   4857.0 cm**-1
      0.19214 [     6]: 12011
      0.11790 [     5]: 12101
      0.11059 [     4]: 12110
      0.10203 [    16]: 10112
      0.08630 [    13]: 11012
      0.07900 [    15]: 10121
      0.05172 [    14]: 10211
      0.03541 [     1]: 21101
      0.03421 [    20]: 01112
      0.02598 [    19]: 01121
      0.02585 [     7]: 11210
      0.02496 [     3]: 20111
      0.02255 [     0]: 21110
      0.01621 [     8]: 11201
      0.01598 [    10]: 11111
      0.01541 [    12]: 11021
      0.01498 [    17]: 02111
      0.01259 [    18]: 01211
      0.00630 [     2]: 21011
      0.00570 [     9]: 11120
      0.00419 [    11]: 11102
ROOT  12:  E=   -3306.7296684597 Eh  0.937 eV   7556.3 cm**-1
      0.16378 [    11]: 11102
      0.14198 [     9]: 11120
      0.12693 [    17]: 02111
      0.10468 [     3]: 20111
      0.09686 [    10]: 11111
      0.08723 [     1]: 21101
      0.07176 [    16]: 10112
      0.07027 [    19]: 01121
      0.03682 [     4]: 12110
      0.02867 [    13]: 11012
      0.02349 [     7]: 11210
      0.01231 [    20]: 01112
      0.01004 [    14]: 10211
      0.00849 [    15]: 10121
      0.00673 [     5]: 12101
      0.00375 [     2]: 21011
      0.00310 [     6]: 12011
ROOT  13:  E=   -3306.7296517003 Eh  0.937 eV   7560.0 cm**-1
      0.39694 [    10]: 11111
      0.13035 [    19]: 01121
      0.11274 [     1]: 21101
      0.10423 [    17]: 02111
      0.10007 [     3]: 20111
      0.06310 [    11]: 11102
      0.03851 [     9]: 11120
      0.01905 [     4]: 12110
      0.00961 [    16]: 10112
      0.00622 [     5]: 12101
      0.00480 [     0]: 21110
      0.00434 [    20]: 01112
      0.00262 [    13]: 11012
ROOT  14:  E=   -3306.7294892809 Eh  0.942 eV   7595.7 cm**-1
      0.22621 [    10]: 11111
      0.20518 [    13]: 11012
      0.14666 [     7]: 11210
      0.10485 [     6]: 12011
      0.08013 [    14]: 10211
      0.03908 [    11]: 11102
      0.03900 [     9]: 11120
      0.03227 [    15]: 10121
      0.02711 [     5]: 12101
      0.02151 [    16]: 10112
      0.02053 [     3]: 20111
      0.01872 [     4]: 12110
      0.01626 [    17]: 02111
      0.00461 [    20]: 01112
      0.00390 [     1]: 21101
      0.00384 [    19]: 01121
      0.00383 [     0]: 21110
      0.00358 [     2]: 21011
ROOT  15:  E=   -3306.7291217260 Eh  0.952 eV   7676.3 cm**-1
      0.56933 [    10]: 11111
      0.12090 [    14]: 10211
      0.07340 [     4]: 12110
      0.05971 [     7]: 11210
      0.05778 [     6]: 12011
      0.02468 [    18]: 01211
      0.01899 [    13]: 11012
      0.01418 [     3]: 20111
      0.01346 [    17]: 02111
      0.01269 [     2]: 21011
      0.00890 [    19]: 01121
      0.00750 [    16]: 10112
      0.00539 [    15]: 10121
      0.00495 [     9]: 11120
      0.00378 [     8]: 11201
      0.00295 [    20]: 01112
ROOT  16:  E=   -3306.7287678598 Eh  0.961 eV   7754.0 cm**-1
      0.14644 [     8]: 11201
      0.13108 [    18]: 01211
      0.13021 [     0]: 21110
      0.11045 [    10]: 11111
      0.10644 [    12]: 11021
      0.10553 [    15]: 10121
      0.08738 [     2]: 21011
      0.02924 [     5]: 12101
      0.02881 [    16]: 10112
      0.02778 [    19]: 01121
      0.02320 [     4]: 12110
      0.02022 [    20]: 01112
      0.01760 [     1]: 21101
      0.01716 [    17]: 02111
      0.00944 [     3]: 20111
      0.00443 [    11]: 11102
      0.00294 [    14]: 10211
ROOT  17:  E=   -3306.6692825257 Eh  2.580 eV  20809.5 cm**-1
      0.17757 [    14]: 10211
      0.16262 [     6]: 12011
      0.08671 [    17]: 02111
      0.08303 [     3]: 20111
      0.07252 [    16]: 10112
      0.07154 [     4]: 12110
      0.06013 [     8]: 11201
      0.05670 [     9]: 11120
      0.05291 [    12]: 11021
      0.05070 [    11]: 11102
      0.03177 [     0]: 21110
      0.03143 [    20]: 01112
      0.02025 [     7]: 11210
      0.01820 [    13]: 11012
      0.00908 [    15]: 10121
      0.00672 [     5]: 12101
      0.00364 [     2]: 21011
      0.00314 [    18]: 01211
ROOT  18:  E=   -3306.6690668441 Eh  2.586 eV  20856.9 cm**-1
      0.12444 [     1]: 21101
      0.11788 [    19]: 01121
      0.09260 [     3]: 20111
      0.08387 [    17]: 02111
      0.08280 [     5]: 12101
      0.08210 [    15]: 10121
      0.07665 [    14]: 10211
      0.07239 [     6]: 12011
      0.06323 [     7]: 11210
      0.05649 [    13]: 11012
      0.05195 [    18]: 01211
      0.04335 [     2]: 21011
      0.01365 [    11]: 11102
      0.01295 [     9]: 11120
      0.00853 [     4]: 12110
      0.00680 [    16]: 10112
      0.00473 [    12]: 11021
      0.00362 [     8]: 11201
ROOT  19:  E=   -3306.6688609988 Eh  2.592 eV  20902.0 cm**-1
      0.12862 [    17]: 02111
      0.12014 [     3]: 20111
      0.11059 [     9]: 11120
      0.10958 [    11]: 11102
      0.09704 [     5]: 12101
      0.09630 [    15]: 10121
      0.08296 [    12]: 11021
      0.08161 [     8]: 11201
      0.04040 [    19]: 01121
      0.03936 [     1]: 21101
      0.01816 [    20]: 01112
      0.01613 [     0]: 21110
      0.01349 [    13]: 11012
      0.01318 [     7]: 11210
      0.00891 [     2]: 21011
      0.00888 [    18]: 01211
      0.00681 [     6]: 12011
      0.00459 [    14]: 10211
ROOT  20:  E=   -3306.6686025172 Eh  2.599 eV  20958.8 cm**-1
      0.21315 [    19]: 01121
      0.20288 [     1]: 21101
      0.14668 [     4]: 12110
      0.13070 [    16]: 10112
      0.07063 [    18]: 01211
      0.06312 [     2]: 21011
      0.04318 [    17]: 02111
      0.03745 [     3]: 20111
      0.02978 [     8]: 11201
      0.02766 [    12]: 11021
      0.00763 [     0]: 21110
      0.00691 [    20]: 01112
      0.00517 [     9]: 11120
      0.00507 [     7]: 11210
      0.00476 [    11]: 11102
      0.00329 [    13]: 11012
ROOT  21:  E=   -3306.6683164509 Eh  2.606 eV  21021.6 cm**-1
      0.14976 [    18]: 01211
      0.14048 [     2]: 21011
      0.10726 [     3]: 20111
      0.10043 [     8]: 11201
      0.09608 [    17]: 02111
      0.09181 [    12]: 11021
      0.08486 [     9]: 11120
      0.07436 [    11]: 11102
      0.03005 [     0]: 21110
      0.02952 [    19]: 01121
      0.02760 [     1]: 21101
      0.02350 [    20]: 01112
      0.01586 [     4]: 12110
      0.01465 [    16]: 10112
      0.00573 [     5]: 12101
      0.00531 [    15]: 10121
ROOT  22:  E=   -3306.6680250365 Eh  2.614 eV  21085.5 cm**-1
      0.32851 [     7]: 11210
      0.24409 [    13]: 11012
      0.11775 [    14]: 10211
      0.08601 [     6]: 12011
      0.07321 [     9]: 11120
      0.05226 [    11]: 11102
      0.02243 [    18]: 01211
      0.01969 [     0]: 21110
      0.01645 [     2]: 21011
      0.01352 [    20]: 01112
      0.00682 [    16]: 10112
      0.00567 [    15]: 10121
      0.00406 [     4]: 12110
      0.00388 [     5]: 12101
ROOT  23:  E=   -3306.6676641701 Eh  2.624 eV  21164.7 cm**-1
      0.14475 [     9]: 11120
      0.13215 [     0]: 21110
      0.09363 [    20]: 01112
      0.09295 [    11]: 11102
      0.07854 [     4]: 12110
      0.06732 [     7]: 11210
      0.05730 [    15]: 10121
      0.05233 [    16]: 10112
      0.04591 [    13]: 11012
      0.04200 [     5]: 12101
      0.03970 [     3]: 20111
      0.02501 [    17]: 02111
      0.02456 [    14]: 10211
      0.02314 [    19]: 01121
      0.02081 [     6]: 12011
      0.02005 [    12]: 11021
      0.01830 [     1]: 21101
      0.01799 [     8]: 11201

                 <<<<<<<<<<<<<<<<<<INITIAL CI STATE CHECK>>>>>>>>>>>>>>>>>>

   E(CAS)= -3306.814518674 Eh DE=    0.000000e+00
   --- Energy gap subspaces: Ext-Act = 0.131   Act-Int = 0.032
   N(occ)=  1.00000 1.00000 1.00000 1.00000 1.00000
   ||g|| =     6.533642e-04 Max(G)=   -5.473831e-05 Rot=164,161
                     ---- THE CAS-SCF GRADIENT HAS CONVERGED ----
                            --- FINALIZING ORBITALS ---
                    ---- DOING ONE FINAL ITERATION FOR PRINTING ----
   --- Forming Natural Orbitals
   --- Canonicalize Internal Space
   --- Canonicalize External Space

MACRO-ITERATION   2: 
   --- Inactive Energy E0 = -3296.08112706 Eh
   --- All densities will be recomputed
CI-ITERATION   0: 
 -3306.902873902   0.000000000000 (    0.00)
   CI-PROBLEM SOLVED
   DENSITIES MADE
CI-ITERATION   0: 
 -3306.764097701   0.000000000000 (    0.00)
 -3306.764076194   0.000000000000
 -3306.763946660   0.000000000000
 -3306.763882786   0.000000000000
 -3306.763867697   0.000000000000
 -3306.763722837   0.000000000000
 -3306.763669575   0.000000000000
 -3306.763652016   0.000000000000
 -3306.763400801   0.000000000000
 -3306.742631560   0.000000000000
 -3306.742489845   0.000000000000
 -3306.741967472   0.000000000000
 -3306.729668460   0.000000000000
 -3306.729651700   0.000000000000
 -3306.729489281   0.000000000000
 -3306.729121726   0.000000000000
 -3306.728767860   0.000000000000
 -3306.669282526   0.000000000000
 -3306.669066844   0.000000000000
 -3306.668860999   0.000000000000
 -3306.668602517   0.000000000000
 -3306.668316451   0.000000000000
 -3306.668025036   0.000000000000
 -3306.667664170   0.000000000000
   CI-PROBLEM SOLVED
   DENSITIES MADE
   E(CAS)= -3306.814518674 Eh DE=    1.332410e-10
   --- Energy gap subspaces: Ext-Act = 0.130   Act-Int = 0.032
   N(occ)=  1.00000 1.00000 1.00000 1.00000 1.00000
   ||g|| =     6.533642e-04 Max(G)=    5.106134e-05 Rot=170,157
--------------
CASSCF RESULTS
--------------

Final CASSCF energy       : -3306.814518674 Eh  -89982.9977 eV

----------------
ORBITAL ENERGIES
----------------

  NO   OCC          E(Eh)            E(eV) 
   0   2.0000    -240.568192     -6546.1933 
   1   2.0000     -29.147323      -793.1390 
   2   2.0000     -24.851680      -676.2486 
   3   2.0000     -24.851237      -676.2365 
   4   2.0000     -24.851199      -676.2355 
   5   2.0000      -4.720695      -128.4567 
   6   2.0000      -4.720487      -128.4510 
   7   2.0000      -4.719948      -128.4363 
   8   2.0000      -4.718670      -128.4015 
   9   2.0000      -4.717425      -128.3677 
  10   2.0000      -4.709827      -128.1609 
  11   2.0000      -4.709630      -128.1556 
  12   2.0000      -4.709348      -128.1479 
  13   2.0000      -4.706829      -128.0793 
  14   2.0000      -4.706768      -128.0777 
  15   2.0000      -4.705357      -128.0393 
  16   2.0000      -4.705009      -128.0298 
  17   2.0000      -4.704894      -128.0267 
  18   2.0000      -4.704588      -128.0184 
  19   2.0000      -4.703144      -127.9791 
  20   2.0000      -4.699782      -127.8876 
  21   2.0000      -3.850844      -104.7868 
  22   2.0000      -2.760268       -75.1107 
  23   2.0000      -2.759505       -75.0899 
  24   2.0000      -2.758494       -75.0624 
  25   2.0000      -2.757994       -75.0488 
  26   2.0000      -2.757605       -75.0382 
  27   2.0000      -2.756595       -75.0108 
  28   2.0000      -2.755433       -74.9792 
  29   2.0000      -2.754746       -74.9605 
  30   2.0000      -2.753937       -74.9384 
  31   2.0000      -2.753330       -74.9219 
  32   2.0000      -2.752276       -74.8932 
  33   2.0000      -2.751474       -74.8714 
  34   2.0000      -2.751326       -74.8674 
  35   2.0000      -2.750471       -74.8441 
  36   2.0000      -2.750074       -74.8333 
  37   2.0000      -2.749881       -74.8281 
  38   2.0000      -2.749330       -74.8131 
  39   2.0000      -2.748826       -74.7994 
  40   2.0000      -2.747404       -74.7607 
  41   2.0000      -2.746634       -74.7397 
  42   2.0000      -2.746240       -74.7290 
  43   2.0000      -2.745863       -74.7187 
  44   2.0000      -2.745290       -74.7031 
  45   2.0000      -2.745082       -74.6975 
  46   2.0000      -2.744288       -74.6759 
  47   2.0000      -2.744093       -74.6706 
  48   2.0000      -2.743787       -74.6622 
  49   2.0000      -2.743653       -74.6586 
  50   2.0000      -2.743147       -74.6448 
  51   2.0000      -2.742973       -74.6401 
  52   2.0000      -2.742616       -74.6304 
  53   2.0000      -2.741944       -74.6121 
  54   2.0000      -2.740784       -74.5805 
  55   2.0000      -2.740558       -74.5744 
  56   2.0000      -2.740041       -74.5603 
  57   2.0000      -2.739678       -74.5504 
  58   2.0000      -2.739307       -74.5403 
  59   2.0000      -2.739146       -74.5360 
  60   2.0000      -2.738991       -74.5317 
  61   2.0000      -2.738618       -74.5216 
  62   2.0000      -2.738582       -74.5206 
  63   2.0000      -2.737818       -74.4998 
  64   2.0000      -2.737572       -74.4931 
  65   2.0000      -2.736714       -74.4698 
  66   2.0000      -2.736484       -74.4635 
  67   2.0000      -2.735374       -74.4333 
  68   2.0000      -2.734637       -74.4132 
  69   2.0000      -2.732286       -74.3493 
  70   2.0000      -2.517612       -68.5077 
  71   2.0000      -2.515901       -68.4611 
  72   2.0000      -2.515624       -68.4536 
  73   2.0000      -0.560214       -15.2442 
  74   2.0000      -0.556367       -15.1395 
  75   2.0000      -0.555983       -15.1291 
  76   2.0000      -0.551446       -15.0056 
  77   2.0000      -0.549353       -14.9486 
  78   2.0000      -0.546841       -14.8803 
  79   2.0000      -0.545646       -14.8478 
  80   2.0000      -0.545234       -14.8366 
  81   2.0000      -0.544114       -14.8061 
  82   2.0000      -0.542506       -14.7623 
  83   2.0000      -0.539167       -14.6715 
  84   2.0000      -0.538962       -14.6659 
  85   2.0000      -0.538504       -14.6535 
  86   2.0000      -0.536809       -14.6073 
  87   2.0000      -0.535724       -14.5778 
  88   2.0000      -0.533620       -14.5205 
  89   2.0000      -0.531928       -14.4745 
  90   2.0000      -0.529847       -14.4179 
  91   2.0000      -0.527342       -14.3497 
  92   2.0000      -0.524696       -14.2777 
  93   2.0000      -0.523735       -14.2516 
  94   2.0000      -0.522821       -14.2267 
  95   2.0000      -0.522003       -14.2044 
  96   2.0000      -0.519285       -14.1305 
  97   2.0000      -0.517466       -14.0810 
  98   2.0000      -0.516797       -14.0628 
  99   2.0000      -0.513077       -13.9615 
 100   2.0000      -0.511727       -13.9248 
 101   2.0000      -0.509322       -13.8594 
 102   2.0000      -0.506358       -13.7787 
 103   2.0000      -0.499971       -13.6049 
 104   2.0000      -0.498059       -13.5529 
 105   2.0000      -0.492411       -13.3992 
 106   2.0000      -0.489984       -13.3331 
 107   2.0000      -0.489405       -13.3174 
 108   2.0000      -0.484922       -13.1954 
 109   2.0000      -0.484089       -13.1727 
 110   2.0000      -0.481371       -13.0988 
 111   2.0000      -0.478567       -13.0225 
 112   2.0000      -0.477613       -12.9965 
 113   2.0000      -0.475860       -12.9488 
 114   2.0000      -0.473781       -12.8922 
 115   2.0000      -0.470357       -12.7991 
 116   2.0000      -0.468540       -12.7496 
 117   2.0000      -0.465359       -12.6631 
 118   2.0000      -0.464430       -12.6378 
 119   2.0000      -0.462820       -12.5940 
 120   2.0000      -0.461061       -12.5461 
 121   2.0000      -0.458174       -12.4675 
 122   2.0000      -0.457607       -12.4521 
 123   2.0000      -0.455031       -12.3820 
 124   2.0000      -0.451291       -12.2803 
 125   2.0000      -0.449664       -12.2360 
 126   2.0000      -0.449448       -12.2301 
 127   2.0000      -0.448604       -12.2071 
 128   2.0000      -0.447657       -12.1814 
 129   2.0000      -0.444232       -12.0882 
 130   2.0000      -0.440093       -11.9755 
 131   2.0000      -0.438210       -11.9243 
 132   2.0000      -0.436882       -11.8882 
 133   2.0000      -0.434672       -11.8280 
 134   2.0000      -0.432515       -11.7693 
 135   2.0000      -0.431544       -11.7429 
 136   2.0000      -0.429781       -11.6949 
 137   2.0000      -0.428454       -11.6588 
 138   2.0000      -0.426815       -11.6142 
 139   2.0000      -0.425572       -11.5804 
 140   2.0000      -0.424376       -11.5479 
 141   2.0000      -0.422584       -11.4991 
 142   2.0000      -0.421089       -11.4584 
 143   2.0000      -0.419783       -11.4229 
 144   2.0000      -0.416216       -11.3258 
 145   2.0000      -0.414238       -11.2720 
 146   2.0000      -0.413377       -11.2486 
 147   2.0000      -0.405900       -11.0451 
 148   2.0000      -0.405330       -11.0296 
 149   2.0000      -0.401556       -10.9269 
 150   2.0000      -0.396852       -10.7989 
 151   2.0000      -0.394616       -10.7381 
 152   2.0000      -0.390811       -10.6345 
 153   2.0000      -0.384847       -10.4722 
 154   2.0000      -0.376025       -10.2322 
 155   2.0000      -0.368668       -10.0320 
 156   2.0000      -0.364688        -9.9237 
 157   2.0000      -0.270099        -7.3498 
 158   2.0000      -0.249079        -6.7778 
 159   2.0000      -0.241010        -6.5582 
 160   2.0000      -0.236845        -6.4449 
 161   2.0000      -0.204674        -5.5695 
 162   1.0000      -0.169171        -4.6034 
 163   1.0000      -0.171010        -4.6534 
 164   1.0000      -0.172810        -4.7024 
 165   1.0000      -0.167908        -4.5690 
 166   1.0000      -0.169416        -4.6101 
 167   0.0000      -0.037673        -1.0251 
 168   0.0000      -0.011916        -0.3243 
 169   0.0000      -0.008942        -0.2433 
 170   0.0000      -0.008053        -0.2191 
 171   0.0000      -0.004739        -0.1289 
 172   0.0000       0.001582         0.0430 
 173   0.0000       0.007492         0.2039 
 174   0.0000       0.011518         0.3134 
 175   0.0000       0.031323         0.8524 
 176   0.0000       0.039789         1.0827 
 177   0.0000       0.043865         1.1936 
 178   0.0000       0.071587         1.9480 
 179   0.0000       0.078371         2.1326 
 180   0.0000       0.087718         2.3869 
 181   0.0000       0.089002         2.4219 
 182   0.0000       0.090916         2.4739 
 183   0.0000       0.096928         2.6375 
 184   0.0000       0.098324         2.6755 
 185   0.0000       0.108543         2.9536 
 186   0.0000       0.110158         2.9975 
 187   0.0000       0.112601         3.0640 
 188   0.0000       0.118729         3.2308 
 189   0.0000       0.121056         3.2941 
 190   0.0000       0.122741         3.3399 
 191   0.0000       0.127489         3.4691 
 192   0.0000       0.135766         3.6944 
 193   0.0000       0.142160         3.8684 
 194   0.0000       0.145930         3.9710 
 195   0.0000       0.149429         4.0662 
 196   0.0000       0.150059         4.0833 
 197   0.0000       0.154257         4.1975 
 198   0.0000       0.155320         4.2265 
 199   0.0000       0.167200         4.5498 
 200   0.0000       0.173335         4.7167 
 201   0.0000       0.175764         4.7828 
 202   0.0000       0.180710         4.9174 
 203   0.0000       0.181789         4.9467 
 204   0.0000       0.182212         4.9582 
 205   0.0000       0.184632         5.0241 
 206   0.0000       0.187684         5.1071 
 207   0.0000       0.190107         5.1731 
 208   0.0000       0.191950         5.2232 
 209   0.0000       0.193638         5.2692 
 210   0.0000       0.197928         5.3859 
 211   0.0000       0.203375         5.5341 
 212   0.0000       0.205444         5.5904 
 213   0.0000       0.218896         5.9565 
 214   0.0000       0.222376         6.0512 
 215   0.0000       0.223130         6.0717 
 216   0.0000       0.234949         6.3933 
 217   0.0000       0.236169         6.4265 
 218   0.0000       0.236809         6.4439 
 219   0.0000       0.244049         6.6409 
 220   0.0000       0.245056         6.6683 
 221   0.0000       0.247042         6.7224 
 222   0.0000       0.255393         6.9496 
 223   0.0000       0.255461         6.9514 
 224   0.0000       0.279082         7.5942 
 225   0.0000       0.296786         8.0760 
 226   0.0000       0.300408         8.1745 
 227   0.0000       0.304762         8.2930 
 228   0.0000       0.311171         8.4674 
 229   0.0000       0.327640         8.9155 
 230   0.0000       0.340744         9.2721 
 231   0.0000       0.345742         9.4081 
 232   0.0000       0.354518         9.6469 
 233   0.0000       0.357861         9.7379 
 234   0.0000       0.369619        10.0579 
 235   0.0000       0.371751        10.1159 
 236   0.0000       0.378284        10.2936 
 237   0.0000       0.381787        10.3890 
 238   0.0000       0.387181        10.5357 
 239   0.0000       0.393596        10.7103 
 240   0.0000       0.396293        10.7837 
 241   0.0000       0.404728        11.0132 
 242   0.0000       0.408291        11.1102 
 243   0.0000       0.410318        11.1653 
 244   0.0000       0.411957        11.2099 
 245   0.0000       0.415879        11.3167 
 246   0.0000       0.419015        11.4020 
 247   0.0000       0.425289        11.5727 
 248   0.0000       0.427672        11.6376 
 249   0.0000       0.435922        11.8620 
 250   0.0000       0.440039        11.9741 
 251   0.0000       0.446875        12.1601 
 252   0.0000       0.451115        12.2755 
 253   0.0000       0.455743        12.4014 
 254   0.0000       0.458341        12.4721 
 255   0.0000       0.466267        12.6878 
 256   0.0000       0.470461        12.8019 
 257   0.0000       0.483753        13.1636 
 258   0.0000       0.485099        13.2002 
 259   0.0000       0.487431        13.2637 
 260   0.0000       0.499882        13.6025 
 261   0.0000       0.503692        13.7062 
 262   0.0000       0.504634        13.7318 
 263   0.0000       0.508275        13.8309 
 264   0.0000       0.510641        13.8953 
 265   0.0000       0.514721        14.0063 
 266   0.0000       0.516226        14.0472 
 267   0.0000       0.525600        14.3023 
 268   0.0000       0.526422        14.3247 
 269   0.0000       0.528119        14.3709 
 270   0.0000       0.531744        14.4695 
 271   0.0000       0.535356        14.5678 
 272   0.0000       0.538530        14.6541 
 273   0.0000       0.540473        14.7070 
 274   0.0000       0.542984        14.7754 
 275   0.0000       0.552808        15.0427 
 276   0.0000       0.559013        15.2115 
 277   0.0000       0.560170        15.2430 
 278   0.0000       0.566454        15.4140 
 279   0.0000       0.568613        15.4728 
 280   0.0000       0.571339        15.5469 
 281   0.0000       0.574081        15.6215 
 282   0.0000       0.580009        15.7828 
 283   0.0000       0.582975        15.8636 
 284   0.0000       0.586347        15.9553 
 285   0.0000       0.595051        16.1922 
 286   0.0000       0.597063        16.2469 
 287   0.0000       0.602192        16.3865 
 288   0.0000       0.608078        16.5467 
 289   0.0000       0.614162        16.7122 
 290   0.0000       0.617006        16.7896 
 291   0.0000       0.626544        17.0491 
 292   0.0000       0.630996        17.1703 
 293   0.0000       0.635098        17.2819 
 294   0.0000       0.640656        17.4331 
 295   0.0000       0.644114        17.5272 
 296   0.0000       0.648738        17.6531 
 297   0.0000       0.656000        17.8507 
 298   0.0000       0.658723        17.9248 
 299   0.0000       0.663641        18.0586 
 300   0.0000       0.666371        18.1329 
 301   0.0000       0.670434        18.2434 
 302   0.0000       0.677197        18.4275 
 303   0.0000       0.680628        18.5208 
 304   0.0000       0.681876        18.5548 
 305   0.0000       0.682729        18.5780 
 306   0.0000       0.690908        18.8006 
 307   0.0000       0.692879        18.8542 
 308   0.0000       0.697353        18.9760 
 309   0.0000       0.697932        18.9917 
 310   0.0000       0.704416        19.1681 
 311   0.0000       0.705830        19.2066 
 312   0.0000       0.711895        19.3717 
 313   0.0000       0.717045        19.5118 
 314   0.0000       0.721576        19.6351 
 315   0.0000       0.726415        19.7668 
 316   0.0000       0.727867        19.8063 
 317   0.0000       0.734254        19.9801 
 318   0.0000       0.737322        20.0636 
 319   0.0000       0.747147        20.3309 
 320   0.0000       0.749953        20.4073 
 321   0.0000       0.764690        20.8083 
 322   0.0000       0.772944        21.0329 
 323   0.0000       0.802721        21.8431 
 324   0.0000       0.806359        21.9421 
 325   0.0000       0.807250        21.9664 
 326   0.0000       0.811057        22.0700 
 327   0.0000       0.815283        22.1850 
 328   0.0000       0.897858        24.4320 
 329   0.0000       0.937146        25.5010 
 330   0.0000       0.945033        25.7157 
 331   0.0000       0.950445        25.8629 
 332   0.0000       0.955884        26.0109 
 333   0.0000       0.968436        26.3525 
 334   0.0000       0.978651        26.6305 
 335   0.0000       0.981534        26.7089 
 336   0.0000       0.983617        26.7656 
 337   0.0000       0.999595        27.2004 
 338   0.0000       1.003575        27.3087 
 339   0.0000       1.016415        27.6581 
 340   0.0000       1.026366        27.9288 
 341   0.0000       1.041722        28.3467 
 342   0.0000       1.054663        28.6988 
 343   0.0000       1.067678        29.0530 
 344   0.0000       1.071078        29.1455 
 345   0.0000       1.073886        29.2219 
 346   0.0000       1.085176        29.5291 
 347   0.0000       1.088443        29.6180 
 348   0.0000       1.095256        29.8034 
 349   0.0000       1.107788        30.1444 
 350   0.0000       1.115117        30.3439 
 351   0.0000       1.122157        30.5355 
 352   0.0000       1.128230        30.7007 
 353   0.0000       1.134948        30.8835 
 354   0.0000       1.141527        31.0625 
 355   0.0000       1.141981        31.0749 
 356   0.0000       1.155242        31.4357 
 357   0.0000       1.162396        31.6304 
 358   0.0000       1.176429        32.0123 
 359   0.0000       1.180047        32.1107 
 360   0.0000       1.192277        32.4435 
 361   0.0000       1.200583        32.6695 
 362   0.0000       1.209152        32.9027 
 363   0.0000       1.213662        33.0254 
 364   0.0000       1.222734        33.2723 
 365   0.0000       1.230109        33.4730 
 366   0.0000       1.239401        33.7258 
 367   0.0000       1.247159        33.9369 
 368   0.0000       1.254633        34.1403 
 369   0.0000       1.256297        34.1856 
 370   0.0000       1.261623        34.3305 
 371   0.0000       1.275231        34.7008 
 372   0.0000       1.286768        35.0147 
 373   0.0000       1.294155        35.2157 
 374   0.0000       1.302785        35.4506 
 375   0.0000       1.319954        35.9178 
 376   0.0000       1.327642        36.1270 
 377   0.0000       1.334439        36.3119 
 378   0.0000       1.350343        36.7447 
 379   0.0000       1.377029        37.4709 
 380   0.0000       1.394977        37.9593 
 381   0.0000       1.547152        42.1001 
 382   0.0000       1.556101        42.3437 
 383   0.0000       1.573837        42.8263 
 384   0.0000       1.581295        43.0292 
 385   0.0000       1.588329        43.2206 
 386   0.0000       1.598213        43.4896 
 387   0.0000       1.607957        43.7547 
 388   0.0000       1.613663        43.9100 
 389   0.0000       1.629504        44.3411 
 390   0.0000       1.638760        44.5929 
 391   0.0000       1.641201        44.6594 
 392   0.0000       1.663204        45.2581 
 393   0.0000       1.667545        45.3762 
 394   0.0000       1.670518        45.4571 
 395   0.0000       1.671209        45.4759 
 396   0.0000       1.690786        46.0086 
 397   0.0000       1.696198        46.1559 
 398   0.0000       1.699576        46.2478 
 399   0.0000       1.710492        46.5449 
 400   0.0000       1.715725        46.6873 
 401   0.0000       1.726204        46.9724 
 402   0.0000       1.731659        47.1208 
 403   0.0000       1.735793        47.2333 
 404   0.0000       1.739755        47.3411 
 405   0.0000       1.742494        47.4157 
 406   0.0000       1.744118        47.4599 
 407   0.0000       1.747692        47.5571 
 408   0.0000       1.753519        47.7157 
 409   0.0000       1.762743        47.9667 
 410   0.0000       1.763759        47.9943 
 411   0.0000       1.764521        48.0150 
 412   0.0000       1.773490        48.2591 
 413   0.0000       1.781773        48.4845 
 414   0.0000       1.786428        48.6112 
 415   0.0000       1.792573        48.7784 
 416   0.0000       1.793130        48.7936 
 417   0.0000       1.794723        48.8369 
 418   0.0000       1.798673        48.9444 
 419   0.0000       1.806570        49.1593 
 420   0.0000       1.813576        49.3499 
 421   0.0000       1.815528        49.4030 
 422   0.0000       1.818005        49.4704 
 423   0.0000       1.821181        49.5569 
 424   0.0000       1.822453        49.5915 
 425   0.0000       1.826580        49.7038 
 426   0.0000       1.829824        49.7921 
 427   0.0000       1.831357        49.8338 
 428   0.0000       1.833999        49.9057 
 429   0.0000       1.835987        49.9597 
 430   0.0000       1.840875        50.0928 
 431   0.0000       1.843727        50.1704 
 432   0.0000       1.844791        50.1993 
 433   0.0000       1.846018        50.2327 
 434   0.0000       1.848027        50.2874 
 435   0.0000       1.850331        50.3501 
 436   0.0000       1.852791        50.4170 
 437   0.0000       1.853925        50.4479 
 438   0.0000       1.854855        50.4732 
 439   0.0000       1.856908        50.5290 
 440   0.0000       1.860612        50.6298 
 441   0.0000       1.862920        50.6926 
 442   0.0000       1.866984        50.8032 
 443   0.0000       1.868847        50.8539 
 444   0.0000       1.869485        50.8713 
 445   0.0000       1.870410        50.8964 
 446   0.0000       1.873131        50.9705 
 447   0.0000       1.874338        51.0033 
 448   0.0000       1.876953        51.0745 
 449   0.0000       1.877253        51.0827 
 450   0.0000       1.879333        51.1393 
 451   0.0000       1.879707        51.1494 
 452   0.0000       1.880484        51.1706 
 453   0.0000       1.881097        51.1873 
 454   0.0000       1.882228        51.2180 
 455   0.0000       1.882753        51.2323 
 456   0.0000       1.883558        51.2542 
 457   0.0000       1.883963        51.2653 
 458   0.0000       1.885694        51.3123 
 459   0.0000       1.887414        51.3592 
 460   0.0000       1.888423        51.3866 
 461   0.0000       1.890370        51.4396 
 462   0.0000       1.891890        51.4809 
 463   0.0000       1.893452        51.5234 
 464   0.0000       1.895188        51.5707 
 465   0.0000       1.896999        51.6200 
 466   0.0000       1.899263        51.6816 
 467   0.0000       1.900267        51.7089 
 468   0.0000       1.902417        51.7674 
 469   0.0000       1.903436        51.7951 
 470   0.0000       1.904376        51.8207 
 471   0.0000       1.905611        51.8543 
 472   0.0000       1.906915        51.8898 
 473   0.0000       1.908812        51.9414 
 474   0.0000       1.910081        51.9760 
 475   0.0000       1.911501        52.0146 
 476   0.0000       1.911990        52.0279 
 477   0.0000       1.913721        52.0750 
 478   0.0000       1.915376        52.1200 
 479   0.0000       1.916915        52.1619 
 480   0.0000       1.917628        52.1813 
 481   0.0000       1.919819        52.2409 
 482   0.0000       1.921276        52.2806 
 483   0.0000       1.922633        52.3175 
 484   0.0000       1.923973        52.3540 
 485   0.0000       1.927338        52.4455 
 486   0.0000       1.931740        52.5653 
 487   0.0000       1.932848        52.5955 
 488   0.0000       1.935936        52.6795 
 489   0.0000       1.937777        52.7296 
 490   0.0000       1.940518        52.8042 
 491   0.0000       1.941607        52.8338 
 492   0.0000       1.944571        52.9145 
 493   0.0000       1.947479        52.9936 
 494   0.0000       1.948326        53.0166 
 495   0.0000       1.952072        53.1186 
 496   0.0000       1.953009        53.1441 
 497   0.0000       1.955225        53.2044 
 498   0.0000       1.957937        53.2782 
 499   0.0000       1.959784        53.3284 
 500   0.0000       1.961945        53.3872 
 501   0.0000       1.963413        53.4272 
 502   0.0000       1.965606        53.4869 
 503   0.0000       1.968867        53.5756 
 504   0.0000       1.969040        53.5803 
 505   0.0000       1.973727        53.7078 
 506   0.0000       1.975991        53.7694 
 507   0.0000       1.977362        53.8068 
 508   0.0000       1.980670        53.8968 
 509   0.0000       1.983741        53.9803 
 510   0.0000       1.985618        54.0314 
 511   0.0000       1.990044        54.1518 
 512   0.0000       1.991578        54.1936 
 513   0.0000       1.992465        54.2177 
 514   0.0000       1.997328        54.3500 
 515   0.0000       2.001354        54.4596 
 516   0.0000       2.003436        54.5163 
 517   0.0000       2.004648        54.5492 
 518   0.0000       2.007755        54.6338 
 519   0.0000       2.008940        54.6660 
 520   0.0000       2.011437        54.7340 
 521   0.0000       2.017313        54.8939 
 522   0.0000       2.018816        54.9348 
 523   0.0000       2.021348        55.0037 
 524   0.0000       2.022967        55.0477 
 525   0.0000       2.029223        55.2180 
 526   0.0000       2.030781        55.2604 
 527   0.0000       2.032567        55.3089 
 528   0.0000       2.038667        55.4749 
 529   0.0000       2.039065        55.4858 
 530   0.0000       2.051485        55.8237 
 531   0.0000       2.052167        55.8423 
 532   0.0000       2.059425        56.0398 
 533   0.0000       2.063352        56.1467 
 534   0.0000       2.068133        56.2768 
 535   0.0000       2.077813        56.5402 
 536   0.0000       2.087078        56.7923 
 537   0.0000       2.090396        56.8826 
 538   0.0000       2.096369        57.0451 
 539   0.0000       2.109974        57.4153 
 540   0.0000       2.114961        57.5510 
 541   0.0000       2.121276        57.7229 
 542   0.0000       2.126844        57.8744 
 543   0.0000       2.141622        58.2765 
 544   0.0000       2.145653        58.3862 
 545   0.0000       2.156911        58.6925 
 546   0.0000       2.164680        58.9039 
 547   0.0000       2.172245        59.1098 
 548   0.0000       2.177811        59.2613 
 549   0.0000       2.185405        59.4679 
 550   0.0000       2.192150        59.6514 
 551   0.0000       2.193069        59.6765 
 552   0.0000       2.198538        59.8253 
 553   0.0000       2.203330        59.9557 
 554   0.0000       2.211735        60.1844 
 555   0.0000       2.219088        60.3845 
 556   0.0000       2.221045        60.4377 
 557   0.0000       2.226397        60.5833 
 558   0.0000       2.230956        60.7074 
 559   0.0000       2.237168        60.8764 
 560   0.0000       2.241422        60.9922 
 561   0.0000       2.244190        61.0675 
 562   0.0000       2.253769        61.3282 
 563   0.0000       2.266925        61.6862 
 564   0.0000       2.273689        61.8702 
 565   0.0000       2.275719        61.9255 
 566   0.0000       2.277991        61.9873 
 567   0.0000       2.282419        62.1078 
 568   0.0000       2.301710        62.6327 
 569   0.0000       2.324696        63.2582 
 570   0.0000       2.340693        63.6935 
 571   0.0000       2.349446        63.9317 
 572   0.0000       2.374206        64.6054 
 573   0.0000       2.380423        64.7746 
 574   0.0000       2.444752        66.5251 
 575   0.0000       2.460171        66.9447 
 576   0.0000       2.583007        70.2872 
 577   0.0000       2.768127        75.3246 
 578   0.0000       2.784166        75.7610 
 579   0.0000       2.788798        75.8871 
 580   0.0000       2.854900        77.6858 
 581   0.0000       2.915899        79.3456 
 582   0.0000       2.930038        79.7304 
 583   0.0000       2.956867        80.4604 
 584   0.0000       2.977817        81.0305 
 585   0.0000       3.000600        81.6505 
 586   0.0000       3.006031        81.7983 
 587   0.0000       3.034102        82.5621 
 588   0.0000       3.039804        82.7173 
 589   0.0000       3.069277        83.5193 
 590   0.0000       3.092102        84.1404 
 591   0.0000       3.101387        84.3930 
 592   0.0000       3.218090        87.5687 
 593   0.0000       3.744012       101.8797 
 594   0.0000       3.748518       102.0023 
 595   0.0000       3.750617       102.0595 
 596   0.0000       3.753003       102.1244 
 597   0.0000       3.754787       102.1729 
 598   0.0000       3.761504       102.3557 
 599   0.0000       3.762281       102.3769 
 600   0.0000       3.787905       103.0741 
 601   0.0000       3.863808       105.1396 
 602   0.0000       3.871012       105.3356 
 603   0.0000       3.894414       105.9724 
 604   0.0000       3.916739       106.5799 
 605   0.0000      24.461720       665.6373 
 606   0.0000      24.711645       672.4381 
 607   0.0000      24.838330       675.8853 
 608   0.0000      24.905912       677.7243 
 609   0.0000      25.009585       680.5454 
 610   0.0000      25.040026       681.3738 
 611   0.0000      25.196781       685.6393 
 612   0.0000      25.225912       686.4320 
 613   0.0000      25.372240       690.4138 
 614   0.0000      25.410875       691.4651 
 615   0.0000      25.560392       695.5336 
 616   0.0000      25.613468       696.9779 
 617   0.0000      25.677043       698.7079 
 618   0.0000      25.831034       702.8982 
 619   0.0000      25.877994       704.1760 
 620   0.0000      26.039223       708.5633 
 621   0.0000      26.097947       710.1612 
 622   0.0000      26.135501       711.1831 
 623   0.0000      26.223754       713.5846 
 624   0.0000      26.293420       715.4803 
 625   0.0000      26.401717       718.4272 
 626   0.0000      26.521028       721.6739 
 627   0.0000      26.622541       724.4362 
 628   0.0000      26.687976       726.2168 
 629   0.0000      26.699243       726.5233 
 630   0.0000      26.743671       727.7323 
 631   0.0000      26.759190       728.1546 
 632   0.0000      26.867852       731.1114 
[...]
 3 96   43944.5    227.6   0.000000000   0.00000   0.00000   0.00001   0.00001
 3 97   43944.5    227.6   0.000000000   0.00000   0.00000   0.00001   0.00001
 3 98   44078.0    226.9   0.000000000   0.00000   0.00002   0.00001   0.00001
 3 99   44078.0    226.9   0.000000000   0.00000   0.00000   0.00001   0.00001
 3 100   44095.5    226.8   0.000000000   0.00000   0.00000   0.00000   0.00001
 3 101   44095.5    226.8   0.000000000   0.00000   0.00000   0.00000   0.00001
 4  5       0.0      0.0   0.000000000   0.00000   0.00000   0.00000   0.00000
 4  6   27076.4    369.3   0.000000000   0.00000   0.00004   0.00012   0.00019
 4  7   27076.4    369.3   0.000000001   0.00000   0.00011   0.00024   0.00043
 4  8   27080.1    369.3   0.000000000   0.00000   0.00002   0.00001   0.00008
 4  9   27080.1    369.3   0.000000000   0.00000   0.00005   0.00010   0.00006
 4 10   27097.8    369.0   0.000000000   0.00000   0.00003   0.00005   0.00003
 4 11   27097.8    369.0   0.000000000   0.00000   0.00002   0.00008   0.00001
 4 12   27103.2    369.0   0.000000000   0.00000   0.00007   0.00021   0.00009
 4 13   27103.2    369.0   0.000000000   0.00000   0.00004   0.00012   0.00006
 4 14   27118.6    368.8   0.000000000   0.00000   0.00002   0.00011   0.00012
 4 15   27118.6    368.8   0.000000000   0.00000   0.00004   0.00009   0.00026
 4 16   27121.9    368.7   0.000000000   0.00000   0.00002   0.00004   0.00011
 4 17   27121.9    368.7   0.000000000   0.00000   0.00004   0.00011   0.00033
 4 18   27178.6    367.9   0.000000000   0.00000   0.00009   0.00019   0.00015
 4 19   27178.6    367.9   0.000000002   0.00000   0.00025   0.00057   0.00060
 4 20   27184.0    367.9   0.000000000   0.00000   0.00012   0.00012   0.00022
 4 21   27184.0    367.9   0.000000000   0.00000   0.00007   0.00017   0.00012
 4 22   27190.0    367.8   0.000000000   0.00000   0.00019   0.00021   0.00025
 4 23   27190.0    367.8   0.000000000   0.00000   0.00001   0.00001   0.00003
 4 24   27195.1    367.7   0.000000000   0.00000   0.00006   0.00012   0.00005
 4 25   27195.1    367.7   0.000000001   0.00000   0.00022   0.00030   0.00034
 4 26   27197.9    367.7   0.000000000   0.00000   0.00023   0.00016   0.00024
 4 27   27197.9    367.7   0.000000000   0.00000   0.00013   0.00005   0.00018
 4 28   27199.5    367.7   0.000000001   0.00000   0.00034   0.00024   0.00062
 4 29   27199.5    367.7   0.000000000   0.00000   0.00007   0.00004   0.00016
 4 30   27219.5    367.4   0.000000000   0.00000   0.00002   0.00001   0.00006
 4 31   27219.5    367.4   0.000000001   0.00000   0.00032   0.00019   0.00063
 4 32   27225.7    367.3   0.000000000   0.00000   0.00006   0.00004   0.00007
 4 33   27225.7    367.3   0.000000000   0.00000   0.00010   0.00012   0.00008
 4 34   27248.4    367.0   0.000000000   0.00000   0.00001   0.00002   0.00004
 4 35   27248.4    367.0   0.000000000   0.00000   0.00002   0.00005   0.00010
 4 36   27254.3    366.9   0.000000003   0.00000   0.00008   0.00077   0.00089
 4 37   27254.3    366.9   0.000000000   0.00000   0.00001   0.00007   0.00013
 4 38   27318.3    366.1   0.000000002   0.00000   0.00012   0.00088   0.00060
 4 39   27318.3    366.1   0.000000000   0.00000   0.00001   0.00006   0.00002
 4 40   27320.5    366.0   0.000000000   0.00000   0.00001   0.00012   0.00008
 4 41   27320.5    366.0   0.000000000   0.00000   0.00001   0.00003   0.00002
 4 42   29688.3    336.8   0.000000000   0.00000   0.00009   0.00008   0.00016
 4 43   29688.3    336.8   0.000000000   0.00000   0.00011   0.00009   0.00020
 4 44   29737.0    336.3   0.000000000   0.00000   0.00005   0.00004   0.00009
 4 45   29737.0    336.3   0.000000000   0.00000   0.00004   0.00004   0.00008
 4 46   29854.8    335.0   0.000000000   0.00000   0.00005   0.00007   0.00010
 4 47   29854.8    335.0   0.000000000   0.00000   0.00002   0.00003   0.00004
 4 48   29931.5    334.1   0.000000000   0.00000   0.00003   0.00004   0.00008
 4 49   29931.5    334.1   0.000000000   0.00000   0.00012   0.00014   0.00027
 4 50   30093.6    332.3   0.000000000   0.00000   0.00006   0.00007   0.00016
 4 51   30093.6    332.3   0.000000000   0.00000   0.00003   0.00003   0.00008
 4 52   30124.2    332.0   0.000000000   0.00000   0.00004   0.00004   0.00009
 4 53   30124.2    332.0   0.000000001   0.00000   0.00025   0.00027   0.00059
 4 54   32439.5    308.3   0.000000000   0.00000   0.00011   0.00010   0.00022
 4 55   32439.5    308.3   0.000000000   0.00000   0.00007   0.00007   0.00016
 4 56   32452.7    308.1   0.000000000   0.00000   0.00008   0.00007   0.00018
 4 57   32452.7    308.1   0.000000002   0.00000   0.00033   0.00030   0.00068
 4 58   32464.9    308.0   0.000000000   0.00000   0.00007   0.00008   0.00007
 4 59   32464.9    308.0   0.000000000   0.00000   0.00003   0.00002   0.00011
 4 60   32483.5    307.8   0.000000002   0.00000   0.00031   0.00029   0.00065
 4 61   32483.5    307.8   0.000000002   0.00000   0.00034   0.00032   0.00072
 4 62   32510.9    307.6   0.000000003   0.00000   0.00044   0.00042   0.00100
 4 63   32510.9    307.6   0.000000000   0.00000   0.00009   0.00009   0.00021
 4 64   32535.6    307.4   0.000000000   0.00000   0.00017   0.00016   0.00037
 4 65   32535.6    307.4   0.000000001   0.00000   0.00021   0.00020   0.00039
 4 66   32567.8    307.1   0.000000000   0.00000   0.00017   0.00016   0.00035
 4 67   32567.8    307.1   0.000000005   0.00000   0.00059   0.00057   0.00119
 4 68   32671.8    306.1   0.000000000   0.00000   0.00005   0.00004   0.00006
 4 69   32671.8    306.1   0.000000000   0.00000   0.00006   0.00005   0.00007
 4 70   32772.5    305.1   0.000000000   0.00000   0.00003   0.00004   0.00008
 4 71   32772.5    305.1   0.000000000   0.00000   0.00006   0.00008   0.00015
 4 72   32839.4    304.5   0.000000000   0.00000   0.00007   0.00010   0.00019
 4 73   32839.4    304.5   0.000000000   0.00000   0.00011   0.00017   0.00031
 4 74   43530.7    229.7   0.000000000   0.00000   0.00001   0.00001   0.00001
 4 75   43530.7    229.7   0.000000000   0.00000   0.00001   0.00000   0.00000
 4 76   43535.1    229.7   0.000000000   0.00000   0.00000   0.00000   0.00000
 4 77   43535.1    229.7   0.000000000   0.00000   0.00000   0.00000   0.00000
 4 78   43616.1    229.3   0.000000000   0.00000   0.00001   0.00002   0.00001
 4 79   43616.1    229.3   0.000000000   0.00000   0.00000   0.00001   0.00000
 4 80   43622.0    229.2   0.000000000   0.00000   0.00000   0.00000   0.00000
 4 81   43622.0    229.2   0.000000000   0.00000   0.00000   0.00000   0.00000
 4 82   43674.6    229.0   0.000000000   0.00000   0.00001   0.00001   0.00001
 4 83   43674.6    229.0   0.000000000   0.00000   0.00000   0.00000   0.00000
 4 84   43680.9    228.9   0.000000000   0.00000   0.00002   0.00002   0.00004
 4 85   43680.9    228.9   0.000000000   0.00000   0.00001   0.00001   0.00002
 4 86   43764.4    228.5   0.000000000   0.00000   0.00001   0.00001   0.00000
 4 87   43764.4    228.5   0.000000000   0.00000   0.00001   0.00001   0.00001
 4 88   43772.3    228.5   0.000000000   0.00000   0.00000   0.00001   0.00000
 4 89   43772.3    228.5   0.000000000   0.00000   0.00000   0.00000   0.00000
 4 90   43862.9    228.0   0.000000000   0.00000   0.00000   0.00000   0.00000
 4 91   43862.9    228.0   0.000000000   0.00000   0.00000   0.00000   0.00000
 4 92   43873.8    227.9   0.000000000   0.00000   0.00001   0.00001   0.00001
 4 93   43873.8    227.9   0.000000000   0.00000   0.00000   0.00000   0.00000
 4 94   43921.8    227.7   0.000000000   0.00000   0.00001   0.00001   0.00001
 4 95   43921.8    227.7   0.000000000   0.00000   0.00000   0.00000   0.00000
 4 96   43944.4    227.6   0.000000000   0.00000   0.00000   0.00001   0.00001
 4 97   43944.4    227.6   0.000000000   0.00000   0.00000   0.00000   0.00000
 4 98   44077.9    226.9   0.000000000   0.00000   0.00000   0.00000   0.00000
 4 99   44077.9    226.9   0.000000000   0.00000   0.00000   0.00000   0.00000
 4 100   44095.4    226.8   0.000000000   0.00000   0.00002   0.00001   0.00002
 4 101   44095.4    226.8   0.000000000   0.00000   0.00000   0.00000   0.00000
 5  6   27076.4    369.3   0.000000001   0.00000   0.00011   0.00024   0.00043
 5  7   27076.4    369.3   0.000000000   0.00000   0.00004   0.00012   0.00019
 5  8   27080.1    369.3   0.000000000   0.00000   0.00005   0.00010   0.00006
 5  9   27080.1    369.3   0.000000000   0.00000   0.00002   0.00001   0.00008
 5 10   27097.8    369.0   0.000000000   0.00000   0.00002   0.00008   0.00001
 5 11   27097.8    369.0   0.000000000   0.00000   0.00003   0.00005   0.00003
 5 12   27103.2    369.0   0.000000000   0.00000   0.00004   0.00012   0.00006
 5 13   27103.2    369.0   0.000000000   0.00000   0.00007   0.00021   0.00009
 5 14   27118.6    368.8   0.000000000   0.00000   0.00004   0.00009   0.00026
 5 15   27118.6    368.8   0.000000000   0.00000   0.00002   0.00011   0.00012
 5 16   27121.9    368.7   0.000000000   0.00000   0.00004   0.00011   0.00033
 5 17   27121.9    368.7   0.000000000   0.00000   0.00002   0.00004   0.00011
 5 18   27178.6    367.9   0.000000002   0.00000   0.00025   0.00057   0.00060
 5 19   27178.6    367.9   0.000000000   0.00000   0.00009   0.00019   0.00015
 5 20   27184.0    367.9   0.000000000   0.00000   0.00007   0.00017   0.00012
 5 21   27184.0    367.9   0.000000000   0.00000   0.00012   0.00012   0.00022
 5 22   27190.0    367.8   0.000000000   0.00000   0.00001   0.00001   0.00003
 5 23   27190.0    367.8   0.000000000   0.00000   0.00019   0.00021   0.00025
 5 24   27195.1    367.7   0.000000001   0.00000   0.00022   0.00030   0.00034
 5 25   27195.1    367.7   0.000000000   0.00000   0.00006   0.00012   0.00005
 5 26   27197.9    367.7   0.000000000   0.00000   0.00013   0.00005   0.00018
 5 27   27197.9    367.7   0.000000000   0.00000   0.00023   0.00016   0.00024
 5 28   27199.5    367.7   0.000000000   0.00000   0.00007   0.00004   0.00016
 5 29   27199.5    367.7   0.000000001   0.00000   0.00034   0.00024   0.00062
 5 30   27219.5    367.4   0.000000001   0.00000   0.00032   0.00019   0.00063
 5 31   27219.5    367.4   0.000000000   0.00000   0.00002   0.00001   0.00006
 5 32   27225.7    367.3   0.000000000   0.00000   0.00010   0.00012   0.00008
 5 33   27225.7    367.3   0.000000000   0.00000   0.00006   0.00004   0.00007
 5 34   27248.4    367.0   0.000000000   0.00000   0.00002   0.00005   0.00010
 5 35   27248.4    367.0   0.000000000   0.00000   0.00001   0.00002   0.00004
 5 36   27254.3    366.9   0.000000000   0.00000   0.00001   0.00007   0.00013
 5 37   27254.3    366.9   0.000000003   0.00000   0.00008   0.00077   0.00089
 5 38   27318.3    366.1   0.000000000   0.00000   0.00001   0.00006   0.00002
 5 39   27318.3    366.1   0.000000002   0.00000   0.00012   0.00088   0.00060
 5 40   27320.5    366.0   0.000000000   0.00000   0.00001   0.00003   0.00002
 5 41   27320.5    366.0   0.000000000   0.00000   0.00001   0.00012   0.00008
 5 42   29688.3    336.8   0.000000000   0.00000   0.00011   0.00009   0.00020
 5 43   29688.3    336.8   0.000000000   0.00000   0.00009   0.00008   0.00016
 5 44   29737.0    336.3   0.000000000   0.00000   0.00004   0.00004   0.00008
 5 45   29737.0    336.3   0.000000000   0.00000   0.00005   0.00004   0.00009
 5 46   29854.8    335.0   0.000000000   0.00000   0.00002   0.00003   0.00004
 5 47   29854.8    335.0   0.000000000   0.00000   0.00005   0.00007   0.00010
 5 48   29931.5    334.1   0.000000000   0.00000   0.00012   0.00014   0.00027
 5 49   29931.5    334.1   0.000000000   0.00000   0.00003   0.00004   0.00008
 5 50   30093.6    332.3   0.000000000   0.00000   0.00003   0.00003   0.00008
 5 51   30093.6    332.3   0.000000000   0.00000   0.00006   0.00007   0.00016
 5 52   30124.2    332.0   0.000000001   0.00000   0.00025   0.00027   0.00059
 5 53   30124.2    332.0   0.000000000   0.00000   0.00004   0.00004   0.00009
 5 54   32439.5    308.3   0.000000000   0.00000   0.00007   0.00007   0.00016
 5 55   32439.5    308.3   0.000000000   0.00000   0.00011   0.00010   0.00022
 5 56   32452.7    308.1   0.000000002   0.00000   0.00033   0.00030   0.00068
 5 57   32452.7    308.1   0.000000000   0.00000   0.00008   0.00007   0.00018
 5 58   32464.9    308.0   0.000000000   0.00000   0.00003   0.00002   0.00011
 5 59   32464.9    308.0   0.000000000   0.00000   0.00007   0.00008   0.00007
 5 60   32483.5    307.8   0.000000002   0.00000   0.00034   0.00032   0.00072
 5 61   32483.5    307.8   0.000000002   0.00000   0.00031   0.00029   0.00065
 5 62   32510.9    307.6   0.000000000   0.00000   0.00009   0.00009   0.00021
 5 63   32510.9    307.6   0.000000003   0.00000   0.00044   0.00042   0.00100
 5 64   32535.6    307.4   0.000000001   0.00000   0.00021   0.00020   0.00039
 5 65   32535.6    307.4   0.000000000   0.00000   0.00017   0.00016   0.00037
 5 66   32567.8    307.1   0.000000005   0.00000   0.00059   0.00057   0.00119
 5 67   32567.8    307.1   0.000000000   0.00000   0.00017   0.00016   0.00035
 5 68   32671.8    306.1   0.000000000   0.00000   0.00006   0.00005   0.00007
 5 69   32671.8    306.1   0.000000000   0.00000   0.00005   0.00004   0.00006
 5 70   32772.5    305.1   0.000000000   0.00000   0.00006   0.00008   0.00015
 5 71   32772.5    305.1   0.000000000   0.00000   0.00003   0.00004   0.00008
 5 72   32839.4    304.5   0.000000000   0.00000   0.00011   0.00017   0.00031
 5 73   32839.4    304.5   0.000000000   0.00000   0.00007   0.00010   0.00019
 5 74   43530.7    229.7   0.000000000   0.00000   0.00001   0.00000   0.00000
 5 75   43530.7    229.7   0.000000000   0.00000   0.00001   0.00001   0.00001
 5 76   43535.1    229.7   0.000000000   0.00000   0.00000   0.00000   0.00000
 5 77   43535.1    229.7   0.000000000   0.00000   0.00000   0.00000   0.00000
 5 78   43616.1    229.3   0.000000000   0.00000   0.00000   0.00001   0.00000
 5 79   43616.1    229.3   0.000000000   0.00000   0.00001   0.00002   0.00001
 5 80   43622.0    229.2   0.000000000   0.00000   0.00000   0.00000   0.00000
 5 81   43622.0    229.2   0.000000000   0.00000   0.00000   0.00000   0.00000
 5 82   43674.6    229.0   0.000000000   0.00000   0.00000   0.00000   0.00000
 5 83   43674.6    229.0   0.000000000   0.00000   0.00001   0.00001   0.00001
 5 84   43680.9    228.9   0.000000000   0.00000   0.00001   0.00001   0.00002
 5 85   43680.9    228.9   0.000000000   0.00000   0.00002   0.00002   0.00004
 5 86   43764.4    228.5   0.000000000   0.00000   0.00001   0.00001   0.00001
 5 87   43764.4    228.5   0.000000000   0.00000   0.00001   0.00001   0.00000
 5 88   43772.3    228.5   0.000000000   0.00000   0.00000   0.00000   0.00000
 5 89   43772.3    228.5   0.000000000   0.00000   0.00000   0.00001   0.00000
 5 90   43862.9    228.0   0.000000000   0.00000   0.00000   0.00000   0.00000
 5 91   43862.9    228.0   0.000000000   0.00000   0.00000   0.00000   0.00000
 5 92   43873.8    227.9   0.000000000   0.00000   0.00000   0.00000   0.00000
 5 93   43873.8    227.9   0.000000000   0.00000   0.00001   0.00001   0.00001
 5 94   43921.8    227.7   0.000000000   0.00000   0.00000   0.00000   0.00000
 5 95   43921.8    227.7   0.000000000   0.00000   0.00001   0.00001   0.00001
 5 96   43944.4    227.6   0.000000000   0.00000   0.00000   0.00000   0.00000
 5 97   43944.4    227.6   0.000000000   0.00000   0.00000   0.00001   0.00001
 5 98   44077.9    226.9   0.000000000   0.00000   0.00000   0.00000   0.00000
 5 99   44077.9    226.9   0.000000000   0.00000   0.00000   0.00000   0.00000
 5 100   44095.4    226.8   0.000000000   0.00000   0.00000   0.00000   0.00000
 5 101   44095.4    226.8   0.000000000   0.00000   0.00002   0.00001   0.00002

------------------------------------------------------------------------------
                           SOC CORRECTED DIPOLE MOMENTS
------------------------------------------------------------------------------
      TX        TY        TZ           |T|
   (Debye)   (Debye)   (Debye)      (Debye)
------------------------------------------------------------------------------
 124.06689 114.36151 250.47893    302.01133

--------------
CASSCF TIMINGS
--------------

Total time                       ...    11057.9 sec
Sum of individual times          ...    11075.3 sec (100.2%)

Calculation of AO operators
   F(Core) operator              ...       92.0 sec (  0.8%)
   G(Act) operator               ...       78.3 sec (  0.7%)
   J(AO) operators               ...        0.0 sec (  0.0%)
Calculation of MO transformed quantities
   J(MO) operators               ...       11.0 sec (  0.1%)
   (pq|rs) integrals             ...        0.0 sec (  0.0%)
   AO->MO one electron integrals ...        0.3 sec (  0.0%)
Configuration interaction steps
   CI-setup phase                ...        0.0 sec (  0.0%)
   CI-solution phase             ...        0.0 sec (  0.0%)
   Generation of densities       ...        0.0 sec (  0.0%)
Orbital improvement steps
   Orbital gradient              ...        0.0 sec (  0.0%)
PT2 
   NEVPT2 time                   ...    10827.0 sec ( 97.9%)
Properties                       ...       34.3 sec (  0.3%)
   SOC integral calculation      ...       32.3 sec (  0.3%)
   SSC RMEs (incl. integrals)    ...        0.0 sec (  0.0%)
   SOC RMEs                      ...        0.0 sec (  0.0%)

Maximum memory used throughout the entire CASSCF-calculation: 2365.4 MB

-------------------------   --------------------
FINAL SINGLE POINT ENERGY     -3314.767128882571
-------------------------   --------------------


                            ***************************************
                            *     ORCA property calculations      *
                            ***************************************

                                    ---------------------
                                    Active property flags
                                    ---------------------
   (+) Dipole Moment


------------------------------------------------------------------------------
                       ORCA ELECTRIC PROPERTIES CALCULATION
------------------------------------------------------------------------------

Dipole Moment Calculation                       ... on
Quadrupole Moment Calculation                   ... off
Polarizability Calculation                      ... off
GBWName                                         ... nevpt2.gbw
Electron density                                ... nevpt2.scfp
The origin for moment calculation is the CENTER OF MASS  = (12.958463, 14.038981 14.487491)

-------------
DIPOLE MOMENT
-------------
                                X             Y             Z
Electronic contribution:    -47.97250     -44.73618     -97.96985
Nuclear contribution   :     48.81068      44.99236      98.54399
                        -----------------------------------------
Total Dipole Moment    :      0.83818       0.25618       0.57415
                        -----------------------------------------
Magnitude (a.u.)       :      1.04777
Magnitude (Debye)      :      2.66321



--------------------
Rotational spectrum 
--------------------
 
Rotational constants in cm-1:     0.000850     0.000804     0.000787 
Rotational constants in MHz :    25.493195    24.088324    23.595007 

 Dipole components along the rotational axes: 
x,y,z [a.u.] :     0.272769    -0.052742     1.010261 
x,y,z [Debye]:     0.693323    -0.134058     2.567879 

 

Timings for individual modules:

Sum of individual times         ...    11101.990 sec (= 185.033 min)
GTO integral calculation        ...       19.848 sec (=   0.331 min)   0.2 %
SCF iterations                  ...       18.546 sec (=   0.309 min)   0.2 %
CASSCF iterations               ...    11063.596 sec (= 184.393 min)  99.7 %
                             ****ORCA TERMINATED NORMALLY****
TOTAL RUN TIME: 0 days 3 hours 5 minutes 5 seconds 243 msec
