
                                 *****************
                                 * O   R   C   A *
                                 *****************

                                            #,                                       
                                            ###                                      
                                            ####                                     
                                            #####                                    
                                            ######                                   
                                           ########,                                 
                                     ,,################,,,,,                         
                               ,,#################################,,                 
                          ,,##########################################,,             
                       ,#########################################, ''#####,          
                    ,#############################################,,   '####,        
                  ,##################################################,,,,####,       
                ,###########''''           ''''###############################       
              ,#####''   ,,,,##########,,,,          '''####'''          '####       
            ,##' ,,,,###########################,,,                        '##       
           ' ,,###''''                  '''############,,,                           
         ,,##''                                '''############,,,,        ,,,,,,###''
      ,#''                                            '''#######################'''  
     '                                                          ''''####''''         
             ,#######,   #######,   ,#######,      ##                                
            ,#'     '#,  ##    ##  ,#'     '#,    #''#        ######   ,####,        
            ##       ##  ##   ,#'  ##            #'  '#       #        #'  '#        
            ##       ##  #######   ##           ,######,      #####,   #    #        
            '#,     ,#'  ##    ##  '#,     ,#' ,#      #,         ##   #,  ,#        
             '#######'   ##     ##  '#######'  #'      '#     #####' # '####'        



                  #######################################################
                  #                        -***-                        #
                  #          Department of theory and spectroscopy      #
                  #    Directorship and core code : Frank Neese         #
                  #        Max Planck Institute fuer Kohlenforschung    #
                  #                Kaiser Wilhelm Platz 1               #
                  #                 D-45470 Muelheim/Ruhr               #
                  #                      Germany                        #
                  #                                                     #
                  #                  All rights reserved                #
                  #                        -***-                        #
                  #######################################################


                         Program Version 5.0.3 -  RELEASE  -


 With contributions from (in alphabetic order):
   Daniel Aravena         : Magnetic Suceptibility
   Michael Atanasov       : Ab Initio Ligand Field Theory (pilot matlab implementation)
   Alexander A. Auer      : GIAO ZORA, VPT2 properties, NMR spectrum
   Ute Becker             : Parallelization
   Giovanni Bistoni       : ED, misc. LED, open-shell LED, HFLD
   Martin Brehm           : Molecular dynamics
   Dmytro Bykov           : SCF Hessian
   Vijay G. Chilkuri      : MRCI spin determinant printing, contributions to CSF-ICE
   Dipayan Datta          : RHF DLPNO-CCSD density
   Achintya Kumar Dutta   : EOM-CC, STEOM-CC
   Dmitry Ganyushin       : Spin-Orbit,Spin-Spin,Magnetic field MRCI
   Miquel Garcia          : C-PCM and meta-GGA Hessian, CC/C-PCM, Gaussian charge scheme
   Yang Guo               : DLPNO-NEVPT2, F12-NEVPT2, CIM, IAO-localization
   Andreas Hansen         : Spin unrestricted coupled pair/coupled cluster methods
   Benjamin Helmich-Paris : MC-RPA, TRAH-SCF, COSX integrals
   Lee Huntington         : MR-EOM, pCC
   Robert Izsak           : Overlap fitted RIJCOSX, COSX-SCS-MP3, EOM
   Marcus Kettner         : VPT2
   Christian Kollmar      : KDIIS, OOCD, Brueckner-CCSD(T), CCSD density, CASPT2, CASPT2-K
   Simone Kossmann        : Meta GGA functionals, TD-DFT gradient, OOMP2, MP2 Hessian
   Martin Krupicka        : Initial AUTO-CI
   Lucas Lang             : DCDCAS
   Marvin Lechner         : AUTO-CI (C++ implementation), FIC-MRCC
   Dagmar Lenk            : GEPOL surface, SMD
   Dimitrios Liakos       : Extrapolation schemes; Compound Job, initial MDCI parallelization
   Dimitrios Manganas     : Further ROCIS development; embedding schemes
   Dimitrios Pantazis     : SARC Basis sets
   Anastasios Papadopoulos: AUTO-CI, single reference methods and gradients
   Taras Petrenko         : DFT Hessian,TD-DFT gradient, ASA, ECA, R-Raman, ABS, FL, XAS/XES, NRVS
   Peter Pinski           : DLPNO-MP2, DLPNO-MP2 Gradient
   Christoph Reimann      : Effective Core Potentials
   Marius Retegan         : Local ZFS, SOC
   Christoph Riplinger    : Optimizer, TS searches, QM/MM, DLPNO-CCSD(T), (RO)-DLPNO pert. Triples
   Tobias Risthaus        : Range-separated hybrids, TD-DFT gradient, RPA, STAB
   Michael Roemelt        : Original ROCIS implementation
   Masaaki Saitow         : Open-shell DLPNO-CCSD energy and density
   Barbara Sandhoefer     : DKH picture change effects
   Avijit Sen             : IP-ROCIS
   Kantharuban Sivalingam : CASSCF convergence, NEVPT2, FIC-MRCI
   Bernardo de Souza      : ESD, SOC TD-DFT
   Georgi Stoychev        : AutoAux, RI-MP2 NMR, DLPNO-MP2 response
   Willem Van den Heuvel  : Paramagnetic NMR
   Boris Wezisla          : Elementary symmetry handling
   Frank Wennmohs         : Technical directorship


 We gratefully acknowledge several colleagues who have allowed us to
 interface, adapt or use parts of their codes:
   Stefan Grimme, W. Hujo, H. Kruse, P. Pracht,  : VdW corrections, initial TS optimization,
                  C. Bannwarth, S. Ehlert          DFT functionals, gCP, sTDA/sTD-DF
   Ed Valeev, F. Pavosevic, A. Kumar             : LibInt (2-el integral package), F12 methods
   Garnet Chan, S. Sharma, J. Yang, R. Olivares  : DMRG
   Ulf Ekstrom                                   : XCFun DFT Library
   Mihaly Kallay                                 : mrcc  (arbitrary order and MRCC methods)
   Jiri Pittner, Ondrej Demel                    : Mk-CCSD
   Frank Weinhold                                : gennbo (NPA and NBO analysis)
   Christopher J. Cramer and Donald G. Truhlar   : smd solvation model
   Lars Goerigk                                  : TD-DFT with DH, B97 family of functionals
   V. Asgeirsson, H. Jonsson                     : NEB implementation
   FAccTs GmbH                                   : IRC, NEB, NEB-TS, DLPNO-Multilevel, CI-OPT
                                                   MM, QMMM, 2- and 3-layer-ONIOM, Crystal-QMMM,
                                                   LR-CPCM, SF, NACMEs, symmetry and pop. for TD-DFT,
                                                   nearIR, NL-DFT gradient (VV10), updates on ESD,
                                                   ML-optimized integration grids
   S Lehtola, MJT Oliveira, MAL Marques          : LibXC Library
   Liviu Ungur et al                             : ANISO software


 Your calculation uses the libint2 library for the computation of 2-el integrals
 For citations please refer to: http://libint.valeyev.net

 Your ORCA version has been built with support for libXC version: 5.1.0
 For citations please refer to: https://tddft.org/programs/libxc/

 This ORCA versions uses:
   CBLAS   interface :  Fast vector & matrix operations
   LAPACKE interface :  Fast linear algebra routines
   SCALAPACK package :  Parallel linear algebra routines
   Shared memory     :  Shared parallel matrices
   BLAS/LAPACK       :  OpenBLAS 0.3.15  USE64BITINT DYNAMIC_ARCH NO_AFFINITY Sandybridge SINGLE_THREADED
        Core in use  :  Sandybridge
   Copyright (c) 2011-2014, The OpenBLAS Project




***************************************
The coordinates will be read from file: pbe.xyz
***************************************


================================================================================

cite the ECPs for Au [Def2-ECP] as follows:
Ce-Yb(ecp-28): M. Dolg, H. Stoll, H.Preuss, J. Chem. Phys., 1989, 90, 1730-1734.
Y-Cd(ecp-28), Hf-Hg(ecp-46): D. Andrae,U. Haeussermann, M. Dolg, H. Stoll, H. Preuss, Theor. Chim. Acta, 1990, 77, 123-141.
In-Sb(ecp-28), Tl-Bi(ecp-46): B. Metz, H. Stoll, M. Dolg, J. Chem. Phys., 2000, 113, 2563-2569.
Te-Xe(ecp-28), Po-Rn(ecp-46): K. A. Peterson, D. Figgen, E. Goll, H. Stoll, M. Dolg, J. Chem. Phys., 2003, 119, 11113-11123.
Rb(ecp-28), Cs(ecp-46): T. Leininger, A. Nicklass, W. Kuechle, H. Stoll, M. Dolg, A. Bergner, Chem. Phys. Lett., 1996, 255, 274-280.
Sr(ecp-28), Ba(ecp-46): M. Kaupp, P. V. Schleyer, H. Stoll and H. Preuss, J. Chem. Phys., 1991, 94, 1360-1366.
La(ecp-46): M. Dolg, H. Stoll, A. Savin, H. Preuss, Theor. Chim. Acta, 1989, 75, 173-194.
Lu(ecp-28): X. Cao, M. Dolg, J. Chem. Phys., 2001, 115, 7348-7355.

ECP parameters for Au [Def2-ECP] have been obtained from:
TURBOMOLE (7.0.2)

----- Orbital basis set information -----
Your calculation utilizes the basis: def2-TZVP
   F. Weigend and R. Ahlrichs, Phys. Chem. Chem. Phys. 7, 3297 (2005).

----- AuxJ basis set information -----
Your calculation utilizes the auxiliary basis: def2/J
   F. Weigend, Phys. Chem. Chem. Phys. 8, 1057 (2006).

----- AuxC basis set information -----
Your calculation utilizes the auxiliary basis: def2-TZVP/C
  H-La, Hf-Rn : A. Hellweg, C. Hattig, S. Hofener and W. Klopper, Theor. Chem. Acc. 117, 587 (2007).
        Ce-Lu : J. Chmela and M. E. Harding, Mol. Phys. (2018).

================================================================================
                                        WARNINGS
                       Please study these warnings very carefully!
================================================================================


IMPORTANT NOTE: CASSCF must signal convergence for a subsequent CASPT2/NEVPT2! 
                Set maxiter=1 to run CASPT2/NEVPT2 with arbitrary orbitals.


INFO   : the flag for use of the SHARK integral package has been found!

================================================================================
                                       INPUT FILE
================================================================================
NAME = nevpt2.inp
|  1> !SC-NEVPT2 def2-TZVP def2-TZVP/C
|  2> !MOREAD RIJCOSX def2/J
|  3> %maxcore 4000
|  4> %moinp "casscf.gbw"
|  5> %pal nprocs 6 end 
|  6> 
|  7> %casscf
|  8>  mult 5,3
|  9>  bweight 1,1
| 10>  nroots 5,45
| 11>  nel 6
| 12>  norb 5
| 13>  ptsettings
| 14>   d4tpre 1e-14 # default = 1e-10
| 15>   d3tpre 1e-14
| 16>  end
| 17>  rel           
| 18>    dosoc true   
| 19>    gtensor true 
| 20>  end           
| 21> end
| 22> 
| 23> 
| 24> *xyzfile 0 5 pbe.xyz
| 25> 
| 26> 
| 27>                          ****END OF INPUT****
================================================================================

                       ****************************
                       * Single Point Calculation *
                       ****************************

---------------------------------
CARTESIAN COORDINATES (ANGSTROEM)
---------------------------------
  Au     7.698036   10.395998    8.651329
  Au     6.568950   10.026107    6.090403
  Au     6.899736    8.255673   10.308620
  Au     5.051799    9.502865    8.484804
  Au     9.243782    9.524036    6.510088
  Au     9.462658    8.345064    9.304271
  Au     4.842774    7.740630    6.251100
  Au     7.495042    5.599349    9.114151
  Au     5.044970    6.667613    8.801930
  Au    10.255145    5.653623    8.959514
  Au     8.754402    5.894695    6.673785
  Au     9.919812    7.440922    4.726272
  Au    11.157242    7.673831    7.234275
  Au     7.165044    7.350695    4.948235
  Fe     7.229094    7.906368    7.641625

----------------------------
CARTESIAN COORDINATES (A.U.)
----------------------------
  NO LB      ZA    FRAG     MASS         X           Y           Z
   0 Au   19.0000*   0   196.966   14.547179   19.645589   16.348643
   1 Au   19.0000*   0   196.966   12.413516   18.946596   11.509193
   2 Au   19.0000*   0   196.966   13.038611   15.600961   19.480469
   3 Au   19.0000*   0   196.966    9.546516   17.957812   16.033956
   4 Au   19.0000*   0   196.966   17.468216   17.997821   12.302283
   5 Au   19.0000*   0   196.966   17.881831   15.769885   17.582525
   6 Au   19.0000*   0   196.966    9.151516   14.627671   11.812866
   7 Au   19.0000*   0   196.966   14.163576   10.581237   17.223249
   8 Au   19.0000*   0   196.966    9.533612   12.599962   16.633236
   9 Au   19.0000*   0   196.966   19.379415   10.683799   16.931028
  10 Au   19.0000*   0   196.966   16.543423   11.139358   12.611627
  11 Au   19.0000*   0   196.966   18.745728   14.061305    8.931360
  12 Au   19.0000*   0   196.966   21.084132   14.501439   13.670798
  13 Au   19.0000*   0   196.966   13.539971   13.890801    9.350808
  14 Fe   26.0000    0    55.850   13.661008   14.940870   14.440579
* core charge reduced due to ECP

--------------------------------
INTERNAL COORDINATES (ANGSTROEM)
--------------------------------
 Au     0   0   0     0.000000000000     0.00000000     0.00000000
 Au     1   0   0     2.823118849231     0.00000000     0.00000000
 Au     1   2   0     2.822212771810   108.67493233     0.00000000
 Au     1   2   3     2.797854212809    61.70015019   318.68246166
 Au     2   1   3     2.753713715672    59.81125129   255.28491749
 Au     3   1   2     2.754138064823    59.86864065   104.58776614
 Au     4   1   2     2.852823157691   108.24547020    36.51437708
 Au     3   1   2     2.972743340214   112.64772961    53.11433413
 Au     8   3   1     2.691007343904    60.63133659   264.49259662
 Au     8   3   1     2.764964035450   101.81983844    63.08042144
 Au    10   8   3     2.744977115356    60.16739629   252.98073043
 Au    11  10   8     2.746234943346   114.07602100   148.77381690
 Au     6   3   1     2.758089342537   146.88122783   271.15452876
 Au     7   4   1     2.691179230644   113.91226604     1.26069686
 Fe    11  10   8     2.703721408500    94.34154322    52.13666596

---------------------------
INTERNAL COORDINATES (A.U.)
---------------------------
 Au     0   0   0     0.000000000000     0.00000000     0.00000000
 Au     1   0   0     5.334921468558     0.00000000     0.00000000
 Au     1   2   0     5.333209230376   108.67493233     0.00000000
 Au     1   2   3     5.287178224847    61.70015019   318.68246166
 Au     2   1   3     5.203764773842    59.81125129   255.28491749
 Au     3   1   2     5.204566677523    59.86864065   104.58776614
 Au     4   1   2     5.391054476544   108.24547020    36.51437708
 Au     3   1   2     5.617670779442   112.64772961    53.11433413
 Au     8   3   1     5.085266904349    60.63133659   264.49259662
 Au     8   3   1     5.225024797141   101.81983844    63.08042144
 Au    10   8   3     5.187254991904    60.16739629   252.98073043
 Au    11  10   8     5.189631942329   114.07602100   148.77381690
 Au     6   3   1     5.212033510282   146.88122783   271.15452876
 Au     7   4   1     5.085591723214   113.91226604     1.26069686
 Fe    11  10   8     5.109293004486    94.34154322    52.13666596

---------------------
BASIS SET INFORMATION
---------------------
There are 2 groups of distinct atoms

 Group   1 Type Au  : 8s7p6d1f contracted to 6s4p3d1f pattern {311111/4111/411/1}
 Group   2 Type Fe  : 17s11p7d1f contracted to 6s4p4d1f pattern {842111/6311/4111/1}

Atom   0Au   basis set group =>   1
Atom   1Au   basis set group =>   1
Atom   2Au   basis set group =>   1
Atom   3Au   basis set group =>   1
Atom   4Au   basis set group =>   1
Atom   5Au   basis set group =>   1
Atom   6Au   basis set group =>   1
Atom   7Au   basis set group =>   1
Atom   8Au   basis set group =>   1
Atom   9Au   basis set group =>   1
Atom  10Au   basis set group =>   1
Atom  11Au   basis set group =>   1
Atom  12Au   basis set group =>   1
Atom  13Au   basis set group =>   1
Atom  14Fe   basis set group =>   2
---------------------------------
AUXILIARY/J BASIS SET INFORMATION
---------------------------------
There are 2 groups of distinct atoms

 Group   1 Type Au  : 11s5p5d3f3g contracted to 8s5p5d2f3g pattern {41111111/11111/11111/21/111}
 Group   2 Type Fe  : 19s5p5d3f3g contracted to 8s5p5d2f3g pattern {121111111/11111/11111/21/111}

Atom   0Au   basis set group =>   1
Atom   1Au   basis set group =>   1
Atom   2Au   basis set group =>   1
Atom   3Au   basis set group =>   1
Atom   4Au   basis set group =>   1
Atom   5Au   basis set group =>   1
Atom   6Au   basis set group =>   1
Atom   7Au   basis set group =>   1
Atom   8Au   basis set group =>   1
Atom   9Au   basis set group =>   1
Atom  10Au   basis set group =>   1
Atom  11Au   basis set group =>   1
Atom  12Au   basis set group =>   1
Atom  13Au   basis set group =>   1
Atom  14Fe   basis set group =>   2
---------------------------------
AUXILIARY/C BASIS SET INFORMATION
---------------------------------
There are 2 groups of distinct atoms

 Group   1 Type Au  : 8s8p7d5f3g2h contracted to 8s8p7d5f3g2h pattern {11111111/11111111/1111111/11111/111/11}
 Group   2 Type Fe  : 11s9p8d6f5g2h contracted to 9s8p8d6f5g2h pattern {311111111/21111111/11111111/111111/11111/11}

Atom   0Au   basis set group =>   1
Atom   1Au   basis set group =>   1
Atom   2Au   basis set group =>   1
Atom   3Au   basis set group =>   1
Atom   4Au   basis set group =>   1
Atom   5Au   basis set group =>   1
Atom   6Au   basis set group =>   1
Atom   7Au   basis set group =>   1
Atom   8Au   basis set group =>   1
Atom   9Au   basis set group =>   1
Atom  10Au   basis set group =>   1
Atom  11Au   basis set group =>   1
Atom  12Au   basis set group =>   1
Atom  13Au   basis set group =>   1
Atom  14Fe   basis set group =>   2
-------------------------
ECP PARAMETER INFORMATION
-------------------------

 Group 1, Type Au ECP Def2-ECP (replacing 60 core electrons, lmax=3)

Atom   0Au   ECP group =>   1
Atom   1Au   ECP group =>   1
Atom   2Au   ECP group =>   1
Atom   3Au   ECP group =>   1
Atom   4Au   ECP group =>   1
Atom   5Au   ECP group =>   1
Atom   6Au   ECP group =>   1
Atom   7Au   ECP group =>   1
Atom   8Au   ECP group =>   1
Atom   9Au   ECP group =>   1
Atom  10Au   ECP group =>   1
Atom  11Au   ECP group =>   1
Atom  12Au   ECP group =>   1
Atom  13Au   ECP group =>   1



           ************************************************************
           *        Program running with 6 parallel MPI-processes     *
           *              working on a common directory               *
           ************************************************************
------------------------------------------------------------------------------
                           ORCA GTO INTEGRAL CALCULATION
                           -- RI-GTO INTEGRALS CHOSEN --
------------------------------------------------------------------------------
------------------------------------------------------------------------------
                   ___                                                        
                  /   \      - P O W E R E D   B Y -                         
                 /     \                                                     
                 |  |  |   _    _      __       _____    __    __             
                 |  |  |  | |  | |    /  \     |  _  \  |  |  /  |          
                  \  \/   | |  | |   /    \    | | | |  |  | /  /          
                 / \  \   | |__| |  /  /\  \   | |_| |  |  |/  /          
                |  |  |   |  __  | /  /__\  \  |    /   |      \           
                |  |  |   | |  | | |   __   |  |    \   |  |\   \          
                \     /   | |  | | |  |  |  |  | |\  \  |  | \   \       
                 \___/    |_|  |_| |__|  |__|  |_| \__\ |__|  \__/        
                                                                              
                      - O R C A' S   B I G   F R I E N D -                    
                                      &                                       
                       - I N T E G R A L  F E E D E R -                       
                                                                              
 v1 FN, 2020, v2 2021                                                         
------------------------------------------------------------------------------


Reading SHARK input file nevpt2.SHARKINP.tmp ... ok
----------------------
SHARK INTEGRAL PACKAGE
----------------------

Number of atoms                             ...     15
Number of basis functions                   ...    605
Number of shells                            ...    211
Maximum angular momentum                    ...      3
Integral batch strategy                     ... SHARK/LIBINT Hybrid
RI-J (if used) integral strategy            ... SPLIT-RIJ (Revised 2003 algorithm where possible)
Printlevel                                  ...      1
Contraction scheme used                     ... SEGMENTED contraction
Coulomb Range Separation                    ... NOT USED
Exchange Range Separation                   ... NOT USED
Finite Nucleus Model                        ... NOT USED
Auxiliary Coulomb fitting basis             ... AVAILABLE
   # of basis functions in Aux-J            ...   1335
   # of shells in Aux-J                     ...    345
   Maximum angular momentum in Aux-J        ...      4
Auxiliary J/K fitting basis                 ... NOT available
Auxiliary Correlation fitting basis         ... AVAILABLE
   # of basis functions in Aux-C            ...   2296
   # of shells in Aux-C                     ...    500
   Maximum angular momentum in Aux-C        ...      5
Auxiliary 'external' fitting basis          ... NOT available
Integral threshold                          ...     1.000000e-10
Primitive cut-off                           ...     1.000000e-11
Primitive pair pre-selection threshold      ...     1.000000e-11

Calculating pre-screening integrals         ... done (  0.2 sec) Dimension = 211
Organizing shell pair data                  ... done (  0.5 sec)
Shell pair information
Total number of shell pairs                 ...     22366
Shell pairs after pre-screening             ...     17825
Total number of primitive shell pairs       ...     59609
Primitive shell pairs kept                  ...     34411
          la=0 lb=0:   2806 shell pairs
          la=1 lb=0:   4075 shell pairs
          la=1 lb=1:   1528 shell pairs
          la=2 lb=0:   3538 shell pairs
          la=2 lb=1:   2490 shell pairs
          la=2 lb=2:   1027 shell pairs
          la=3 lb=0:    925 shell pairs
          la=3 lb=1:    716 shell pairs
          la=3 lb=2:    622 shell pairs
          la=3 lb=3:     98 shell pairs

Calculating one electron integrals          ... done (  0.0 sec)
Calculating ECP integrals                   ... done ( 11.0 sec)
Calculating RI/J V-Matrix + Cholesky decomp.... done (  0.1 sec)
Calculating RI/C V-Matrix + Cholesky decomp.... done (  0.4 sec)
Calculating Nuclear repulsion               ... done (  0.0 sec) ENN=   5713.369152055729 Eh

SHARK setup successfully completed in  12.7 seconds

Maximum memory used throughout the entire GTOINT-calculation: 49.4 MB


           ************************************************************
           *        Program running with 6 parallel MPI-processes     *
           *              working on a common directory               *
           ************************************************************
-------------------------------------------------------------------------------
                                 ORCA SCF
-------------------------------------------------------------------------------

------------
SCF SETTINGS
------------
Hamiltonian:
 Ab initio Hamiltonian  Method          .... Hartree-Fock(GTOs)
 RI-approximation to the Coulomb term is turned on
   Number of AuxJ basis functions       .... 1335
   RIJ-COSX (HFX calculated with COS-X)).... on


General Settings:
 Integral files         IntName         .... nevpt2
 Hartree-Fock type      HFTyp           .... CASSCF
 Total Charge           Charge          ....    0
 Multiplicity           Mult            ....    5
 Number of Electrons    NEL             ....  292
 Basis Dimension        Dim             ....  605
 Nuclear Repulsion      ENuc            ....   5713.3691520557 Eh


Diagonalization of the overlap matrix:
Smallest eigenvalue                        ... 3.617e-04
Time for diagonalization                   ...    0.099 sec
Threshold for overlap eigenvalues          ... 1.000e-08
Number of eigenvalues below threshold      ... 0
Time for construction of square roots      ...    0.054 sec
Total time needed                          ...    0.155 sec

---------------------
INITIAL GUESS: MOREAD
---------------------
Guess MOs are being read from file: casscf.gbw
Input Geometry matches current geometry (good)
Input basis set matches current basis set (good)
MOs were renormalized
Gram-Schmidt orthogonalization of all MOs with pivot on actives
                      ------------------
                      INITIAL GUESS DONE (   7.1 sec)
                      ------------------
--------------------
COSX GRID GENERATION
--------------------

GRIDX 1
-------
General Integration Accuracy     IntAcc      ... 3.816
Radial Grid Type                 RadialGrid  ... OptM3 with GC (2021)
Angular Grid (max. ang.)         AngularGrid ... 1 (Lebedev-50)
Angular grid pruning method      GridPruning ... 4 (adaptive)
Weight generation scheme         WeightScheme... Becke
Basis function cutoff            BFCut       ... 1.0000e-10
Integration weight cutoff        WCut        ... 1.0000e-14
Angular grids for H and He will be reduced by one unit
Partially contracted basis set               ... on
Rotationally invariant grid construction     ... off

Total number of grid points                  ...    17338
Total number of batches                      ...      278
Average number of points per batch           ...       62
Average number of grid points per atom       ...     1156
UseSFitting                                  ... on

GRIDX 2
-------
General Integration Accuracy     IntAcc      ... 4.020
Radial Grid Type                 RadialGrid  ... OptM3 with GC (2021)
Angular Grid (max. ang.)         AngularGrid ... 2 (Lebedev-110)
Angular grid pruning method      GridPruning ... 4 (adaptive)
Weight generation scheme         WeightScheme... Becke
Basis function cutoff            BFCut       ... 1.0000e-10
Integration weight cutoff        WCut        ... 1.0000e-14
Angular grids for H and He will be reduced by one unit
Partially contracted basis set               ... on
Rotationally invariant grid construction     ... off

Total number of grid points                  ...    52608
Total number of batches                      ...      830
Average number of points per batch           ...       63
Average number of grid points per atom       ...     3507
UseSFitting                                  ... on

GRIDX 3
-------
General Integration Accuracy     IntAcc      ... 4.338
Radial Grid Type                 RadialGrid  ... OptM3 with GC (2021)
Angular Grid (max. ang.)         AngularGrid ... 3 (Lebedev-194)
Angular grid pruning method      GridPruning ... 4 (adaptive)
Weight generation scheme         WeightScheme... Becke
Basis function cutoff            BFCut       ... 1.0000e-10
Integration weight cutoff        WCut        ... 1.0000e-14
Angular grids for H and He will be reduced by one unit
Partially contracted basis set               ... on
Rotationally invariant grid construction     ... off

Total number of grid points                  ...    95765
Total number of batches                      ...     1503
Average number of points per batch           ...       63
Average number of grid points per atom       ...     6384
UseSFitting                                  ... on

Time for X-Grid setup             =    1.710 sec



 ... the calculation is a CASSCF calculation -I'm leaving here GOOD LUCK!!!



           ************************************************************
           *        Program running with 6 parallel MPI-processes     *
           *              working on a common directory               *
           ************************************************************
-------------------------------------------------------------------------------
                              ORCA-CASSCF
-------------------------------------------------------------------------------

Setting up the integral package       ... done
Setting up the integral package (RI)  ... done
Building the CAS space                ... done (5 configurations for Mult=5)
Building the CAS space                ... done (35 configurations for Mult=3)

 CASSCF (estimated) memory needed     ... 150.4 MB
 NEVPT2 (estimated) memory needed     ... 548.6 MB


SYSTEM-SPECIFIC SETTINGS:
Number of active electrons          ...    6
Number of active orbitals           ...    5
Total number of electrons           ...  292
Total number of orbitals            ...  605
Total number aux. functions         ... 2296

Determined orbital ranges:
   Internal       0 -  142 ( 143 orbitals)
   Active       143 -  147 (   5 orbitals)
   External     148 -  604 ( 457 orbitals)
Number of rotation parameters      ...  68351

CI-STEP:
CI strategy                         ... General CI
Number of multiplicity blocks       ...    2
BLOCK  1 WEIGHT=   0.5000
  Multiplicity                      ...    5
  #(Configurations)                 ...    5
  #(CSFs)                           ...    5
  #(Roots)                          ...    5
    ROOT=0 WEIGHT=    0.100000
    ROOT=1 WEIGHT=    0.100000
    ROOT=2 WEIGHT=    0.100000
    ROOT=3 WEIGHT=    0.100000
    ROOT=4 WEIGHT=    0.100000

BLOCK  2 WEIGHT=   0.5000
  Multiplicity                      ...    3
  #(Configurations)                 ...   35
  #(CSFs)                           ...   45
  #(Roots)                          ...   45
    ROOT=0 WEIGHT=    0.011111
    ROOT=1 WEIGHT=    0.011111
    ROOT=2 WEIGHT=    0.011111
    ROOT=3 WEIGHT=    0.011111
    ROOT=4 WEIGHT=    0.011111
    ROOT=5 WEIGHT=    0.011111
    ROOT=6 WEIGHT=    0.011111
    ROOT=7 WEIGHT=    0.011111
    ROOT=8 WEIGHT=    0.011111
    ROOT=9 WEIGHT=    0.011111
    ROOT=10 WEIGHT=    0.011111
    ROOT=11 WEIGHT=    0.011111
    ROOT=12 WEIGHT=    0.011111
    ROOT=13 WEIGHT=    0.011111
    ROOT=14 WEIGHT=    0.011111
    ROOT=15 WEIGHT=    0.011111
    ROOT=16 WEIGHT=    0.011111
    ROOT=17 WEIGHT=    0.011111
    ROOT=18 WEIGHT=    0.011111
    ROOT=19 WEIGHT=    0.011111
    ROOT=20 WEIGHT=    0.011111
    ROOT=21 WEIGHT=    0.011111
    ROOT=22 WEIGHT=    0.011111
    ROOT=23 WEIGHT=    0.011111
    ROOT=24 WEIGHT=    0.011111
    ROOT=25 WEIGHT=    0.011111
    ROOT=26 WEIGHT=    0.011111
    ROOT=27 WEIGHT=    0.011111
    ROOT=28 WEIGHT=    0.011111
    ROOT=29 WEIGHT=    0.011111
    ROOT=30 WEIGHT=    0.011111
    ROOT=31 WEIGHT=    0.011111
    ROOT=32 WEIGHT=    0.011111
    ROOT=33 WEIGHT=    0.011111
    ROOT=34 WEIGHT=    0.011111
    ROOT=35 WEIGHT=    0.011111
    ROOT=36 WEIGHT=    0.011111
    ROOT=37 WEIGHT=    0.011111
    ROOT=38 WEIGHT=    0.011111
    ROOT=39 WEIGHT=    0.011111
    ROOT=40 WEIGHT=    0.011111
    ROOT=41 WEIGHT=    0.011111
    ROOT=42 WEIGHT=    0.011111
    ROOT=43 WEIGHT=    0.011111
    ROOT=44 WEIGHT=    0.011111

  PrintLevel                        ...    1
  N(GuessMat)                       ...       512
  MaxDim(CI)                        ...        10
  MaxIter(CI)                       ...        64
  Energy Tolerance CI               ...  1.00e-08
  Residual Tolerance CI             ...  1.00e-08
  Shift(CI)                         ...  1.00e-04

INTEGRAL-TRANSFORMATION-STEP:
  Algorithm                         ... RI-MO

ORBITAL-IMPROVEMENT-STEP:
  Algorithm                         ... SuperCI(PT)
  Default Parametrization           ... CAYLEY
  Act-Act rotations                 ... depends on algorithm used

  Note: SuperCI(PT) will ignore FreezeIE, FreezeAct and FreezeGrad. In general Default settings are encouraged.
        In conjunction with ShiftUp, ShiftDn or GradScaling the performance of SuperCI(PT) is less optimal.  

  MaxRot                            ... 2.00e-01 
  Max. no of vectors (DIIS)         ... 15
  DThresh (cut-off) metric          ... 1.00e-06
  Switch step at gradient           ...  3.00e-02 
  Switch step at iteration          ...        50   
  Switch step to                    ... SuperCI(PT)    

SCF-SETTINGS:
  Incremental                       ... off
  RIJCOSX approximation             ... on
  UseFinalGrid                      ... on
  RI-JK approximation               ... off
  AO integral handling              ... DIRECT
  Integral Neglect Thresh           ...  1.00e-10
  Primitive cutoff TCut             ...  1.00e-11
  Energy convergence tolerance      ...  1.00e-07
  Orbital gradient convergence      ...  1.00e-03
  Max. number of iterations         ...        75  

PT2-SETTINGS:
  A PT2 calculation will be performed on top of the CASSCF wave function (PT2 = SC-NEVPT2)   
 CI step strategy                   ... General CI
  D4C handling                      ... on the fly 
  CI truncation for D4C at          ...  1.00e-14
  CI truncation for D3  at          ...  1.00e-14
  Orbitals                          ... canonical for each state 
  Last  frozen  orbital             ... 4
  First deleted orbital             ... 605
  RI Step                           ... store IJV(array) (MC_ONDISK during integral transformation) 

PROPERTIES-SETTINGS:
  Spin orbit coupling               ... true
  GTensor                           ... true
  QDPT diagonal energies            ... NEVPT2 energies 

FINAL ORBITALS:
  Active   Orbitals                 ... natural 
  Internal Orbitals                 ... canonical 
  External Orbitals                 ... canonical 

------------------
CAS-SCF ITERATIONS
------------------


MACRO-ITERATION   1: 
   --- Inactive Energy E0 = -3133.90952875 Eh
CI-ITERATION   0: 
 -3149.818662141   0.000000000000 (    0.00)
 -3149.815422602   0.000000000000
 -3149.814973316   0.000000000000
 -3149.811893217   0.000000000000
 -3149.808363618   0.000000000000
   CI-PROBLEM SOLVED
   DENSITIES MADE
CI-ITERATION   0: 
 -3149.725474709   0.000000000000 (    0.00)
 -3149.725195100   0.000000000000
 -3149.723169728   0.000000000000
 -3149.723013112   0.000000000000
 -3149.721032946   0.000000000000
 -3149.720482648   0.000000000000
 -3149.719767003   0.000000000000
 -3149.718187165   0.000000000000
 -3149.717184858   0.000000000000
 -3149.714904762   0.000000000000
 -3149.714834596   0.000000000000
 -3149.710343171   0.000000000000
 -3149.709365973   0.000000000000
 -3149.708339796   0.000000000000
 -3149.706972583   0.000000000000
 -3149.705752888   0.000000000000
 -3149.702215064   0.000000000000
 -3149.702090671   0.000000000000
 -3149.701473456   0.000000000000
 -3149.700783315   0.000000000000
 -3149.697205444   0.000000000000
 -3149.696943825   0.000000000000
 -3149.696503818   0.000000000000
 -3149.696334870   0.000000000000
 -3149.694718615   0.000000000000
 -3149.690996058   0.000000000000
 -3149.690377290   0.000000000000
 -3149.689948818   0.000000000000
 -3149.688190027   0.000000000000
 -3149.688121890   0.000000000000
 -3149.661411680   0.000000000000
 -3149.657913334   0.000000000000
 -3149.657745391   0.000000000000
 -3149.656276482   0.000000000000
 -3149.654770979   0.000000000000
 -3149.557802398   0.000000000000
 -3149.557775330   0.000000000000
 -3149.556161847   0.000000000000
 -3149.554605752   0.000000000000
 -3149.554374829   0.000000000000
 -3149.553710027   0.000000000000
 -3149.553596369   0.000000000000
 -3149.549815507   0.000000000000
 -3149.549357979   0.000000000000
 -3149.548731855   0.000000000000
   CI-PROBLEM SOLVED
   DENSITIES MADE

                 <<<<<<<<<<<<<<<<<<INITIAL CI STATE CHECK>>>>>>>>>>>>>>>>>>

BLOCK  1 MULT= 5 NROOTS= 5 
ROOT   0:  E=   -3149.8186621414 Eh
      0.58727 [     2]: 11211
      0.26377 [     1]: 11121
      0.09550 [     0]: 11112
      0.05345 [     4]: 21111
ROOT   1:  E=   -3149.8154226022 Eh  0.088 eV    711.0 cm**-1
      0.62621 [     1]: 11121
      0.35415 [     2]: 11211
      0.01479 [     4]: 21111
      0.00485 [     0]: 11112
ROOT   2:  E=   -3149.8149733157 Eh  0.100 eV    809.6 cm**-1
      0.58383 [     0]: 11112
      0.40502 [     4]: 21111
      0.00825 [     2]: 11211
ROOT   3:  E=   -3149.8118932168 Eh  0.184 eV   1485.6 cm**-1
      0.52607 [     4]: 21111
      0.31502 [     0]: 11112
      0.10859 [     1]: 11121
      0.05031 [     2]: 11211
ROOT   4:  E=   -3149.8083636175 Eh  0.280 eV   2260.3 cm**-1
      0.99852 [     3]: 12111

BLOCK  2 MULT= 3 NROOTS=45 
ROOT   0:  E=   -3149.7254747091 Eh
      0.50391 [     8]: 10221
      0.10951 [    13]: 11211
      0.07010 [    11]: 11121
      0.06250 [    10]: 11112
      0.04445 [    16]: 12021
      0.03112 [     7]: 10212
      0.03031 [    20]: 12201
      0.02847 [    24]: 20211
      0.02823 [    28]: 21111
      0.01590 [     6]: 10122
      0.00777 [     3]: 02112
      0.00760 [    12]: 11202
      0.00649 [     2]: 01221
      0.00647 [    14]: 11220
      0.00574 [    34]: 22110
      0.00526 [     1]: 01212
      0.00483 [     0]: 01122
      0.00473 [    25]: 21012
      0.00435 [    32]: 22011
      0.00411 [    30]: 21201
      0.00311 [    15]: 12012
      0.00267 [    21]: 12210
      0.00252 [    23]: 20121
ROOT   1:  E=   -3149.7251950998 Eh  0.008 eV     61.4 cm**-1
      0.16488 [     6]: 10122
      0.13181 [     7]: 10212
      0.12020 [    22]: 20112
      0.11712 [    13]: 11211
      0.10203 [    23]: 20121
      0.06886 [    24]: 20211
      0.04017 [     2]: 01221
      0.03394 [    28]: 21111
      0.02741 [    14]: 11220
      0.02381 [    19]: 12120
      0.02134 [    10]: 11112
      0.02078 [     1]: 01212
      0.01535 [     4]: 02121
      0.01409 [    15]: 12012
      0.01296 [    11]: 11121
      0.01255 [    31]: 21210
      0.01165 [    26]: 21021
      0.01075 [     9]: 11022
      0.01039 [    34]: 22110
      0.00853 [     3]: 02112
      0.00724 [    32]: 22011
      0.00593 [    17]: 12102
      0.00378 [    21]: 12210
      0.00334 [    33]: 22101
      0.00308 [    30]: 21201
ROOT   2:  E=   -3149.7231697278 Eh  0.063 eV    505.9 cm**-1
      0.21179 [    24]: 20211
      0.13710 [     7]: 10212
      0.11682 [    14]: 11220
      0.06332 [    27]: 21102
      0.06189 [     2]: 01221
      0.04016 [     0]: 01122
      0.03624 [    13]: 11211
      0.03582 [     5]: 02211
      0.03348 [     9]: 11022
      0.03280 [     8]: 10221
      0.03273 [    10]: 11112
      0.03111 [    12]: 11202
      0.02667 [    11]: 11121
      0.02315 [    26]: 21021
      0.02248 [    21]: 12210
      0.01742 [    28]: 21111
      0.01476 [    30]: 21201
      0.01209 [    29]: 21120
      0.00984 [    32]: 22011
      0.00675 [    15]: 12012
      0.00673 [    20]: 12201
      0.00618 [    25]: 21012
      0.00346 [    22]: 20112
      0.00309 [    16]: 12021
      0.00294 [     6]: 10122
      0.00276 [    31]: 21210
ROOT   3:  E=   -3149.7230131121 Eh  0.067 eV    540.3 cm**-1
      0.20774 [    11]: 11121
      0.16230 [     2]: 01221
      0.11183 [    22]: 20112
      0.09758 [    13]: 11211
      0.06845 [    14]: 11220
      0.05805 [    30]: 21201
      0.05248 [    28]: 21111
      0.04533 [    12]: 11202
      0.04376 [    10]: 11112
      0.03125 [    29]: 21120
      0.02012 [     0]: 01122
      0.01391 [     3]: 02112
      0.01339 [     6]: 10122
      0.01337 [    23]: 20121
      0.01329 [     7]: 10212
      0.00931 [    34]: 22110
      0.00801 [     1]: 01212
      0.00741 [    18]: 12111
      0.00392 [    19]: 12120
      0.00362 [     4]: 02121
      0.00258 [    31]: 21210
      0.00256 [    26]: 21021
ROOT   4:  E=   -3149.7210329463 Eh  0.121 eV    974.9 cm**-1
      0.24684 [    10]: 11112
      0.16128 [    28]: 21111
      0.07265 [    24]: 20211
      0.06137 [     9]: 11022
      0.05966 [    23]: 20121
      0.04852 [     6]: 10122
      0.04782 [     7]: 10212
      0.04048 [    14]: 11220
      0.03901 [    25]: 21012
      0.03741 [    26]: 21021
      0.02296 [     8]: 10221
      0.02142 [     2]: 01221
      0.02106 [    32]: 22011
      0.01571 [    31]: 21210
      0.01475 [    11]: 11121
      0.01348 [    13]: 11211
      0.01327 [    15]: 12012
      0.01251 [     0]: 01122
      0.00953 [     4]: 02121
      0.00770 [    12]: 11202
      0.00758 [    19]: 12120
      0.00675 [     1]: 01212
      0.00473 [    30]: 21201
      0.00349 [    16]: 12021
      0.00278 [    27]: 21102
ROOT   5:  E=   -3149.7204826482 Eh  0.136 eV   1095.6 cm**-1
      0.34648 [    13]: 11211
      0.18520 [    11]: 11121
      0.08695 [     7]: 10212
      0.06549 [    28]: 21111
      0.06248 [    24]: 20211
      0.05823 [     1]: 01212
      0.05082 [    31]: 21210
      0.03285 [    10]: 11112
      0.02859 [    18]: 12111
      0.01164 [    12]: 11202
      0.00954 [    30]: 21201
      0.00898 [     6]: 10122
      0.00729 [     0]: 01122
      0.00687 [    23]: 20121
      0.00683 [     2]: 01221
      0.00625 [    29]: 21120
      0.00563 [    32]: 22011
      0.00455 [    15]: 12012
      0.00294 [    34]: 22110
      0.00270 [    17]: 12102
      0.00264 [    33]: 22101
ROOT   6:  E=   -3149.7197670034 Eh  0.155 eV   1252.7 cm**-1
      0.21394 [    11]: 11121
      0.12098 [    28]: 21111
      0.09115 [     2]: 01221
      0.08962 [    13]: 11211
      0.08602 [    14]: 11220
      0.07468 [    10]: 11112
      0.07086 [    18]: 12111
      0.04392 [     0]: 01122
      0.03479 [    30]: 21201
      0.02889 [    29]: 21120
      0.02046 [    12]: 11202
      0.01772 [    17]: 12102
      0.01764 [    19]: 12120
      0.01540 [     1]: 01212
      0.01489 [     7]: 10212
      0.01026 [    31]: 21210
      0.01024 [    33]: 22101
      0.00993 [     4]: 02121
      0.00907 [    24]: 20211
      0.00465 [    22]: 20112
      0.00435 [     3]: 02112
      0.00361 [     9]: 11022
ROOT   7:  E=   -3149.7181871650 Eh  0.198 eV   1599.4 cm**-1
      0.24237 [    10]: 11112
      0.17404 [    28]: 21111
      0.09534 [     8]: 10221
      0.09369 [    11]: 11121
      0.06986 [     0]: 01122
      0.05016 [     4]: 02121
      0.04043 [    33]: 22101
      0.03128 [    19]: 12120
      0.02568 [     3]: 02112
      0.02567 [    34]: 22110
      0.02482 [    29]: 21120
      0.02399 [    17]: 12102
      0.02372 [    18]: 12111
      0.01326 [    20]: 12201
      0.01303 [    24]: 20211
      0.01247 [     7]: 10212
      0.01150 [     2]: 01221
      0.00700 [    16]: 12021
      0.00633 [    27]: 21102
      0.00518 [    13]: 11211
      0.00471 [    14]: 11220
ROOT   8:  E=   -3149.7171848578 Eh  0.226 eV   1819.4 cm**-1
      0.20955 [    18]: 12111
      0.14392 [    11]: 11121
      0.10956 [    27]: 21102
      0.10930 [    10]: 11112
      0.06680 [     4]: 02121
      0.05237 [     0]: 01122
      0.05110 [    28]: 21111
      0.03805 [    19]: 12120
      0.03206 [    24]: 20211
      0.02600 [    29]: 21120
      0.02384 [    25]: 21012
      0.02087 [     7]: 10212
      0.01928 [     3]: 02112
      0.01762 [    34]: 22110
      0.01070 [    31]: 21210
      0.00977 [     2]: 01221
      0.00868 [    33]: 22101
      0.00660 [     8]: 10221
      0.00577 [     5]: 02211
      0.00514 [    30]: 21201
      0.00495 [    20]: 12201
      0.00493 [    21]: 12210
      0.00413 [     1]: 01212
      0.00412 [    13]: 11211
      0.00378 [    17]: 12102
      0.00333 [    14]: 11220
ROOT   9:  E=   -3149.7149047621 Eh  0.288 eV   2319.8 cm**-1
      0.20048 [    28]: 21111
      0.13468 [    10]: 11112
      0.08692 [    21]: 12210
      0.07772 [    15]: 12012
      0.07586 [    11]: 11121
      0.05396 [     5]: 02211
      0.04928 [    32]: 22011
      0.04071 [    26]: 21021
      0.03766 [    29]: 21120
      0.03250 [     0]: 01122
      0.02917 [    30]: 21201
      0.02556 [    19]: 12120
      0.02475 [    18]: 12111
      0.02169 [    17]: 12102
      0.01991 [    12]: 11202
      0.01969 [     4]: 02121
      0.01647 [    33]: 22101
      0.01231 [     9]: 11022
      0.01054 [     2]: 01221
      0.01049 [    22]: 20112
      0.00814 [    13]: 11211
      0.00338 [    25]: 21012
      0.00302 [     3]: 02112
ROOT  10:  E=   -3149.7148345959 Eh  0.290 eV   2335.2 cm**-1
      0.15766 [    18]: 12111
      0.13339 [    25]: 21012
      0.07914 [    27]: 21102
      0.07529 [    13]: 11211
      0.06333 [     3]: 02112
      0.06217 [    34]: 22110
      0.06194 [    31]: 21210
      0.04401 [    14]: 11220
      0.04318 [    11]: 11121
      0.03594 [     9]: 11022
      0.03515 [    16]: 12021
      0.03008 [    20]: 12201
      0.02926 [     2]: 01221
      0.02715 [     1]: 01212
      0.02407 [    29]: 21120
      0.02278 [    26]: 21021
      0.01589 [     4]: 02121
      0.01217 [     5]: 02211
      0.01214 [    19]: 12120
      0.00869 [    32]: 22011
      0.00533 [    10]: 11112
      0.00523 [    28]: 21111
      0.00347 [     0]: 01122
      0.00321 [     8]: 10221
      0.00256 [    33]: 22101
ROOT  11:  E=   -3149.7103431709 Eh  0.412 eV   3321.0 cm**-1
      0.20660 [    10]: 11112
      0.15239 [    28]: 21111
      0.14771 [    14]: 11220
      0.10985 [     2]: 01221
      0.07884 [    13]: 11211
      0.05890 [     9]: 11022
      0.03505 [    25]: 21012
      0.03450 [    26]: 21021
      0.03082 [    24]: 20211
      0.02071 [     7]: 10212
      0.01808 [    23]: 20121
      0.01406 [     6]: 10122
      0.01059 [    11]: 11121
      0.00919 [     1]: 01212
      0.00915 [    12]: 11202
      0.00834 [    30]: 21201
      0.00716 [    32]: 22011
      0.00698 [    31]: 21210
      0.00677 [    33]: 22101
      0.00611 [    17]: 12102
      0.00480 [    18]: 12111
      0.00433 [    15]: 12012
      0.00374 [    16]: 12021
      0.00325 [     4]: 02121
      0.00257 [    20]: 12201
ROOT  12:  E=   -3149.7093659729 Eh  0.438 eV   3535.5 cm**-1
      0.15111 [    30]: 21201
      0.11299 [    28]: 21111
      0.11184 [     2]: 01221
      0.10450 [    12]: 11202
      0.08359 [    14]: 11220
      0.07805 [    10]: 11112
      0.06428 [    26]: 21021
      0.05022 [     9]: 11022
      0.03666 [     6]: 10122
      0.02429 [    15]: 12012
      0.02401 [    23]: 20121
      0.01923 [    11]: 11121
      0.01902 [     7]: 10212
      0.01750 [    32]: 22011
      0.01350 [    29]: 21120
      0.01291 [     0]: 01122
      0.01123 [    24]: 20211
      0.00954 [    17]: 12102
      0.00882 [    19]: 12120
      0.00696 [    22]: 20112
      0.00678 [    33]: 22101
      0.00664 [     4]: 02121
      0.00645 [    21]: 12210
      0.00581 [    18]: 12111
      0.00341 [     5]: 02211
      0.00311 [    27]: 21102
      0.00297 [    31]: 21210
ROOT  13:  E=   -3149.7083397963 Eh  0.466 eV   3760.7 cm**-1
      0.21864 [    13]: 11211
      0.19423 [    27]: 21102
      0.14786 [    18]: 12111
      0.07521 [     8]: 10221
      0.05777 [    11]: 11121
      0.03623 [    19]: 12120
      0.03326 [     4]: 02121
      0.02956 [    33]: 22101
      0.02928 [    17]: 12102
      0.02656 [    25]: 21012
      0.02199 [     0]: 01122
      0.01871 [    16]: 12021
      0.01750 [    31]: 21210
      0.01380 [    14]: 11220
      0.01348 [     2]: 01221
      0.01312 [    12]: 11202
      0.00991 [    28]: 21111
      0.00906 [    29]: 21120
      0.00772 [     7]: 10212
      0.00753 [    24]: 20211
      0.00443 [     9]: 11022
      0.00335 [    26]: 21021
      0.00256 [    10]: 11112
ROOT  14:  E=   -3149.7069725832 Eh  0.503 eV   4060.7 cm**-1
      0.30746 [    13]: 11211
      0.08802 [     0]: 01122
      0.08631 [    29]: 21120
      0.07275 [    22]: 20112
      0.07024 [    11]: 11121
      0.05995 [    28]: 21111
      0.05324 [    10]: 11112
      0.03868 [    31]: 21210
      0.03344 [    34]: 22110
      0.03247 [     1]: 01212
      0.03200 [     3]: 02112
      0.02600 [    30]: 21201
      0.01853 [     2]: 01221
      0.01746 [     6]: 10122
      0.01606 [    23]: 20121
      0.01375 [    12]: 11202
      0.00712 [    17]: 12102
      0.00620 [    33]: 22101
      0.00481 [    14]: 11220
      0.00366 [    19]: 12120
      0.00340 [     4]: 02121
      0.00260 [     5]: 02211
ROOT  15:  E=   -3149.7057528880 Eh  0.537 eV   4328.4 cm**-1
      0.17310 [    10]: 11112
      0.16519 [     4]: 02121
      0.12346 [    28]: 21111
      0.09662 [    19]: 12120
      0.09418 [    18]: 12111
      0.04582 [    27]: 21102
      0.04551 [    24]: 20211
      0.03897 [     9]: 11022
      0.03013 [     7]: 10212
      0.02598 [    26]: 21021
      0.01755 [    25]: 21012
      0.01662 [    32]: 22011
      0.01344 [    33]: 22101
      0.01110 [    17]: 12102
      0.01083 [    23]: 20121
      0.00909 [     6]: 10122
      0.00816 [    15]: 12012
      0.00754 [     0]: 01122
      0.00742 [    16]: 12021
      0.00687 [     3]: 02112
      0.00658 [    30]: 21201
      0.00513 [    34]: 22110
      0.00500 [    29]: 21120
      0.00493 [    12]: 11202
      0.00475 [     8]: 10221
      0.00451 [     1]: 01212
      0.00428 [    20]: 12201
      0.00418 [     2]: 01221
      0.00397 [    11]: 11121
      0.00319 [    14]: 11220
ROOT  16:  E=   -3149.7022150640 Eh  0.633 eV   5104.9 cm**-1
      0.18871 [    21]: 12210
      0.13698 [     5]: 02211
      0.13361 [    28]: 21111
      0.07901 [    10]: 11112
      0.06834 [    11]: 11121
      0.06201 [    19]: 12120
      0.04435 [     4]: 02121
      0.03664 [    30]: 21201
      0.03179 [    13]: 11211
      0.02556 [     2]: 01221
      0.02259 [    12]: 11202
      0.01939 [     7]: 10212
      0.01868 [    34]: 22110
      0.01853 [    14]: 11220
      0.01206 [    15]: 12012
      0.01092 [    24]: 20211
      0.01065 [    29]: 21120
      0.01032 [    17]: 12102
      0.00992 [    22]: 20112
      0.00674 [     6]: 10122
      0.00631 [    26]: 21021
      0.00569 [     1]: 01212
      0.00554 [    32]: 22011
      0.00553 [    31]: 21210
      0.00546 [    18]: 12111
      0.00541 [     0]: 01122
      0.00487 [    33]: 22101
      0.00484 [     3]: 02112
      0.00387 [    23]: 20121
      0.00307 [     9]: 11022
ROOT  17:  E=   -3149.7020906711 Eh  0.636 eV   5132.2 cm**-1
      0.13436 [    25]: 21012
      0.13378 [    18]: 12111
      0.09068 [    13]: 11211
      0.07280 [     4]: 02121
      0.06785 [    19]: 12120
      0.06448 [    33]: 22101
      0.05109 [    17]: 12102
      0.04599 [    14]: 11220
      0.04129 [    11]: 11121
      0.03647 [    31]: 21210
      0.03424 [    10]: 11112
      0.03341 [    16]: 12021
      0.02677 [     3]: 02112
      0.02458 [     2]: 01221
      0.02410 [    34]: 22110
      0.02300 [    28]: 21111
      0.01604 [     8]: 10221
      0.01313 [     1]: 01212
      0.01094 [    15]: 12012
      0.01028 [    27]: 21102
      0.00855 [    26]: 21021
      0.00741 [    20]: 12201
      0.00668 [    32]: 22011
      0.00629 [     0]: 01122
      0.00547 [     9]: 11022
      0.00366 [    12]: 11202
ROOT  18:  E=   -3149.7014734561 Eh  0.653 eV   5267.7 cm**-1
      0.32669 [    18]: 12111
      0.17897 [    27]: 21102
      0.08388 [     3]: 02112
      0.07820 [    34]: 22110
      0.06292 [    11]: 11121
      0.04584 [    16]: 12021
      0.03575 [     8]: 10221
      0.02685 [    31]: 21210
      0.02109 [    25]: 21012
      0.02085 [    14]: 11220
      0.01411 [     1]: 01212
      0.01257 [    21]: 12210
      0.01214 [    32]: 22011
      0.01136 [    13]: 11211
      0.00965 [    10]: 11112
      0.00943 [    28]: 21111
      0.00886 [     2]: 01221
      0.00684 [    33]: 22101
      0.00672 [     4]: 02121
      0.00617 [     0]: 01122
      0.00476 [    24]: 20211
      0.00470 [     7]: 10212
      0.00422 [    19]: 12120
ROOT  19:  E=   -3149.7007833152 Eh  0.672 eV   5419.1 cm**-1
      0.35194 [    15]: 12012
      0.25548 [    32]: 22011
      0.06968 [    28]: 21111
      0.06092 [    11]: 11121
      0.04268 [    10]: 11112
      0.03452 [    22]: 20112
      0.02214 [    30]: 21201
      0.01900 [    19]: 12120
      0.01871 [     6]: 10122
      0.01714 [     3]: 02112
      0.01449 [    12]: 11202
      0.01284 [     2]: 01221
      0.01203 [     4]: 02121
      0.01071 [    23]: 20121
      0.00986 [    24]: 20211
      0.00865 [    18]: 12111
      0.00849 [     7]: 10212
      0.00465 [    17]: 12102
      0.00456 [    13]: 11211
      0.00437 [    34]: 22110
      0.00394 [    14]: 11220
      0.00252 [    33]: 22101
ROOT  20:  E=   -3149.6972054440 Eh  0.769 eV   6204.4 cm**-1
      0.24233 [    33]: 22101
      0.14150 [    17]: 12102
      0.13548 [    18]: 12111
      0.04305 [    32]: 22011
      0.03976 [    23]: 20121
      0.03021 [    24]: 20211
      0.03000 [     5]: 02211
      0.02901 [    34]: 22110
      0.02774 [    15]: 12012
      0.02572 [     4]: 02121
      0.02382 [    19]: 12120
      0.02221 [     6]: 10122
      0.01930 [     8]: 10221
      0.01866 [     7]: 10212
      0.01850 [    27]: 21102
      0.01789 [    20]: 12201
      0.01751 [    21]: 12210
      0.01737 [    12]: 11202
      0.01730 [     3]: 02112
      0.01712 [    10]: 11112
      0.01225 [     9]: 11022
      0.01087 [    28]: 21111
      0.00989 [    13]: 11211
      0.00943 [    26]: 21021
      0.00872 [    30]: 21201
      0.00542 [     1]: 01212
ROOT  21:  E=   -3149.6969438255 Eh  0.776 eV   6261.8 cm**-1
      0.28681 [    11]: 11121
      0.10005 [     0]: 01122
      0.08349 [    29]: 21120
      0.07860 [     1]: 01212
      0.07344 [    13]: 11211
      0.07001 [    31]: 21210
      0.05853 [    30]: 21201
      0.04233 [    28]: 21111
      0.04125 [    22]: 20112
      0.03650 [    12]: 11202
      0.02210 [     3]: 02112
      0.02125 [    10]: 11112
      0.01861 [    34]: 22110
      0.01819 [     2]: 01221
      0.01608 [    14]: 11220
      0.00965 [    18]: 12111
      0.00540 [    15]: 12012
      0.00304 [     5]: 02211
      0.00296 [    32]: 22011
ROOT  22:  E=   -3149.6965038184 Eh  0.788 eV   6358.4 cm**-1
      0.17170 [    11]: 11121
      0.12403 [    13]: 11211
      0.11982 [    22]: 20112
      0.08571 [     1]: 01212
      0.07727 [    31]: 21210
      0.05603 [     6]: 10122
      0.05193 [     3]: 02112
      0.04855 [    28]: 21111
      0.04622 [    23]: 20121
      0.03604 [    17]: 12102
      0.03391 [    34]: 22110
      0.02669 [    18]: 12111
      0.02597 [    33]: 22101
      0.02423 [    10]: 11112
      0.01726 [    19]: 12120
      0.01604 [     4]: 02121
      0.01338 [    12]: 11202
      0.01088 [    30]: 21201
      0.00525 [     9]: 11022
ROOT  23:  E=   -3149.6963348696 Eh  0.793 eV   6395.5 cm**-1
      0.28080 [    10]: 11112
      0.16260 [    28]: 21111
      0.07224 [    18]: 12111
      0.05934 [    13]: 11211
      0.05732 [    14]: 11220
      0.04873 [     2]: 01221
      0.04068 [    16]: 12021
      0.02729 [     8]: 10221
      0.02548 [    24]: 20211
      0.02472 [     5]: 02211
      0.01980 [    31]: 21210
      0.01666 [    21]: 12210
      0.01582 [    23]: 20121
      0.01554 [     9]: 11022
      0.01509 [    11]: 11121
      0.01504 [     7]: 10212
      0.01423 [    32]: 22011
      0.01219 [    27]: 21102
      0.01040 [    26]: 21021
      0.00762 [    20]: 12201
      0.00712 [     6]: 10122
      0.00702 [    15]: 12012
      0.00690 [    34]: 22110
      0.00624 [    30]: 21201
      0.00515 [    25]: 21012
      0.00494 [    33]: 22101
      0.00461 [    29]: 21120
      0.00364 [    12]: 11202
      0.00313 [     4]: 02121
      0.00305 [    17]: 12102
      0.00265 [     3]: 02112
ROOT  24:  E=   -3149.6947186146 Eh  0.837 eV   6750.2 cm**-1
      0.21452 [    13]: 11211
      0.21240 [    28]: 21111
      0.16487 [    10]: 11112
      0.05166 [    22]: 20112
      0.04679 [    30]: 21201
      0.04037 [     6]: 10122
      0.02523 [    34]: 22110
      0.02378 [    23]: 20121
      0.02350 [    19]: 12120
      0.02346 [    12]: 11202
      0.02098 [     3]: 02112
      0.01916 [    11]: 11121
      0.01703 [    29]: 21120
      0.01660 [    17]: 12102
      0.01426 [     4]: 02121
      0.01424 [     2]: 01221
      0.01057 [    15]: 12012
      0.01005 [    24]: 20211
      0.00977 [    33]: 22101
      0.00809 [     7]: 10212
      0.00770 [     0]: 01122
      0.00540 [    31]: 21210
      0.00464 [    14]: 11220
      0.00457 [    32]: 22011
ROOT  25:  E=   -3149.6909960583 Eh  0.938 eV   7567.2 cm**-1
      0.27475 [    16]: 12021
      0.12912 [    34]: 22110
      0.12167 [     3]: 02112
      0.10020 [    18]: 12111
      0.07139 [    13]: 11211
      0.04932 [    25]: 21012
      0.03780 [     1]: 01212
      0.03712 [    11]: 11121
      0.02732 [     8]: 10221
      0.02528 [    27]: 21102
      0.02191 [    20]: 12201
      0.01724 [     5]: 02211
      0.01159 [    31]: 21210
      0.00984 [    19]: 12120
      0.00874 [    21]: 12210
      0.00674 [     9]: 11022
      0.00637 [    14]: 11220
      0.00577 [    28]: 21111
      0.00559 [    26]: 21021
      0.00439 [    33]: 22101
      0.00372 [    10]: 11112
      0.00347 [    29]: 21120
      0.00321 [     7]: 10212
      0.00317 [     2]: 01221
      0.00315 [    24]: 20211
      0.00302 [    30]: 21201
ROOT  26:  E=   -3149.6903772904 Eh  0.955 eV   7703.0 cm**-1
      0.34188 [    18]: 12111
      0.16548 [    11]: 11121
      0.09299 [    13]: 11211
      0.05001 [    31]: 21210
      0.04216 [    14]: 11220
      0.04005 [     1]: 01212
      0.03783 [    19]: 12120
      0.03601 [    10]: 11112
      0.02673 [    34]: 22110
      0.02487 [    30]: 21201
      0.02486 [    12]: 11202
      0.02095 [     4]: 02121
      0.02088 [    28]: 21111
      0.01832 [     2]: 01221
      0.01632 [    17]: 12102
      0.01129 [    22]: 20112
      0.00693 [    21]: 12210
      0.00649 [    33]: 22101
      0.00326 [     9]: 11022
      0.00319 [    32]: 22011
      0.00265 [     6]: 10122
ROOT  27:  E=   -3149.6899488184 Eh  0.967 eV   7797.0 cm**-1
      0.18573 [    32]: 22011
      0.12294 [    15]: 12012
      0.10639 [     9]: 11022
      0.09156 [    12]: 11202
      0.07899 [    18]: 12111
      0.06901 [    26]: 21021
      0.05552 [    30]: 21201
      0.04490 [    10]: 11112
      0.03922 [     5]: 02211
      0.03144 [    28]: 21111
      0.02388 [    21]: 12210
      0.01917 [     4]: 02121
      0.01680 [    11]: 11121
      0.01538 [    24]: 20211
      0.01460 [    29]: 21120
      0.01253 [    33]: 22101
      0.01068 [    19]: 12120
      0.01056 [     7]: 10212
      0.01009 [    27]: 21102
      0.00922 [     0]: 01122
      0.00881 [    25]: 21012
      0.00713 [    34]: 22110
      0.00664 [    17]: 12102
      0.00299 [     3]: 02112
ROOT  28:  E=   -3149.6881900271 Eh  1.015 eV   8183.0 cm**-1
      0.19794 [    28]: 21111
      0.14463 [    17]: 12102
      0.12525 [    10]: 11112
      0.10660 [    33]: 22101
      0.09439 [    18]: 12111
      0.08449 [    19]: 12120
      0.06922 [    11]: 11121
      0.06497 [     4]: 02121
      0.03632 [    13]: 11211
      0.01830 [    31]: 21210
      0.00699 [    30]: 21201
      0.00670 [    32]: 22011
      0.00612 [     1]: 01212
      0.00542 [    15]: 12012
      0.00494 [    21]: 12210
      0.00378 [    12]: 11202
      0.00332 [     9]: 11022
      0.00298 [    25]: 21012
      0.00274 [     7]: 10212
ROOT  29:  E=   -3149.6881218902 Eh  1.016 eV   8198.0 cm**-1
      0.17739 [    18]: 12111
      0.15470 [    25]: 21012
      0.14866 [    20]: 12201
      0.05740 [    28]: 21111
      0.05486 [    16]: 12021
      0.05179 [    27]: 21102
      0.03384 [    11]: 11121
      0.03132 [    34]: 22110
      0.03031 [    33]: 22101
      0.02857 [    31]: 21210
      0.02580 [     3]: 02112
      0.02464 [    10]: 11112
      0.02282 [     1]: 01212
      0.02160 [    13]: 11211
      0.01860 [    26]: 21021
      0.01769 [    17]: 12102
      0.01447 [    21]: 12210
      0.01431 [     5]: 02211
      0.01283 [    29]: 21120
      0.01119 [     0]: 01122
      0.01093 [     9]: 11022
      0.00903 [     4]: 02121
      0.00709 [    19]: 12120
      0.00588 [    14]: 11220
      0.00474 [     2]: 01221
      0.00470 [     8]: 10221
ROOT  30:  E=   -3149.6614116796 Eh  1.743 eV  14060.2 cm**-1
      0.32847 [    13]: 11211
      0.14601 [    22]: 20112
      0.08867 [     0]: 01122
      0.08025 [    29]: 21120
      0.06976 [    11]: 11121
      0.05394 [    28]: 21111
      0.04596 [    10]: 11112
      0.03611 [     3]: 02112
      0.02822 [     6]: 10122
      0.02581 [    23]: 20121
      0.02523 [    34]: 22110
      0.01404 [    31]: 21210
      0.01264 [    18]: 12111
      0.01234 [     1]: 01212
      0.00929 [    17]: 12102
      0.00724 [    33]: 22101
      0.00335 [    24]: 20211
      0.00275 [     4]: 02121
      0.00256 [     2]: 01221
ROOT  31:  E=   -3149.6579133342 Eh  1.838 eV  14828.0 cm**-1
      0.11883 [    23]: 20121
      0.07936 [     6]: 10122
      0.07910 [    16]: 12021
      0.07852 [    10]: 11112
      0.06901 [    32]: 22011
      0.06725 [    28]: 21111
      0.06581 [     5]: 02211
      0.05448 [    20]: 12201
      0.04359 [     9]: 11022
      0.04328 [    12]: 11202
      0.03680 [    15]: 12012
      0.03547 [    21]: 12210
      0.03209 [    25]: 21012
      0.02804 [    30]: 21201
      0.02719 [    33]: 22101
      0.02576 [    17]: 12102
      0.02478 [    26]: 21021
      0.02035 [     4]: 02121
      0.01829 [     1]: 01212
      0.01501 [    13]: 11211
      0.01004 [    18]: 12111
      0.00826 [    19]: 12120
      0.00665 [    31]: 21210
      0.00313 [     8]: 10221
      0.00251 [    11]: 11121
ROOT  32:  E=   -3149.6577453907 Eh  1.843 eV  14864.9 cm**-1
      0.32434 [    18]: 12111
      0.25083 [    11]: 11121
      0.08935 [    31]: 21210
      0.08733 [     1]: 01212
      0.07061 [    13]: 11211
      0.02141 [    29]: 21120
      0.02104 [     0]: 01122
      0.01862 [    10]: 11112
      0.01478 [    28]: 21111
      0.01386 [    19]: 12120
      0.01214 [     7]: 10212
      0.01039 [     6]: 10122
      0.00939 [    34]: 22110
      0.00902 [    23]: 20121
      0.00768 [     5]: 02211
      0.00727 [    24]: 20211
      0.00613 [     4]: 02121
      0.00550 [    14]: 11220
      0.00398 [    22]: 20112
      0.00367 [     9]: 11022
      0.00352 [    21]: 12210
      0.00286 [     3]: 02112
ROOT  33:  E=   -3149.6562764820 Eh  1.883 eV  15187.3 cm**-1
      0.20628 [    28]: 21111
      0.15127 [    10]: 11112
      0.10583 [    17]: 12102
      0.07296 [    33]: 22101
      0.07207 [     7]: 10212
      0.05882 [    21]: 12210
      0.05585 [    24]: 20211
      0.05172 [    19]: 12120
      0.04543 [     5]: 02211
      0.03790 [     4]: 02121
      0.02017 [    31]: 21210
      0.01981 [     6]: 10122
      0.01530 [     1]: 01212
      0.01424 [    29]: 21120
      0.01402 [    22]: 20112
      0.01190 [    23]: 20121
      0.00979 [    11]: 11121
      0.00956 [     0]: 01122
      0.00887 [    18]: 12111
      0.00630 [    13]: 11211
      0.00419 [    34]: 22110
      0.00257 [    20]: 12201
ROOT  34:  E=   -3149.6547709789 Eh  1.924 eV  15517.7 cm**-1
      0.20515 [    11]: 11121
      0.10205 [    18]: 12111
      0.09545 [    16]: 12021
      0.08960 [    20]: 12201
      0.06623 [    25]: 21012
      0.04726 [    15]: 12012
      0.04561 [    21]: 12210
      0.04029 [    13]: 11211
      0.03870 [     1]: 01212
      0.03669 [    27]: 21102
      0.03563 [    32]: 22011
      0.03472 [    12]: 11202
      0.03377 [     5]: 02211
      0.03141 [    30]: 21201
      0.02534 [    26]: 21021
      0.02502 [    29]: 21120
      0.01620 [    31]: 21210
      0.01343 [     9]: 11022
      0.00511 [    28]: 21111
      0.00305 [     0]: 01122
ROOT  35:  E=   -3149.5578023978 Eh  4.563 eV  36799.8 cm**-1
      0.18684 [     7]: 10212
      0.14644 [    24]: 20211
      0.08805 [     6]: 10122
      0.06601 [    21]: 12210
      0.05522 [    23]: 20121
      0.05353 [     5]: 02211
      0.05011 [    28]: 21111
      0.04504 [    17]: 12102
      0.04468 [    22]: 20112
      0.03271 [    11]: 11121
      0.03033 [    33]: 22101
      0.03004 [    10]: 11112
      0.02222 [    15]: 12012
      0.02208 [    30]: 21201
      0.01999 [     2]: 01221
      0.01650 [    32]: 22011
      0.01546 [    14]: 11220
      0.01495 [    12]: 11202
      0.01143 [     3]: 02112
      0.01105 [    34]: 22110
      0.00782 [    26]: 21021
      0.00768 [    18]: 12111
      0.00653 [    19]: 12120
      0.00443 [     9]: 11022
      0.00334 [     4]: 02121
      0.00332 [     8]: 10221
ROOT  36:  E=   -3149.5577753297 Eh  4.563 eV  36805.8 cm**-1
      0.25941 [    23]: 20121
      0.17064 [     6]: 10122
      0.07142 [     4]: 02121
      0.04882 [    10]: 11112
      0.04386 [    19]: 12120
      0.04370 [    33]: 22101
      0.04097 [     9]: 11022
      0.03404 [     5]: 02211
      0.03327 [    17]: 12102
      0.03322 [    28]: 21111
      0.03109 [    14]: 11220
      0.02752 [    12]: 11202
      0.02493 [    26]: 21021
      0.02192 [    21]: 12210
      0.02041 [    25]: 21012
      0.01850 [    30]: 21201
      0.01790 [     2]: 01221
      0.00929 [     8]: 10221
      0.00856 [    16]: 12021
      0.00854 [    31]: 21210
      0.00776 [     1]: 01212
      0.00535 [    18]: 12111
      0.00368 [     3]: 02112
      0.00271 [    20]: 12201
      0.00251 [     0]: 01122
ROOT  37:  E=   -3149.5561618470 Eh  4.607 eV  37159.9 cm**-1
      0.24364 [     1]: 01212
      0.18126 [    31]: 21210
      0.13737 [    25]: 21012
      0.06565 [    20]: 12201
      0.06026 [    13]: 11211
      0.05288 [    18]: 12111
      0.02907 [    12]: 11202
      0.02479 [     8]: 10221
      0.02211 [    30]: 21201
      0.01836 [     3]: 02112
      0.01765 [    26]: 21021
      0.01732 [     9]: 11022
      0.01405 [    34]: 22110
      0.01240 [    32]: 22011
      0.01053 [    15]: 12012
      0.01043 [    16]: 12021
      0.00905 [    10]: 11112
      0.00883 [     2]: 01221
      0.00840 [     0]: 01122
      0.00776 [    28]: 21111
      0.00702 [     4]: 02121
      0.00654 [    27]: 21102
      0.00605 [     5]: 02211
      0.00577 [    11]: 11121
      0.00569 [    17]: 12102
      0.00356 [    33]: 22101
      0.00336 [    29]: 21120
      0.00307 [    19]: 12120
      0.00275 [    14]: 11220
ROOT  38:  E=   -3149.5546057522 Eh  4.650 eV  37501.4 cm**-1
      0.19231 [     5]: 02211
      0.12907 [    21]: 12210
      0.09876 [    32]: 22011
      0.08362 [    12]: 11202
      0.06418 [    15]: 12012
      0.06157 [    30]: 21201
      0.05366 [    24]: 20211
      0.04312 [    23]: 20121
      0.03508 [     7]: 10212
      0.03222 [    33]: 22101
      0.02897 [    10]: 11112
      0.02612 [     6]: 10122
      0.01975 [    28]: 21111
      0.01715 [    17]: 12102
      0.01571 [    16]: 12021
      0.01444 [    14]: 11220
      0.01349 [    20]: 12201
      0.01233 [    18]: 12111
      0.00923 [     8]: 10221
      0.00839 [     2]: 01221
      0.00778 [     3]: 02112
      0.00532 [     9]: 11022
      0.00474 [    25]: 21012
      0.00470 [     0]: 01122
      0.00381 [    26]: 21021
      0.00362 [    29]: 21120
      0.00287 [    11]: 11121
      0.00275 [    31]: 21210
ROOT  39:  E=   -3149.5543748293 Eh  4.656 eV  37552.1 cm**-1
      0.23275 [     3]: 02112
      0.23031 [    34]: 22110
      0.18000 [    22]: 20112
      0.06111 [    13]: 11211
      0.04213 [    26]: 21021
      0.03278 [     0]: 01122
      0.02390 [     9]: 11022
      0.02211 [    29]: 21120
      0.01776 [    11]: 11121
      0.01556 [    33]: 22101
      0.01550 [     4]: 02121
      0.01480 [    23]: 20121
      0.01398 [    19]: 12120
      0.01396 [     6]: 10122
      0.01349 [    17]: 12102
      0.01247 [     1]: 01212
      0.01044 [    31]: 21210
      0.00735 [    30]: 21201
      0.00726 [    28]: 21111
      0.00699 [    21]: 12210
      0.00639 [    10]: 11112
      0.00497 [    32]: 22011
      0.00422 [    14]: 11220
      0.00339 [    12]: 11202
ROOT  40:  E=   -3149.5537100268 Eh  4.674 eV  37698.0 cm**-1
      0.20218 [    29]: 21120
      0.14674 [     0]: 01122
      0.13280 [    20]: 12201
      0.12789 [    16]: 12021
      0.05782 [    18]: 12111
      0.05086 [     8]: 10221
      0.04961 [    11]: 11121
      0.03275 [    15]: 12012
      0.03230 [    27]: 21102
      0.03142 [    25]: 21012
      0.02367 [     9]: 11022
      0.01981 [    32]: 22011
      0.01963 [     5]: 02211
      0.01401 [    34]: 22110
      0.00936 [    12]: 11202
      0.00818 [    21]: 12210
      0.00746 [     3]: 02112
      0.00626 [    24]: 20211
      0.00602 [     7]: 10212
      0.00447 [    26]: 21021
      0.00369 [    30]: 21201
      0.00317 [    13]: 11211
      0.00252 [    17]: 12102
ROOT  41:  E=   -3149.5535963693 Eh  4.677 eV  37722.9 cm**-1
      0.18177 [    26]: 21021
      0.11941 [     9]: 11022
      0.09897 [    19]: 12120
      0.08628 [    17]: 12102
      0.06796 [     4]: 02121
      0.06294 [    21]: 12210
      0.05838 [    33]: 22101
      0.05200 [     6]: 10122
      0.04212 [     5]: 02211
      0.03619 [    23]: 20121
      0.03243 [    30]: 21201
      0.03142 [     2]: 01221
      0.03031 [    28]: 21111
      0.02364 [    12]: 11202
      0.02183 [    14]: 11220
      0.02163 [    10]: 11112
      0.00858 [    13]: 11211
      0.00434 [    31]: 21210
      0.00318 [    11]: 11121
      0.00280 [    18]: 12111
ROOT  42:  E=   -3149.5498155074 Eh  4.780 eV  38552.7 cm**-1
      0.13963 [    12]: 11202
      0.10742 [    30]: 21201
      0.06531 [    29]: 21120
      0.05710 [    10]: 11112
      0.05599 [    18]: 12111
      0.05473 [     5]: 02211
      0.04922 [    27]: 21102
      0.04761 [     0]: 01122
      0.04391 [    21]: 12210
      0.04089 [    20]: 12201
      0.03890 [    28]: 21111
      0.03518 [    31]: 21210
      0.03268 [    11]: 11121
      0.03056 [    26]: 21021
      0.02857 [     9]: 11022
      0.02385 [     1]: 01212
      0.02190 [    32]: 22011
      0.02163 [     3]: 02112
      0.01653 [    25]: 21012
      0.01417 [    15]: 12012
      0.01047 [    14]: 11220
      0.00952 [    23]: 20121
      0.00855 [    34]: 22110
      0.00830 [    33]: 22101
      0.00731 [    19]: 12120
      0.00726 [     2]: 01221
      0.00705 [     4]: 02121
      0.00574 [     6]: 10122
      0.00468 [    13]: 11211
ROOT  43:  E=   -3149.5493579790 Eh  4.792 eV  38653.2 cm**-1
      0.29083 [    20]: 12201
      0.07701 [    16]: 12021
      0.07284 [    29]: 21120
      0.05351 [     0]: 01122
      0.05252 [    10]: 11112
      0.04899 [    18]: 12111
      0.04621 [    27]: 21102
      0.04536 [    13]: 11211
      0.04004 [    28]: 21111
      0.03418 [    12]: 11202
      0.02835 [    17]: 12102
      0.02767 [     1]: 01212
      0.02288 [    34]: 22110
      0.02071 [     9]: 11022
      0.02028 [    31]: 21210
      0.01739 [     3]: 02112
      0.01679 [    30]: 21201
      0.01359 [    25]: 21012
      0.01241 [     8]: 10221
      0.01171 [    33]: 22101
      0.01129 [    11]: 11121
      0.00668 [    14]: 11220
      0.00566 [    26]: 21021
      0.00517 [     6]: 10122
      0.00505 [    23]: 20121
      0.00308 [    19]: 12120
      0.00270 [    32]: 22011
      0.00260 [     5]: 02211
ROOT  44:  E=   -3149.5487318550 Eh  4.809 eV  38790.6 cm**-1
      0.22649 [    26]: 21021
      0.16286 [     9]: 11022
      0.08263 [    21]: 12210
      0.06636 [    19]: 12120
      0.05004 [    34]: 22110
      0.04823 [    15]: 12012
      0.04815 [     3]: 02112
      0.04788 [     5]: 02211
      0.04158 [     4]: 02121
      0.02914 [    28]: 21111
      0.02898 [    17]: 12102
      0.02805 [    29]: 21120
      0.02349 [    32]: 22011
      0.02207 [    10]: 11112
      0.01607 [    33]: 22101
      0.01428 [     7]: 10212
      0.00918 [     2]: 01221
      0.00844 [    24]: 20211
      0.00822 [    30]: 21201
      0.00775 [     0]: 01122
      0.00562 [    12]: 11202
      0.00537 [    14]: 11220
      0.00474 [    11]: 11121
      0.00474 [    22]: 20112
      0.00402 [    18]: 12111

                 <<<<<<<<<<<<<<<<<<INITIAL CI STATE CHECK>>>>>>>>>>>>>>>>>>

   E(CAS)= -3149.740531200 Eh DE=    0.000000e+00
   --- Energy gap subspaces: Ext-Act = 0.220   Act-Int = -0.051
   N(occ)=  1.20000 1.20000 1.20000 1.20000 1.20000
   ||g|| =     7.023208e-04 Max(G)=    1.457704e-04 Rot=144,141
                     ---- THE CAS-SCF GRADIENT HAS CONVERGED ----
                            --- FINALIZING ORBITALS ---
                    ---- DOING ONE FINAL ITERATION FOR PRINTING ----
   --- Forming Natural Orbitals
   --- Canonicalize Internal Space
   --- Canonicalize External Space

MACRO-ITERATION   2: 
   --- Inactive Energy E0 = -3133.90952875 Eh
   --- All densities will be recomputed
CI-ITERATION   0: 
 -3149.818662142   0.000000000000 (    0.00)
 -3149.815422603   0.000000000000
 -3149.814973318   0.000000000000
 -3149.811893219   0.000000000000
 -3149.808363621   0.000000000000
   CI-PROBLEM SOLVED
   DENSITIES MADE
CI-ITERATION   0: 
 -3149.725474708   0.000000000000 (    0.00)
 -3149.725195100   0.000000000000
 -3149.723169728   0.000000000000
 -3149.723013113   0.000000000000
 -3149.721032948   0.000000000000
 -3149.720482648   0.000000000000
 -3149.719767004   0.000000000000
 -3149.718187167   0.000000000000
 -3149.717184860   0.000000000000
 -3149.714904765   0.000000000000
 -3149.714834598   0.000000000000
 -3149.710343172   0.000000000000
 -3149.709365974   0.000000000000
 -3149.708339798   0.000000000000
 -3149.706972584   0.000000000000
 -3149.705752891   0.000000000000
 -3149.702215065   0.000000000000
 -3149.702090674   0.000000000000
 -3149.701473459   0.000000000000
 -3149.700783319   0.000000000000
 -3149.697205447   0.000000000000
 -3149.696943827   0.000000000000
 -3149.696503820   0.000000000000
 -3149.696334871   0.000000000000
 -3149.694718616   0.000000000000
 -3149.690996061   0.000000000000
 -3149.690377292   0.000000000000
 -3149.689948822   0.000000000000
 -3149.688190030   0.000000000000
 -3149.688121893   0.000000000000
 -3149.661411681   0.000000000000
 -3149.657913337   0.000000000000
 -3149.657745392   0.000000000000
 -3149.656276484   0.000000000000
 -3149.654770982   0.000000000000
 -3149.557802398   0.000000000000
 -3149.557775331   0.000000000000
 -3149.556161848   0.000000000000
 -3149.554605754   0.000000000000
 -3149.554374832   0.000000000000
 -3149.553710029   0.000000000000
 -3149.553596372   0.000000000000
 -3149.549815509   0.000000000000
 -3149.549357981   0.000000000000
 -3149.548731858   0.000000000000
   CI-PROBLEM SOLVED
   DENSITIES MADE
   E(CAS)= -3149.740531202 Eh DE=   -1.862645e-09
   --- Energy gap subspaces: Ext-Act = 0.220   Act-Int = -0.052
   N(occ)=  1.20000 1.20000 1.20000 1.20000 1.20000
   ||g|| =     7.023207e-04 Max(G)=   -1.455380e-04 Rot=147,141
--------------
CASSCF RESULTS
--------------

Final CASSCF energy       : -3149.740531202 Eh  -85708.7972 eV

----------------
ORBITAL ENERGIES
----------------

  NO   OCC          E(Eh)            E(eV) 
   0   2.0000    -261.402636     -7113.1273 
   1   2.0000     -31.963486      -869.7707 
   2   2.0000     -27.443688      -746.7807 
   3   2.0000     -27.443468      -746.7747 
   4   2.0000     -27.443467      -746.7747 
   5   2.0000      -4.725516      -128.5878 
   6   2.0000      -4.723560      -128.5346 
   7   2.0000      -4.720853      -128.4609 
   8   2.0000      -4.720772      -128.4587 
   9   2.0000      -4.717624      -128.3731 
  10   2.0000      -4.717620      -128.3730 
  11   2.0000      -4.713029      -128.2480 
  12   2.0000      -4.712982      -128.2468 
  13   2.0000      -4.712399      -128.2309 
  14   2.0000      -4.712181      -128.2250 
  15   2.0000      -4.709960      -128.1645 
  16   2.0000      -4.709937      -128.1639 
  17   2.0000      -4.706183      -128.0618 
  18   2.0000      -4.704417      -128.0137 
  19   2.0000      -4.197252      -114.2130 
  20   2.0000      -2.777115       -75.5691 
  21   2.0000      -2.776543       -75.5536 
  22   2.0000      -2.775835       -75.5343 
  23   2.0000      -2.764689       -75.2310 
  24   2.0000      -2.763335       -75.1942 
  25   2.0000      -2.762182       -75.1628 
  26   2.0000      -2.761793       -75.1522 
  27   2.0000      -2.760114       -75.1065 
  28   2.0000      -2.759576       -75.0919 
  29   2.0000      -2.759023       -75.0768 
  30   2.0000      -2.758268       -75.0563 
  31   2.0000      -2.757404       -75.0328 
  32   2.0000      -2.757009       -75.0220 
  33   2.0000      -2.756382       -75.0050 
  34   2.0000      -2.756280       -75.0022 
  35   2.0000      -2.754806       -74.9621 
  36   2.0000      -2.754148       -74.9442 
  37   2.0000      -2.753816       -74.9351 
  38   2.0000      -2.753106       -74.9158 
  39   2.0000      -2.750810       -74.8533 
  40   2.0000      -2.750540       -74.8460 
  41   2.0000      -2.749955       -74.8301 
  42   2.0000      -2.749653       -74.8219 
  43   2.0000      -2.749635       -74.8214 
  44   2.0000      -2.748967       -74.8032 
  45   2.0000      -2.748598       -74.7931 
  46   2.0000      -2.748403       -74.7879 
  47   2.0000      -2.748145       -74.7808 
  48   2.0000      -2.747518       -74.7638 
  49   2.0000      -2.746616       -74.7392 
  50   2.0000      -2.746411       -74.7337 
  51   2.0000      -2.746141       -74.7263 
  52   2.0000      -2.746130       -74.7260 
  53   2.0000      -2.745923       -74.7204 
  54   2.0000      -2.744716       -74.6875 
  55   2.0000      -2.744384       -74.6785 
  56   2.0000      -2.743973       -74.6673 
  57   2.0000      -2.743404       -74.6518 
  58   2.0000      -2.743264       -74.6480 
  59   2.0000      -2.742724       -74.6333 
  60   2.0000      -2.739962       -74.5582 
  61   2.0000      -2.739777       -74.5531 
  62   2.0000      -2.739503       -74.5457 
  63   2.0000      -2.739474       -74.5449 
  64   2.0000      -2.738006       -74.5049 
  65   2.0000      -0.591397       -16.0927 
  66   2.0000      -0.561020       -15.2661 
  67   2.0000      -0.560020       -15.2389 
  68   2.0000      -0.555277       -15.1099 
  69   2.0000      -0.554410       -15.0863 
  70   2.0000      -0.551022       -14.9941 
  71   2.0000      -0.548496       -14.9253 
  72   2.0000      -0.547847       -14.9077 
  73   2.0000      -0.547127       -14.8881 
  74   2.0000      -0.543675       -14.7941 
  75   2.0000      -0.542433       -14.7604 
  76   2.0000      -0.541698       -14.7404 
  77   2.0000      -0.541479       -14.7344 
  78   2.0000      -0.541103       -14.7241 
  79   2.0000      -0.536273       -14.5927 
  80   2.0000      -0.534761       -14.5516 
  81   2.0000      -0.533166       -14.5082 
  82   2.0000      -0.531350       -14.4588 
  83   2.0000      -0.531016       -14.4497 
  84   2.0000      -0.528328       -14.3765 
  85   2.0000      -0.524812       -14.2809 
  86   2.0000      -0.522012       -14.2047 
  87   2.0000      -0.517403       -14.0792 
  88   2.0000      -0.516924       -14.0662 
  89   2.0000      -0.515337       -14.0230 
  90   2.0000      -0.511163       -13.9095 
  91   2.0000      -0.506793       -13.7905 
  92   2.0000      -0.505392       -13.7524 
[...]
 3 117   30047.0    332.8   0.000000001   0.00000   0.00008   0.00061   0.00025
 3 118   31361.8    318.9   0.000000000   0.00000   0.00013   0.00022   0.00010
 3 119   31364.9    318.8   0.000000000   0.00000   0.00000   0.00003   0.00007
 3 120   31382.1    318.7   0.000000000   0.00000   0.00000   0.00001   0.00002
 3 121   31462.9    317.8   0.000000000   0.00000   0.00003   0.00004   0.00002
 3 122   31476.5    317.7   0.000000000   0.00000   0.00003   0.00020   0.00008
 3 123   31480.1    317.7   0.000000000   0.00000   0.00002   0.00008   0.00020
 3 124   31968.7    312.8   0.000000001   0.00000   0.00041   0.00026   0.00014
 3 125   31969.6    312.8   0.000000000   0.00000   0.00001   0.00004   0.00011
 3 126   31976.7    312.7   0.000000000   0.00000   0.00006   0.00006   0.00003
 3 127   32516.9    307.5   0.000000000   0.00000   0.00000   0.00000   0.00000
 3 128   32520.8    307.5   0.000000003   0.00000   0.00079   0.00048   0.00026
 3 129   32523.6    307.5   0.000000000   0.00000   0.00002   0.00012   0.00027
 3 130   47583.5    210.2   0.000000000   0.00000   0.00000   0.00001   0.00003
 3 131   47651.9    209.9   0.000000000   0.00000   0.00000   0.00007   0.00003
 3 132   47718.4    209.6   0.000000001   0.00000   0.00028   0.00019   0.00010
 3 133   47763.4    209.4   0.000000000   0.00000   0.00001   0.00006   0.00014
 3 134   47854.7    209.0   0.000000000   0.00000   0.00000   0.00001   0.00001
 3 135   47867.1    208.9   0.000000000   0.00000   0.00003   0.00008   0.00003
 3 136   48351.1    206.8   0.000000002   0.00000   0.00061   0.00008   0.00002
 3 137   48351.6    206.8   0.000000000   0.00000   0.00001   0.00001   0.00002
 3 138   48354.7    206.8   0.000000000   0.00000   0.00000   0.00001   0.00001
 3 139   49197.9    203.3   0.000000000   0.00000   0.00000   0.00003   0.00008
 3 140   49201.5    203.2   0.000000000   0.00000   0.00020   0.00007   0.00004
 3 141   49207.3    203.2   0.000000000   0.00000   0.00000   0.00002   0.00004
 3 142   49349.2    202.6   0.000000000   0.00000   0.00001   0.00006   0.00002
 3 143   49354.9    202.6   0.000000000   0.00000   0.00001   0.00003   0.00008
 3 144   49356.4    202.6   0.000000000   0.00000   0.00015   0.00012   0.00004
 3 145   49735.0    201.1   0.000000000   0.00000   0.00002   0.00011   0.00025
 3 146   49770.3    200.9   0.000000000   0.00000   0.00003   0.00019   0.00008
 3 147   49772.7    200.9   0.000000000   0.00000   0.00000   0.00002   0.00005
 3 148   49810.1    200.8   0.000000000   0.00000   0.00000   0.00000   0.00000
 3 149   49843.8    200.6   0.000000000   0.00000   0.00025   0.00012   0.00003
 3 150   49848.1    200.6   0.000000001   0.00000   0.00048   0.00013   0.00002
 3 151   49873.4    200.5   0.000000000   0.00000   0.00001   0.00006   0.00014
 3 152   49911.4    200.4   0.000000000   0.00000   0.00001   0.00003   0.00008
 3 153   50085.4    199.7   0.000000000   0.00000   0.00022   0.00001   0.00001
 3 154   50105.3    199.6   0.000000001   0.00000   0.00040   0.00013   0.00008
 3 155   50506.3    198.0   0.000000000   0.00000   0.00001   0.00002   0.00005
 3 156   50512.7    198.0   0.000000000   0.00000   0.00001   0.00007   0.00017
 3 157   50874.2    196.6   0.000000000   0.00000   0.00020   0.00007   0.00005
 3 158   50895.7    196.5   0.000000012   0.00000   0.00160   0.00027   0.00024
 3 159   50931.0    196.3   0.000000000   0.00000   0.00001   0.00004   0.00010
 4  5    1131.1   8841.0   0.000000008   0.00008   0.00088   0.00828   0.00361
 4  6    1131.3   8839.4   0.000000009   0.00009   0.00065   0.00380   0.00876
 4  7    1270.6   7870.1   0.000000003   0.00002   0.00064   0.00452   0.00185
 4  8    1278.3   7822.7   0.000000000   0.00000   0.00006   0.00046   0.00098
 4  9    1387.5   7207.0   0.000000002   0.00002   0.00056   0.00390   0.00164
 4 10    1518.4   6585.7   0.000000002   0.00002   0.00029   0.00166   0.00393
 4 11    1615.3   6190.7   0.000000001   0.00001   0.00055   0.00207   0.00082
 4 12    1677.4   5961.6   0.000000000   0.00000   0.00004   0.00035   0.00083
 4 13    1828.6   5468.6   0.000000004   0.00003   0.00035   0.00196   0.00479
 4 14    1832.5   5456.9   0.000000006   0.00004   0.00135   0.00563   0.00233
 4 15    2827.3   3536.9   0.000000033   0.00013   0.00528   0.00931   0.00437
 4 16    2830.3   3533.1   0.000000006   0.00002   0.00033   0.00183   0.00436
 4 17    2884.1   3467.3   0.000000001   0.00000   0.00012   0.00063   0.00149
 4 18    2913.2   3432.6   0.000000006   0.00003   0.00309   0.00357   0.00175
 4 19    2923.4   3420.6   0.000000009   0.00003   0.00403   0.00369   0.00191
 4 20    4005.1   2496.8   0.000000019   0.00005   0.00047   0.00290   0.00666
 4 21    4005.3   2496.7   0.000000004   0.00001   0.00025   0.00134   0.00311
 4 22    4017.3   2489.2   0.000000001   0.00000   0.00086   0.00085   0.00026
 4 23    4019.8   2487.7   0.000000000   0.00000   0.00021   0.00052   0.00018
 4 24    4022.6   2485.9   0.000000011   0.00003   0.00037   0.00222   0.00513
 4 25   17970.7    556.5   0.000000001   0.00000   0.00058   0.00054   0.00027
 4 26   17971.3    556.4   0.000000000   0.00000   0.00000   0.00002   0.00007
 4 27   18055.2    553.9   0.000000000   0.00000   0.00013   0.00017   0.00006
 4 28   18187.1    549.8   0.000000000   0.00000   0.00002   0.00009   0.00020
 4 29   18290.1    546.7   0.000000000   0.00000   0.00012   0.00017   0.00008
 4 30   18306.2    546.3   0.000000001   0.00000   0.00005   0.00026   0.00061
 4 31   19292.8    518.3   0.000000001   0.00000   0.00004   0.00023   0.00056
 4 32   19297.4    518.2   0.000000000   0.00000   0.00020   0.00042   0.00015
 4 33   19382.5    515.9   0.000000000   0.00000   0.00002   0.00024   0.00011
 4 34   19459.5    513.9   0.000000000   0.00000   0.00003   0.00018   0.00043
 4 35   19536.1    511.9   0.000000000   0.00000   0.00001   0.00006   0.00014
 4 36   19551.2    511.5   0.000000000   0.00000   0.00029   0.00020   0.00010
 4 37   19936.4    501.6   0.000000003   0.00000   0.00135   0.00009   0.00007
 4 38   19962.5    500.9   0.000000000   0.00000   0.00000   0.00003   0.00006
 4 39   19978.4    500.5   0.000000000   0.00000   0.00000   0.00001   0.00001
 4 40   20025.6    499.4   0.000000000   0.00000   0.00019   0.00013   0.00004
 4 41   20048.0    498.8   0.000000001   0.00000   0.00064   0.00013   0.00001
 4 42   20175.7    495.6   0.000000000   0.00000   0.00001   0.00007   0.00016
 4 43   20340.1    491.6   0.000000000   0.00000   0.00012   0.00004   0.00001
 4 44   20389.4    490.5   0.000000000   0.00000   0.00015   0.00008   0.00005
 4 45   20456.3    488.8   0.000000000   0.00000   0.00001   0.00005   0.00013
 4 46   20533.8    487.0   0.000000000   0.00000   0.00002   0.00012   0.00029
 4 47   20553.4    486.5   0.000000000   0.00000   0.00038   0.00026   0.00013
 4 48   20625.9    484.8   0.000000000   0.00000   0.00001   0.00014   0.00006
 4 49   20713.5    482.8   0.000000000   0.00000   0.00002   0.00011   0.00025
 4 50   20756.1    481.8   0.000000000   0.00000   0.00007   0.00041   0.00016
 4 51   20768.7    481.5   0.000000000   0.00000   0.00003   0.00013   0.00032
 4 52   21415.5    467.0   0.000000000   0.00000   0.00001   0.00009   0.00021
 4 53   21428.4    466.7   0.000000001   0.00000   0.00055   0.00003   0.00005
 4 54   21504.4    465.0   0.000000000   0.00000   0.00001   0.00002   0.00004
 4 55   21517.9    464.7   0.000000001   0.00000   0.00008   0.00048   0.00019
 4 56   21624.3    462.4   0.000000000   0.00000   0.00032   0.00008   0.00001
 4 57   21771.7    459.3   0.000000000   0.00000   0.00001   0.00005   0.00012
 4 58   21878.4    457.1   0.000000000   0.00000   0.00004   0.00038   0.00016
 4 59   21906.1    456.5   0.000000000   0.00000   0.00003   0.00015   0.00035
 4 60   21935.0    455.9   0.000000000   0.00000   0.00003   0.00013   0.00032
 4 61   21994.6    454.7   0.000000000   0.00000   0.00007   0.00008   0.00003
 4 62   22105.7    452.4   0.000000000   0.00000   0.00003   0.00017   0.00041
 4 63   22160.7    451.2   0.000000000   0.00000   0.00013   0.00021   0.00010
 4 64   22417.2    446.1   0.000000000   0.00000   0.00003   0.00006   0.00002
 4 65   22444.3    445.5   0.000000000   0.00000   0.00000   0.00001   0.00002
 4 66   22494.9    444.5   0.000000000   0.00000   0.00001   0.00013   0.00030
 4 67   22496.1    444.5   0.000000000   0.00000   0.00026   0.00011   0.00004
 4 68   22501.5    444.4   0.000000000   0.00000   0.00011   0.00010   0.00003
 4 69   22582.8    442.8   0.000000000   0.00000   0.00001   0.00006   0.00014
 4 70   22642.1    441.7   0.000000000   0.00000   0.00001   0.00001   0.00001
 4 71   22797.3    438.6   0.000000000   0.00000   0.00002   0.00009   0.00022
 4 72   22811.2    438.4   0.000000000   0.00000   0.00006   0.00000   0.00000
 4 73   23628.8    423.2   0.000000000   0.00000   0.00000   0.00003   0.00007
 4 74   23658.4    422.7   0.000000000   0.00000   0.00026   0.00026   0.00009
 4 75   23719.1    421.6   0.000000000   0.00000   0.00011   0.00032   0.00015
 4 76   23740.1    421.2   0.000000000   0.00000   0.00000   0.00002   0.00002
 4 77   23790.3    420.3   0.000000000   0.00000   0.00000   0.00004   0.00009
 4 78   23831.5    419.6   0.000000001   0.00000   0.00065   0.00012   0.00011
 4 79   24004.3    416.6   0.000000000   0.00000   0.00003   0.00013   0.00030
 4 80   24018.2    416.4   0.000000000   0.00000   0.00001   0.00005   0.00011
 4 81   24077.7    415.3   0.000000000   0.00000   0.00020   0.00005   0.00000
 4 82   24116.4    414.7   0.000000000   0.00000   0.00006   0.00022   0.00009
 4 83   24142.7    414.2   0.000000000   0.00000   0.00000   0.00002   0.00008
 4 84   24284.8    411.8   0.000000000   0.00000   0.00036   0.00003   0.00004
 4 85   24372.9    410.3   0.000000001   0.00000   0.00004   0.00024   0.00058
 4 86   24444.3    409.1   0.000000000   0.00000   0.00001   0.00002   0.00007
 4 87   24486.1    408.4   0.000000000   0.00000   0.00000   0.00042   0.00018
 4 88   24510.1    408.0   0.000000000   0.00000   0.00000   0.00003   0.00003
 4 89   24568.2    407.0   0.000000001   0.00000   0.00016   0.00044   0.00017
 4 90   24797.0    403.3   0.000000000   0.00000   0.00003   0.00011   0.00027
 4 91   24844.9    402.5   0.000000000   0.00000   0.00001   0.00002   0.00001
 4 92   24933.5    401.1   0.000000000   0.00000   0.00001   0.00008   0.00019
 4 93   25053.4    399.1   0.000000000   0.00000   0.00021   0.00002   0.00003
 4 94   25171.8    397.3   0.000000000   0.00000   0.00001   0.00005   0.00013
 4 95   25237.8    396.2   0.000000001   0.00000   0.00050   0.00004   0.00006
 4 96   25345.6    394.5   0.000000000   0.00000   0.00001   0.00002   0.00004
 4 97   25516.0    391.9   0.000000000   0.00000   0.00009   0.00005   0.00002
 4 98   25724.8    388.7   0.000000000   0.00000   0.00005   0.00007   0.00003
 4 99   25821.7    387.3   0.000000000   0.00000   0.00001   0.00004   0.00010
 4 100   26502.2    377.3   0.000000000   0.00000   0.00013   0.00003   0.00002
 4 101   26503.3    377.3   0.000000000   0.00000   0.00002   0.00000   0.00001
 4 102   26593.2    376.0   0.000000000   0.00000   0.00033   0.00001   0.00002
 4 103   26752.2    373.8   0.000000000   0.00000   0.00002   0.00006   0.00016
 4 104   26775.4    373.5   0.000000000   0.00000   0.00037   0.00017   0.00004
 4 105   26874.9    372.1   0.000000000   0.00000   0.00000   0.00003   0.00007
 4 106   26979.8    370.6   0.000000000   0.00000   0.00001   0.00006   0.00015
 4 107   27091.0    369.1   0.000000000   0.00000   0.00014   0.00014   0.00005
 4 108   27112.9    368.8   0.000000000   0.00000   0.00008   0.00012   0.00004
 4 109   27413.8    364.8   0.000000000   0.00000   0.00000   0.00001   0.00003
 4 110   27416.0    364.8   0.000000001   0.00000   0.00047   0.00003   0.00003
 4 111   27703.1    361.0   0.000000000   0.00000   0.00000   0.00001   0.00001
 4 112   27753.8    360.3   0.000000000   0.00000   0.00001   0.00000   0.00000
 4 113   27968.5    357.5   0.000000000   0.00000   0.00001   0.00007   0.00016
 4 114   27977.2    357.4   0.000000000   0.00000   0.00006   0.00007   0.00003
 4 115   30038.6    332.9   0.000000000   0.00000   0.00001   0.00006   0.00015
 4 116   30040.0    332.9   0.000000001   0.00000   0.00006   0.00043   0.00017
 4 117   30043.1    332.9   0.000000000   0.00000   0.00002   0.00011   0.00026
 4 118   31357.8    318.9   0.000000000   0.00000   0.00000   0.00003   0.00008
 4 119   31361.0    318.9   0.000000000   0.00000   0.00018   0.00022   0.00011
 4 120   31378.2    318.7   0.000000000   0.00000   0.00040   0.00010   0.00008
 4 121   31458.9    317.9   0.000000000   0.00000   0.00003   0.00012   0.00027
 4 122   31472.6    317.7   0.000000000   0.00000   0.00002   0.00007   0.00017
 4 123   31476.2    317.7   0.000000000   0.00000   0.00003   0.00014   0.00005
 4 124   31964.8    312.8   0.000000000   0.00000   0.00001   0.00006   0.00014
 4 125   31965.6    312.8   0.000000000   0.00000   0.00032   0.00018   0.00010
 4 126   31972.7    312.8   0.000000000   0.00000   0.00000   0.00001   0.00002
 4 127   32512.9    307.6   0.000000000   0.00000   0.00003   0.00017   0.00007
 4 128   32516.9    307.5   0.000000000   0.00000   0.00002   0.00008   0.00020
 4 129   32519.7    307.5   0.000000003   0.00000   0.00090   0.00054   0.00030
 4 130   47579.6    210.2   0.000000000   0.00000   0.00005   0.00010   0.00004
 4 131   47648.0    209.9   0.000000000   0.00000   0.00001   0.00003   0.00008
 4 132   47714.5    209.6   0.000000000   0.00000   0.00000   0.00002   0.00005
 4 133   47759.5    209.4   0.000000000   0.00000   0.00002   0.00009   0.00003
 4 134   47850.8    209.0   0.000000001   0.00000   0.00035   0.00010   0.00007
 4 135   47863.1    208.9   0.000000000   0.00000   0.00000   0.00002   0.00005
 4 136   48347.2    206.8   0.000000000   0.00000   0.00000   0.00000   0.00000
 4 137   48347.6    206.8   0.000000001   0.00000   0.00038   0.00019   0.00005
 4 138   48350.8    206.8   0.000000001   0.00000   0.00035   0.00002   0.00003
 4 139   49194.0    203.3   0.000000000   0.00000   0.00020   0.00008   0.00005
 4 140   49197.6    203.3   0.000000000   0.00000   0.00000   0.00003   0.00007
 4 141   49203.4    203.2   0.000000000   0.00000   0.00007   0.00005   0.00003
 4 142   49345.3    202.7   0.000000000   0.00000   0.00000   0.00002   0.00005
 4 143   49351.0    202.6   0.000000000   0.00000   0.00004   0.00013   0.00005
 4 144   49352.5    202.6   0.000000000   0.00000   0.00001   0.00005   0.00011
 4 145   49731.0    201.1   0.000000000   0.00000   0.00025   0.00003   0.00003
 4 146   49766.4    200.9   0.000000000   0.00000   0.00001   0.00006   0.00013
 4 147   49768.8    200.9   0.000000000   0.00000   0.00008   0.00021   0.00008
 4 148   49806.2    200.8   0.000000000   0.00000   0.00007   0.00022   0.00009
 4 149   49839.9    200.6   0.000000000   0.00000   0.00000   0.00000   0.00001
 4 150   49844.2    200.6   0.000000000   0.00000   0.00001   0.00002   0.00006
 4 151   49869.4    200.5   0.000000001   0.00000   0.00038   0.00004   0.00002
 4 152   49907.5    200.4   0.000000000   0.00000   0.00027   0.00009   0.00006
 4 153   50081.5    199.7   0.000000000   0.00000   0.00002   0.00009   0.00021
 4 154   50101.3    199.6   0.000000000   0.00000   0.00001   0.00004   0.00010
 4 155   50502.4    198.0   0.000000000   0.00000   0.00012   0.00006   0.00004
 4 156   50508.7    198.0   0.000000001   0.00000   0.00041   0.00011   0.00008
 4 157   50870.2    196.6   0.000000000   0.00000   0.00000   0.00001   0.00001
 4 158   50891.8    196.5   0.000000000   0.00000   0.00001   0.00005   0.00012
 4 159   50927.1    196.4   0.000000009   0.00000   0.00136   0.00027   0.00022

------------------------------------------------------------------------------
                           SOC CORRECTED DIPOLE MOMENTS
------------------------------------------------------------------------------
      TX        TY        TZ           |T|
   (Debye)   (Debye)   (Debye)      (Debye)
------------------------------------------------------------------------------
 -57.89346   4.28406   6.40467     58.40399

--------------
CASSCF TIMINGS
--------------

Total time                       ...    10636.7 sec
Sum of individual times          ...    10648.1 sec (100.1%)

Calculation of AO operators
   F(Core) operator              ...       62.1 sec (  0.6%)
   G(Act) operator               ...       56.9 sec (  0.5%)
   J(AO) operators               ...        0.0 sec (  0.0%)
Calculation of MO transformed quantities
   J(MO) operators               ...        5.4 sec (  0.1%)
   (pq|rs) integrals             ...        0.0 sec (  0.0%)
   AO->MO one electron integrals ...        0.2 sec (  0.0%)
Configuration interaction steps
   CI-setup phase                ...        0.0 sec (  0.0%)
   CI-solution phase             ...        0.1 sec (  0.0%)
   Generation of densities       ...        0.0 sec (  0.0%)
Orbital improvement steps
   Orbital gradient              ...        0.0 sec (  0.0%)
PT2 
   NEVPT2 time                   ...    10481.7 sec ( 98.5%)
Properties                       ...       21.9 sec (  0.2%)
   SOC integral calculation      ...       19.7 sec (  0.2%)
   SSC RMEs (incl. integrals)    ...        0.0 sec (  0.0%)
   SOC RMEs                      ...        0.1 sec (  0.0%)

Maximum memory used throughout the entire CASSCF-calculation: 1672.1 MB

-------------------------   --------------------
FINAL SINGLE POINT ENERGY     -3156.787497947048
-------------------------   --------------------


                            ***************************************
                            *     ORCA property calculations      *
                            ***************************************

                                    ---------------------
                                    Active property flags
                                    ---------------------
   (+) Dipole Moment


------------------------------------------------------------------------------
                       ORCA ELECTRIC PROPERTIES CALCULATION
------------------------------------------------------------------------------

Dipole Moment Calculation                       ... on
Quadrupole Moment Calculation                   ... off
Polarizability Calculation                      ... off
GBWName                                         ... nevpt2.gbw
Electron density                                ... nevpt2.scfp
The origin for moment calculation is the CENTER OF MASS  = (14.765995, 14.859102 14.318336)

-------------
DIPOLE MOMENT
-------------
                                X             Y             Z
Electronic contribution:     22.79885      -1.85047      -2.59119
Nuclear contribution   :    -22.77657       1.68546       2.51974
                        -----------------------------------------
Total Dipole Moment    :      0.02228      -0.16502      -0.07145
                        -----------------------------------------
Magnitude (a.u.)       :      0.18119
Magnitude (Debye)      :      0.46056



--------------------
Rotational spectrum 
--------------------
 
Rotational constants in cm-1:     0.001256     0.000989     0.000872 
Rotational constants in MHz :    37.657135    29.662957    26.154449 

 Dipole components along the rotational axes: 
x,y,z [a.u.] :    -0.084867    -0.000204    -0.160091 
x,y,z [Debye]:    -0.215716    -0.000518    -0.406918 

 

Timings for individual modules:

Sum of individual times         ...    10663.703 sec (= 177.728 min)
GTO integral calculation        ...       12.973 sec (=   0.216 min)   0.1 %
SCF iterations                  ...        9.967 sec (=   0.166 min)   0.1 %
CASSCF iterations               ...    10640.762 sec (= 177.346 min)  99.8 %
                             ****ORCA TERMINATED NORMALLY****
TOTAL RUN TIME: 0 days 2 hours 57 minutes 44 seconds 808 msec
