
                                 *****************
                                 * O   R   C   A *
                                 *****************

                                            #,                                       
                                            ###                                      
                                            ####                                     
                                            #####                                    
                                            ######                                   
                                           ########,                                 
                                     ,,################,,,,,                         
                               ,,#################################,,                 
                          ,,##########################################,,             
                       ,#########################################, ''#####,          
                    ,#############################################,,   '####,        
                  ,##################################################,,,,####,       
                ,###########''''           ''''###############################       
              ,#####''   ,,,,##########,,,,          '''####'''          '####       
            ,##' ,,,,###########################,,,                        '##       
           ' ,,###''''                  '''############,,,                           
         ,,##''                                '''############,,,,        ,,,,,,###''
      ,#''                                            '''#######################'''  
     '                                                          ''''####''''         
             ,#######,   #######,   ,#######,      ##                                
            ,#'     '#,  ##    ##  ,#'     '#,    #''#        ######   ,####,        
            ##       ##  ##   ,#'  ##            #'  '#       #        #'  '#        
            ##       ##  #######   ##           ,######,      #####,   #    #        
            '#,     ,#'  ##    ##  '#,     ,#' ,#      #,         ##   #,  ,#        
             '#######'   ##     ##  '#######'  #'      '#     #####' # '####'        



                  #######################################################
                  #                        -***-                        #
                  #          Department of theory and spectroscopy      #
                  #    Directorship and core code : Frank Neese         #
                  #        Max Planck Institute fuer Kohlenforschung    #
                  #                Kaiser Wilhelm Platz 1               #
                  #                 D-45470 Muelheim/Ruhr               #
                  #                      Germany                        #
                  #                                                     #
                  #                  All rights reserved                #
                  #                        -***-                        #
                  #######################################################


                         Program Version 5.0.3 -  RELEASE  -


 With contributions from (in alphabetic order):
   Daniel Aravena         : Magnetic Suceptibility
   Michael Atanasov       : Ab Initio Ligand Field Theory (pilot matlab implementation)
   Alexander A. Auer      : GIAO ZORA, VPT2 properties, NMR spectrum
   Ute Becker             : Parallelization
   Giovanni Bistoni       : ED, misc. LED, open-shell LED, HFLD
   Martin Brehm           : Molecular dynamics
   Dmytro Bykov           : SCF Hessian
   Vijay G. Chilkuri      : MRCI spin determinant printing, contributions to CSF-ICE
   Dipayan Datta          : RHF DLPNO-CCSD density
   Achintya Kumar Dutta   : EOM-CC, STEOM-CC
   Dmitry Ganyushin       : Spin-Orbit,Spin-Spin,Magnetic field MRCI
   Miquel Garcia          : C-PCM and meta-GGA Hessian, CC/C-PCM, Gaussian charge scheme
   Yang Guo               : DLPNO-NEVPT2, F12-NEVPT2, CIM, IAO-localization
   Andreas Hansen         : Spin unrestricted coupled pair/coupled cluster methods
   Benjamin Helmich-Paris : MC-RPA, TRAH-SCF, COSX integrals
   Lee Huntington         : MR-EOM, pCC
   Robert Izsak           : Overlap fitted RIJCOSX, COSX-SCS-MP3, EOM
   Marcus Kettner         : VPT2
   Christian Kollmar      : KDIIS, OOCD, Brueckner-CCSD(T), CCSD density, CASPT2, CASPT2-K
   Simone Kossmann        : Meta GGA functionals, TD-DFT gradient, OOMP2, MP2 Hessian
   Martin Krupicka        : Initial AUTO-CI
   Lucas Lang             : DCDCAS
   Marvin Lechner         : AUTO-CI (C++ implementation), FIC-MRCC
   Dagmar Lenk            : GEPOL surface, SMD
   Dimitrios Liakos       : Extrapolation schemes; Compound Job, initial MDCI parallelization
   Dimitrios Manganas     : Further ROCIS development; embedding schemes
   Dimitrios Pantazis     : SARC Basis sets
   Anastasios Papadopoulos: AUTO-CI, single reference methods and gradients
   Taras Petrenko         : DFT Hessian,TD-DFT gradient, ASA, ECA, R-Raman, ABS, FL, XAS/XES, NRVS
   Peter Pinski           : DLPNO-MP2, DLPNO-MP2 Gradient
   Christoph Reimann      : Effective Core Potentials
   Marius Retegan         : Local ZFS, SOC
   Christoph Riplinger    : Optimizer, TS searches, QM/MM, DLPNO-CCSD(T), (RO)-DLPNO pert. Triples
   Tobias Risthaus        : Range-separated hybrids, TD-DFT gradient, RPA, STAB
   Michael Roemelt        : Original ROCIS implementation
   Masaaki Saitow         : Open-shell DLPNO-CCSD energy and density
   Barbara Sandhoefer     : DKH picture change effects
   Avijit Sen             : IP-ROCIS
   Kantharuban Sivalingam : CASSCF convergence, NEVPT2, FIC-MRCI
   Bernardo de Souza      : ESD, SOC TD-DFT
   Georgi Stoychev        : AutoAux, RI-MP2 NMR, DLPNO-MP2 response
   Willem Van den Heuvel  : Paramagnetic NMR
   Boris Wezisla          : Elementary symmetry handling
   Frank Wennmohs         : Technical directorship


 We gratefully acknowledge several colleagues who have allowed us to
 interface, adapt or use parts of their codes:
   Stefan Grimme, W. Hujo, H. Kruse, P. Pracht,  : VdW corrections, initial TS optimization,
                  C. Bannwarth, S. Ehlert          DFT functionals, gCP, sTDA/sTD-DF
   Ed Valeev, F. Pavosevic, A. Kumar             : LibInt (2-el integral package), F12 methods
   Garnet Chan, S. Sharma, J. Yang, R. Olivares  : DMRG
   Ulf Ekstrom                                   : XCFun DFT Library
   Mihaly Kallay                                 : mrcc  (arbitrary order and MRCC methods)
   Jiri Pittner, Ondrej Demel                    : Mk-CCSD
   Frank Weinhold                                : gennbo (NPA and NBO analysis)
   Christopher J. Cramer and Donald G. Truhlar   : smd solvation model
   Lars Goerigk                                  : TD-DFT with DH, B97 family of functionals
   V. Asgeirsson, H. Jonsson                     : NEB implementation
   FAccTs GmbH                                   : IRC, NEB, NEB-TS, DLPNO-Multilevel, CI-OPT
                                                   MM, QMMM, 2- and 3-layer-ONIOM, Crystal-QMMM,
                                                   LR-CPCM, SF, NACMEs, symmetry and pop. for TD-DFT,
                                                   nearIR, NL-DFT gradient (VV10), updates on ESD,
                                                   ML-optimized integration grids
   S Lehtola, MJT Oliveira, MAL Marques          : LibXC Library
   Liviu Ungur et al                             : ANISO software


 Your calculation uses the libint2 library for the computation of 2-el integrals
 For citations please refer to: http://libint.valeyev.net

 Your ORCA version has been built with support for libXC version: 5.1.0
 For citations please refer to: https://tddft.org/programs/libxc/

 This ORCA versions uses:
   CBLAS   interface :  Fast vector & matrix operations
   LAPACKE interface :  Fast linear algebra routines
   SCALAPACK package :  Parallel linear algebra routines
   Shared memory     :  Shared parallel matrices
   BLAS/LAPACK       :  OpenBLAS 0.3.15  USE64BITINT DYNAMIC_ARCH NO_AFFINITY Sandybridge SINGLE_THREADED
        Core in use  :  Sandybridge
   Copyright (c) 2011-2014, The OpenBLAS Project




***************************************
The coordinates will be read from file: pbe.xyz
***************************************


================================================================================

cite the ECPs for Au [Def2-ECP] as follows:
Ce-Yb(ecp-28): M. Dolg, H. Stoll, H.Preuss, J. Chem. Phys., 1989, 90, 1730-1734.
Y-Cd(ecp-28), Hf-Hg(ecp-46): D. Andrae,U. Haeussermann, M. Dolg, H. Stoll, H. Preuss, Theor. Chim. Acta, 1990, 77, 123-141.
In-Sb(ecp-28), Tl-Bi(ecp-46): B. Metz, H. Stoll, M. Dolg, J. Chem. Phys., 2000, 113, 2563-2569.
Te-Xe(ecp-28), Po-Rn(ecp-46): K. A. Peterson, D. Figgen, E. Goll, H. Stoll, M. Dolg, J. Chem. Phys., 2003, 119, 11113-11123.
Rb(ecp-28), Cs(ecp-46): T. Leininger, A. Nicklass, W. Kuechle, H. Stoll, M. Dolg, A. Bergner, Chem. Phys. Lett., 1996, 255, 274-280.
Sr(ecp-28), Ba(ecp-46): M. Kaupp, P. V. Schleyer, H. Stoll and H. Preuss, J. Chem. Phys., 1991, 94, 1360-1366.
La(ecp-46): M. Dolg, H. Stoll, A. Savin, H. Preuss, Theor. Chim. Acta, 1989, 75, 173-194.
Lu(ecp-28): X. Cao, M. Dolg, J. Chem. Phys., 2001, 115, 7348-7355.

ECP parameters for Au [Def2-ECP] have been obtained from:
TURBOMOLE (7.0.2)

----- Orbital basis set information -----
Your calculation utilizes the basis: def2-TZVP
   F. Weigend and R. Ahlrichs, Phys. Chem. Chem. Phys. 7, 3297 (2005).

----- AuxJ basis set information -----
Your calculation utilizes the auxiliary basis: def2/J
   F. Weigend, Phys. Chem. Chem. Phys. 8, 1057 (2006).

----- AuxC basis set information -----
Your calculation utilizes the auxiliary basis: def2-TZVP/C
  H-La, Hf-Rn : A. Hellweg, C. Hattig, S. Hofener and W. Klopper, Theor. Chem. Acc. 117, 587 (2007).
        Ce-Lu : J. Chmela and M. E. Harding, Mol. Phys. (2018).

================================================================================
                                        WARNINGS
                       Please study these warnings very carefully!
================================================================================


IMPORTANT NOTE: CASSCF must signal convergence for a subsequent CASPT2/NEVPT2! 
                Set maxiter=1 to run CASPT2/NEVPT2 with arbitrary orbitals.


INFO   : the flag for use of the SHARK integral package has been found!

================================================================================
                                       INPUT FILE
================================================================================
NAME = nevpt2.inp
|  1> !SC-NEVPT2 def2-TZVP def2-TZVP/C
|  2> !MOREAD RIJCOSX def2/J
|  3> %maxcore 4000
|  4> %moinp "casscf.gbw"
|  5> %pal nprocs 6 end 
|  6> 
|  7> %casscf
|  8>  mult 6,4
|  9>  bweight 1,1
| 10>  nroots 1,24
| 11>  nel 5
| 12>  norb 5
| 13>  ptsettings
| 14>   d4tpre 1e-14 # default = 1e-10
| 15>   d3tpre 1e-14
| 16>  end
| 17>  rel           
| 18>    dosoc true   
| 19>    gtensor true 
| 20>  end           
| 21> end
| 22> 
| 23> 
| 24> *xyzfile 0 6 pbe.xyz
| 25> 
| 26> 
| 27>                          ****END OF INPUT****
================================================================================

                       ****************************
                       * Single Point Calculation *
                       ****************************

---------------------------------
CARTESIAN COORDINATES (ANGSTROEM)
---------------------------------
  Au     8.540415    7.027828    6.612175
  Au    10.232287    7.231159    8.783996
  Au     4.932279    7.367892    9.159027
  Au     7.583595    7.424770    9.443698
  Au     8.807187    4.895024    8.721297
  Au     5.224996    3.909529    6.112766
  Au     4.025880    5.528157    4.258677
  Au     6.477461    6.462413    5.112889
  Au     4.001826    6.434493    6.840730
  Au     7.000768    3.098103    7.930429
  Mn     6.441947    5.702552    7.715984

----------------------------
CARTESIAN COORDINATES (A.U.)
----------------------------
  NO LB      ZA    FRAG     MASS         X           Y           Z
   0 Au   19.0000*   0   196.966   16.139045   13.280669   12.495200
   1 Au   19.0000*   0   196.966   19.336221   13.664910   16.599347
   2 Au   19.0000*   0   196.966    9.320657   13.923299   17.308053
   3 Au   19.0000*   0   196.966   14.330918   14.030783   17.846003
   4 Au   19.0000*   0   196.966   16.643171    9.250254   16.480863
   5 Au   19.0000*   0   196.966    9.873811    7.387939   11.551453
   6 Au   19.0000*   0   196.966    7.607811   10.446703    8.047733
   7 Au   19.0000*   0   196.966   12.240627   12.212191    9.661961
   8 Au   19.0000*   0   196.966    7.562355   12.159429   12.927106
   9 Au   19.0000*   0   196.966   13.229534    5.854566   14.986339
  10 Mn   25.0000    0    54.940   12.173516   10.776262   14.581096
* core charge reduced due to ECP

--------------------------------
INTERNAL COORDINATES (ANGSTROEM)
--------------------------------
 Au     0   0   0     0.000000000000     0.00000000     0.00000000
 Au     1   0   0     2.760540268605     0.00000000     0.00000000
 Au     1   2   0     4.429530248673    92.36249118     0.00000000
 Au     3   1   2     2.667161096000    41.69297432     2.38860680
 Au     2   1   3     2.737219682122    66.42357750    68.95056884
 Au     5   2   1     4.539573221340   127.53738662   346.94944487
 Au     6   5   2     2.737787989970   127.33072863     0.06736276
 Au     1   2   3     2.612150568957   162.08721862   326.90411678
 Au     3   1   2     2.666736011323    75.96551468   195.61301333
 Au     6   5   2     2.667522898173    31.69906714   176.31564353
 Mn     3   1   2     2.671109998241    35.02857709   253.97510056

---------------------------
INTERNAL COORDINATES (A.U.)
---------------------------
 Au     0   0   0     0.000000000000     0.00000000     0.00000000
 Au     1   0   0     5.216665089326     0.00000000     0.00000000
 Au     1   2   0     8.370599071913    92.36249118     0.00000000
 Au     3   1   2     5.040204026488    41.69297432     2.38860680
 Au     2   1   3     5.172595567589    66.42357750    68.95056884
 Au     5   2   1     8.578550153216   127.53738662   346.94944487
 Au     6   5   2     5.173669513781   127.33072863     0.06736276
 Au     1   2   3     4.936249195895   162.08721862   326.90411678
 Au     3   1   2     5.039400732866    75.96551468   195.61301333
 Au     6   5   2     5.040887733510    31.69906714   176.31564353
 Mn     3   1   2     5.047666370255    35.02857709   253.97510056

---------------------
BASIS SET INFORMATION
---------------------
There are 2 groups of distinct atoms

 Group   1 Type Au  : 8s7p6d1f contracted to 6s4p3d1f pattern {311111/4111/411/1}
 Group   2 Type Mn  : 17s11p7d1f contracted to 6s4p4d1f pattern {842111/6311/4111/1}

Atom   0Au   basis set group =>   1
Atom   1Au   basis set group =>   1
Atom   2Au   basis set group =>   1
Atom   3Au   basis set group =>   1
Atom   4Au   basis set group =>   1
Atom   5Au   basis set group =>   1
Atom   6Au   basis set group =>   1
Atom   7Au   basis set group =>   1
Atom   8Au   basis set group =>   1
Atom   9Au   basis set group =>   1
Atom  10Mn   basis set group =>   2
---------------------------------
AUXILIARY/J BASIS SET INFORMATION
---------------------------------
There are 2 groups of distinct atoms

 Group   1 Type Au  : 11s5p5d3f3g contracted to 8s5p5d2f3g pattern {41111111/11111/11111/21/111}
 Group   2 Type Mn  : 19s5p5d3f3g contracted to 8s5p5d2f3g pattern {121111111/11111/11111/21/111}

Atom   0Au   basis set group =>   1
Atom   1Au   basis set group =>   1
Atom   2Au   basis set group =>   1
Atom   3Au   basis set group =>   1
Atom   4Au   basis set group =>   1
Atom   5Au   basis set group =>   1
Atom   6Au   basis set group =>   1
Atom   7Au   basis set group =>   1
Atom   8Au   basis set group =>   1
Atom   9Au   basis set group =>   1
Atom  10Mn   basis set group =>   2
---------------------------------
AUXILIARY/C BASIS SET INFORMATION
---------------------------------
There are 2 groups of distinct atoms

 Group   1 Type Au  : 8s8p7d5f3g2h contracted to 8s8p7d5f3g2h pattern {11111111/11111111/1111111/11111/111/11}
 Group   2 Type Mn  : 11s9p8d6f5g2h contracted to 9s8p8d6f5g2h pattern {311111111/21111111/11111111/111111/11111/11}

Atom   0Au   basis set group =>   1
Atom   1Au   basis set group =>   1
Atom   2Au   basis set group =>   1
Atom   3Au   basis set group =>   1
Atom   4Au   basis set group =>   1
Atom   5Au   basis set group =>   1
Atom   6Au   basis set group =>   1
Atom   7Au   basis set group =>   1
Atom   8Au   basis set group =>   1
Atom   9Au   basis set group =>   1
Atom  10Mn   basis set group =>   2
-------------------------
ECP PARAMETER INFORMATION
-------------------------

 Group 1, Type Au ECP Def2-ECP (replacing 60 core electrons, lmax=3)

Atom   0Au   ECP group =>   1
Atom   1Au   ECP group =>   1
Atom   2Au   ECP group =>   1
Atom   3Au   ECP group =>   1
Atom   4Au   ECP group =>   1
Atom   5Au   ECP group =>   1
Atom   6Au   ECP group =>   1
Atom   7Au   ECP group =>   1
Atom   8Au   ECP group =>   1
Atom   9Au   ECP group =>   1



           ************************************************************
           *        Program running with 6 parallel MPI-processes     *
           *              working on a common directory               *
           ************************************************************
------------------------------------------------------------------------------
                           ORCA GTO INTEGRAL CALCULATION
                           -- RI-GTO INTEGRALS CHOSEN --
------------------------------------------------------------------------------
------------------------------------------------------------------------------
                   ___                                                        
                  /   \      - P O W E R E D   B Y -                         
                 /     \                                                     
                 |  |  |   _    _      __       _____    __    __             
                 |  |  |  | |  | |    /  \     |  _  \  |  |  /  |          
                  \  \/   | |  | |   /    \    | | | |  |  | /  /          
                 / \  \   | |__| |  /  /\  \   | |_| |  |  |/  /          
                |  |  |   |  __  | /  /__\  \  |    /   |      \           
                |  |  |   | |  | | |   __   |  |    \   |  |\   \          
                \     /   | |  | | |  |  |  |  | |\  \  |  | \   \       
                 \___/    |_|  |_| |__|  |__|  |_| \__\ |__|  \__/        
                                                                              
                      - O R C A' S   B I G   F R I E N D -                    
                                      &                                       
                       - I N T E G R A L  F E E D E R -                       
                                                                              
 v1 FN, 2020, v2 2021                                                         
------------------------------------------------------------------------------


Reading SHARK input file nevpt2.SHARKINP.tmp ... ok
----------------------
SHARK INTEGRAL PACKAGE
----------------------

Number of atoms                             ...     11
Number of basis functions                   ...    445
Number of shells                            ...    155
Maximum angular momentum                    ...      3
Integral batch strategy                     ... SHARK/LIBINT Hybrid
RI-J (if used) integral strategy            ... SPLIT-RIJ (Revised 2003 algorithm where possible)
Printlevel                                  ...      1
Contraction scheme used                     ... SEGMENTED contraction
Coulomb Range Separation                    ... NOT USED
Exchange Range Separation                   ... NOT USED
Finite Nucleus Model                        ... NOT USED
Auxiliary Coulomb fitting basis             ... AVAILABLE
   # of basis functions in Aux-J            ...    979
   # of shells in Aux-J                     ...    253
   Maximum angular momentum in Aux-J        ...      4
Auxiliary J/K fitting basis                 ... NOT available
Auxiliary Correlation fitting basis         ... AVAILABLE
   # of basis functions in Aux-C            ...   1692
   # of shells in Aux-C                     ...    368
   Maximum angular momentum in Aux-C        ...      5
Auxiliary 'external' fitting basis          ... NOT available
Integral threshold                          ...     1.000000e-10
Primitive cut-off                           ...     1.000000e-11
Primitive pair pre-selection threshold      ...     1.000000e-11

Calculating pre-screening integrals         ... done (  0.2 sec) Dimension = 155
Organizing shell pair data                  ... done (  0.2 sec)
Shell pair information
Total number of shell pairs                 ...     12090
Shell pairs after pre-screening             ...      9747
Total number of primitive shell pairs       ...     33105
Primitive shell pairs kept                  ...     19623
          la=0 lb=0:   1539 shell pairs
          la=1 lb=0:   2230 shell pairs
          la=1 lb=1:    829 shell pairs
          la=2 lb=0:   1936 shell pairs
          la=2 lb=1:   1362 shell pairs
          la=2 lb=2:    568 shell pairs
          la=3 lb=0:    512 shell pairs
          la=3 lb=1:    384 shell pairs
          la=3 lb=2:    334 shell pairs
          la=3 lb=3:     53 shell pairs

Calculating one electron integrals          ... done (  0.0 sec)
Calculating ECP integrals                   ... done (  9.2 sec)
Calculating RI/J V-Matrix + Cholesky decomp.... done (  0.1 sec)
Calculating RI/C V-Matrix + Cholesky decomp.... done (  0.3 sec)
Calculating Nuclear repulsion               ... done (  0.0 sec) ENN=   3083.644426182612 Eh

SHARK setup successfully completed in  10.4 seconds

Maximum memory used throughout the entire GTOINT-calculation: 29.9 MB


           ************************************************************
           *        Program running with 6 parallel MPI-processes     *
           *              working on a common directory               *
           ************************************************************
-------------------------------------------------------------------------------
                                 ORCA SCF
-------------------------------------------------------------------------------

------------
SCF SETTINGS
------------
Hamiltonian:
 Ab initio Hamiltonian  Method          .... Hartree-Fock(GTOs)
 RI-approximation to the Coulomb term is turned on
   Number of AuxJ basis functions       .... 979
   RIJ-COSX (HFX calculated with COS-X)).... on


General Settings:
 Integral files         IntName         .... nevpt2
 Hartree-Fock type      HFTyp           .... CASSCF
 Total Charge           Charge          ....    0
 Multiplicity           Mult            ....    6
 Number of Electrons    NEL             ....  215
 Basis Dimension        Dim             ....  445
 Nuclear Repulsion      ENuc            ....   3083.6444261826 Eh


Diagonalization of the overlap matrix:
Smallest eigenvalue                        ... 6.014e-04
Time for diagonalization                   ...    0.075 sec
Threshold for overlap eigenvalues          ... 1.000e-08
Number of eigenvalues below threshold      ... 0
Time for construction of square roots      ...    0.049 sec
Total time needed                          ...    0.126 sec

---------------------
INITIAL GUESS: MOREAD
---------------------
Guess MOs are being read from file: casscf.gbw
Input Geometry matches current geometry (good)
Input basis set matches current basis set (good)
MOs were renormalized
Gram-Schmidt orthogonalization of all MOs with pivot on actives
                      ------------------
                      INITIAL GUESS DONE (   5.6 sec)
                      ------------------
--------------------
COSX GRID GENERATION
--------------------

GRIDX 1
-------
General Integration Accuracy     IntAcc      ... 3.816
Radial Grid Type                 RadialGrid  ... OptM3 with GC (2021)
Angular Grid (max. ang.)         AngularGrid ... 1 (Lebedev-50)
Angular grid pruning method      GridPruning ... 4 (adaptive)
Weight generation scheme         WeightScheme... Becke
Basis function cutoff            BFCut       ... 1.0000e-10
Integration weight cutoff        WCut        ... 1.0000e-14
Angular grids for H and He will be reduced by one unit
Partially contracted basis set               ... on
Rotationally invariant grid construction     ... off

Total number of grid points                  ...    13094
Total number of batches                      ...      210
Average number of points per batch           ...       62
Average number of grid points per atom       ...     1190
UseSFitting                                  ... on

GRIDX 2
-------
General Integration Accuracy     IntAcc      ... 4.020
Radial Grid Type                 RadialGrid  ... OptM3 with GC (2021)
Angular Grid (max. ang.)         AngularGrid ... 2 (Lebedev-110)
Angular grid pruning method      GridPruning ... 4 (adaptive)
Weight generation scheme         WeightScheme... Becke
Basis function cutoff            BFCut       ... 1.0000e-10
Integration weight cutoff        WCut        ... 1.0000e-14
Angular grids for H and He will be reduced by one unit
Partially contracted basis set               ... on
Rotationally invariant grid construction     ... off

Total number of grid points                  ...    39545
Total number of batches                      ...      624
Average number of points per batch           ...       63
Average number of grid points per atom       ...     3595
UseSFitting                                  ... on

GRIDX 3
-------
General Integration Accuracy     IntAcc      ... 4.338
Radial Grid Type                 RadialGrid  ... OptM3 with GC (2021)
Angular Grid (max. ang.)         AngularGrid ... 3 (Lebedev-194)
Angular grid pruning method      GridPruning ... 4 (adaptive)
Weight generation scheme         WeightScheme... Becke
Basis function cutoff            BFCut       ... 1.0000e-10
Integration weight cutoff        WCut        ... 1.0000e-14
Angular grids for H and He will be reduced by one unit
Partially contracted basis set               ... on
Rotationally invariant grid construction     ... off

Total number of grid points                  ...    72849
Total number of batches                      ...     1144
Average number of points per batch           ...       63
Average number of grid points per atom       ...     6623
UseSFitting                                  ... on

Time for X-Grid setup             =    1.735 sec



 ... the calculation is a CASSCF calculation -I'm leaving here GOOD LUCK!!!



           ************************************************************
           *        Program running with 6 parallel MPI-processes     *
           *              working on a common directory               *
           ************************************************************
-------------------------------------------------------------------------------
                              ORCA-CASSCF
-------------------------------------------------------------------------------

Setting up the integral package       ... done
Setting up the integral package (RI)  ... done
Building the CAS space                ... done (1 configurations for Mult=6)
Building the CAS space                ... done (21 configurations for Mult=4)

 CASSCF (estimated) memory needed     ... 81.6 MB
 NEVPT2 (estimated) memory needed     ... 245.9 MB


SYSTEM-SPECIFIC SETTINGS:
Number of active electrons          ...    5
Number of active orbitals           ...    5
Total number of electrons           ...  215
Total number of orbitals            ...  445
Total number aux. functions         ... 1692

Determined orbital ranges:
   Internal       0 -  104 ( 105 orbitals)
   Active       105 -  109 (   5 orbitals)
   External     110 -  444 ( 335 orbitals)
Number of rotation parameters      ...  37375

CI-STEP:
CI strategy                         ... General CI
Number of multiplicity blocks       ...    2
BLOCK  1 WEIGHT=   0.5000
  Multiplicity                      ...    6
  #(Configurations)                 ...    1
  #(CSFs)                           ...    1
  #(Roots)                          ...    1
    ROOT=0 WEIGHT=    0.500000

BLOCK  2 WEIGHT=   0.5000
  Multiplicity                      ...    4
  #(Configurations)                 ...   21
  #(CSFs)                           ...   24
  #(Roots)                          ...   24
    ROOT=0 WEIGHT=    0.020833
    ROOT=1 WEIGHT=    0.020833
    ROOT=2 WEIGHT=    0.020833
    ROOT=3 WEIGHT=    0.020833
    ROOT=4 WEIGHT=    0.020833
    ROOT=5 WEIGHT=    0.020833
    ROOT=6 WEIGHT=    0.020833
    ROOT=7 WEIGHT=    0.020833
    ROOT=8 WEIGHT=    0.020833
    ROOT=9 WEIGHT=    0.020833
    ROOT=10 WEIGHT=    0.020833
    ROOT=11 WEIGHT=    0.020833
    ROOT=12 WEIGHT=    0.020833
    ROOT=13 WEIGHT=    0.020833
    ROOT=14 WEIGHT=    0.020833
    ROOT=15 WEIGHT=    0.020833
    ROOT=16 WEIGHT=    0.020833
    ROOT=17 WEIGHT=    0.020833
    ROOT=18 WEIGHT=    0.020833
    ROOT=19 WEIGHT=    0.020833
    ROOT=20 WEIGHT=    0.020833
    ROOT=21 WEIGHT=    0.020833
    ROOT=22 WEIGHT=    0.020833
    ROOT=23 WEIGHT=    0.020833

  PrintLevel                        ...    1
  N(GuessMat)                       ...       512
  MaxDim(CI)                        ...        10
  MaxIter(CI)                       ...        64
  Energy Tolerance CI               ...  1.00e-08
  Residual Tolerance CI             ...  1.00e-08
  Shift(CI)                         ...  1.00e-04

INTEGRAL-TRANSFORMATION-STEP:
  Algorithm                         ... RI-MO

ORBITAL-IMPROVEMENT-STEP:
  Algorithm                         ... SuperCI(PT)
  Default Parametrization           ... CAYLEY
  Act-Act rotations                 ... depends on algorithm used

  Note: SuperCI(PT) will ignore FreezeIE, FreezeAct and FreezeGrad. In general Default settings are encouraged.
        In conjunction with ShiftUp, ShiftDn or GradScaling the performance of SuperCI(PT) is less optimal.  

  MaxRot                            ... 2.00e-01 
  Max. no of vectors (DIIS)         ... 15
  DThresh (cut-off) metric          ... 1.00e-06
  Switch step at gradient           ...  3.00e-02 
  Switch step at iteration          ...        50   
  Switch step to                    ... SuperCI(PT)    

SCF-SETTINGS:
  Incremental                       ... off
  RIJCOSX approximation             ... on
  UseFinalGrid                      ... on
  RI-JK approximation               ... off
  AO integral handling              ... DIRECT
  Integral Neglect Thresh           ...  1.00e-10
  Primitive cutoff TCut             ...  1.00e-11
  Energy convergence tolerance      ...  1.00e-07
  Orbital gradient convergence      ...  1.00e-03
  Max. number of iterations         ...        75  

PT2-SETTINGS:
  A PT2 calculation will be performed on top of the CASSCF wave function (PT2 = SC-NEVPT2)   
 CI step strategy                   ... General CI
  D4C handling                      ... on the fly 
  CI truncation for D4C at          ...  1.00e-14
  CI truncation for D3  at          ...  1.00e-14
  Orbitals                          ... canonical for each state 
  Last  frozen  orbital             ... 4
  First deleted orbital             ... 445
  RI Step                           ... store IJV(array) (MC_ONDISK during integral transformation) 

PROPERTIES-SETTINGS:
  Spin orbit coupling               ... true
  GTensor                           ... true
  QDPT diagonal energies            ... NEVPT2 energies 

FINAL ORBITALS:
  Active   Orbitals                 ... natural 
  Internal Orbitals                 ... canonical 
  External Orbitals                 ... canonical 

------------------
CAS-SCF ITERATIONS
------------------


MACRO-ITERATION   1: 
   --- Inactive Energy E0 = -2490.55950475 Eh
CI-ITERATION   0: 
 -2497.870741303   0.000000000000 (    0.00)
   CI-PROBLEM SOLVED
   DENSITIES MADE
CI-ITERATION   0: 
 -2497.869033856   0.000000000000 (    0.00)
 -2497.772246457   0.000000000000
 -2497.771538490   0.000000000000
 -2497.770694489   0.000000000000
 -2497.769295313   0.000000000000
 -2497.756909625   0.000000000000
 -2497.752194629   0.000000000000
 -2497.750328202   0.000000000000
 -2497.740430173   0.000000000000
 -2497.736537450   0.000000000000
 -2497.735046429   0.000000000000
 -2497.732493426   0.000000000000
 -2497.695326259   0.000000000000
 -2497.674886049   0.000000000000
 -2497.673589468   0.000000000000
 -2497.672721543   0.000000000000
 -2497.575077366   0.000000000000
 -2497.564812321   0.000000000000
 -2497.560185108   0.000000000000
 -2497.558009050   0.000000000000
 -2497.487268814   0.000000000000
 -2497.478860069   0.000000000000
 -2497.478616606   0.000000000000
 -2497.466723589   0.000000000000
   CI-PROBLEM SOLVED
   DENSITIES MADE

                 <<<<<<<<<<<<<<<<<<INITIAL CI STATE CHECK>>>>>>>>>>>>>>>>>>

BLOCK  1 MULT= 6 NROOTS= 1 
ROOT   0:  E=   -2497.8707413028 Eh
      1.00000 [     0]: 11111

BLOCK  2 MULT= 4 NROOTS=24 
ROOT   0:  E=   -2497.8690338556 Eh
      0.37738 [    10]: 11111
      0.17727 [    17]: 02111
      0.16904 [    18]: 01211
      0.10474 [     3]: 20111
      0.09990 [     2]: 21011
      0.02819 [     6]: 12011
      0.02818 [    14]: 10211
      0.00639 [    19]: 01121
      0.00377 [     1]: 21101
ROOT   1:  E=   -2497.7722464573 Eh  2.634 eV  21242.4 cm**-1
      0.56049 [    10]: 11111
      0.11865 [    15]: 10121
      0.11749 [     5]: 12101
      0.03421 [    17]: 02111
      0.03247 [    18]: 01211
      0.03162 [    12]: 11021
      0.03117 [     8]: 11201
      0.01627 [     3]: 20111
      0.01557 [    11]: 11102
      0.01545 [     2]: 21011
      0.01434 [     9]: 11120
      0.00285 [     6]: 12011
      0.00283 [    14]: 10211
ROOT   2:  E=   -2497.7715384900 Eh  2.653 eV  21397.8 cm**-1
      0.14674 [     8]: 11201
      0.13443 [    19]: 01121
      0.13131 [     5]: 12101
      0.10598 [    12]: 11021
      0.09089 [    15]: 10121
      0.08721 [     1]: 21101
      0.06411 [    10]: 11111
      0.05482 [     4]: 12110
      0.04783 [     7]: 11210
      0.03103 [     0]: 21110
      0.03007 [    20]: 01112
      0.02515 [    16]: 10112
      0.02126 [    13]: 11012
      0.01171 [    17]: 02111
      0.00661 [     3]: 20111
      0.00374 [    14]: 10211
ROOT   3:  E=   -2497.7706944892 Eh  2.676 eV  21583.0 cm**-1
      0.33071 [    10]: 11111
      0.14338 [     8]: 11201
      0.13035 [    12]: 11021
      0.08076 [     5]: 12101
      0.07175 [    14]: 10211
      0.07007 [    15]: 10121
      0.06793 [     6]: 12011
      0.03883 [     9]: 11120
      0.02658 [    11]: 11102
      0.02263 [     7]: 11210
      0.01014 [     4]: 12110
      0.00559 [    13]: 11012
ROOT   4:  E=   -2497.7692953125 Eh  2.714 eV  21890.1 cm**-1
      0.16382 [     9]: 11120
      0.15300 [    14]: 10211
      0.15132 [     6]: 12011
      0.07653 [    11]: 11102
      0.06195 [    12]: 11021
      0.05449 [     8]: 11201
      0.05131 [    10]: 11111
      0.04192 [     4]: 12110
      0.03881 [    15]: 10121
      0.03789 [    17]: 02111
      0.03536 [    18]: 01211
      0.03079 [     5]: 12101
      0.02464 [    16]: 10112
      0.02440 [     7]: 11210
      0.01776 [     3]: 20111
      0.01735 [    13]: 11012
      0.01646 [     2]: 21011
ROOT   5:  E=   -2497.7569096255 Eh  3.051 eV  24608.4 cm**-1
      0.56539 [    10]: 11111
      0.09019 [    18]: 01211
      0.06658 [    17]: 02111
      0.05877 [     2]: 21011
      0.04351 [     3]: 20111
      0.04193 [     5]: 12101
      0.03487 [    15]: 10121
      0.02389 [    19]: 01121
      0.01540 [     1]: 21101
      0.01149 [     8]: 11201
      0.00932 [     6]: 12011
      0.00882 [     4]: 12110
      0.00665 [    16]: 10112
      0.00606 [    20]: 01112
      0.00516 [    12]: 11021
      0.00449 [     7]: 11210
      0.00401 [     0]: 21110
      0.00255 [    13]: 11012
ROOT   6:  E=   -2497.7521946288 Eh  3.179 eV  25643.2 cm**-1
      0.23888 [     4]: 12110
      0.23359 [     7]: 11210
      0.13360 [     0]: 21110
      0.07075 [    10]: 11111
      0.06182 [    19]: 01121
      0.05056 [    12]: 11021
      0.04506 [    20]: 01112
      0.03944 [    15]: 10121
      0.03489 [    13]: 11012
      0.03365 [    16]: 10112
      0.01622 [    17]: 02111
      0.01066 [     9]: 11120
      0.00654 [     8]: 11201
      0.00631 [     3]: 20111
      0.00542 [    18]: 01211
      0.00289 [     2]: 21011
      0.00270 [     1]: 21101
      0.00254 [     5]: 12101
ROOT   7:  E=   -2497.7503282020 Eh  3.230 eV  26052.9 cm**-1
      0.29454 [     7]: 11210
      0.23122 [     4]: 12110
      0.11421 [    12]: 11021
      0.09461 [    15]: 10121
      0.07486 [    13]: 11012
      0.07339 [    10]: 11111
      0.05194 [    16]: 10112
      0.03839 [     9]: 11120
      0.02156 [    11]: 11102
      0.00423 [    14]: 10211
ROOT   8:  E=   -2497.7404301733 Eh  3.499 eV  28225.2 cm**-1
      0.87712 [    10]: 11111
      0.03431 [    16]: 10112
      0.02673 [     4]: 12110
      0.01929 [    13]: 11012
      0.01630 [     7]: 11210
      0.00458 [     6]: 12011
      0.00445 [    14]: 10211
      0.00382 [    17]: 02111
      0.00365 [    18]: 01211
      0.00272 [    15]: 10121
ROOT   9:  E=   -2497.7365374503 Eh  3.605 eV  29079.6 cm**-1
      0.41101 [     9]: 11120
      0.15899 [    11]: 11102
      0.12867 [     6]: 12011
      0.12676 [    14]: 10211
      0.03609 [     4]: 12110
      0.03015 [    17]: 02111
      0.02850 [    10]: 11111
      0.02791 [    18]: 01211
      0.01248 [     3]: 20111
      0.01155 [     2]: 21011
      0.01000 [    16]: 10112
      0.00816 [     8]: 11201
      0.00386 [    12]: 11021
      0.00320 [     7]: 11210
ROOT  10:  E=   -2497.7350464285 Eh  3.646 eV  29406.8 cm**-1
      0.16009 [     5]: 12101
      0.14957 [     8]: 11201
      0.10658 [    20]: 01112
      0.10555 [    19]: 01121
      0.09052 [    15]: 10121
      0.08284 [     1]: 21101
      0.07962 [    16]: 10112
      0.07510 [    13]: 11012
      0.06943 [    12]: 11021
      0.02431 [    14]: 10211
      0.01586 [     6]: 12011
      0.01020 [     3]: 20111
      0.00930 [    10]: 11111
      0.00549 [    11]: 11102
      0.00466 [    17]: 02111
      0.00313 [     7]: 11210
      0.00274 [     4]: 12110
ROOT  11:  E=   -2497.7324934264 Eh  3.715 eV  29967.2 cm**-1
      0.23690 [     8]: 11201
      0.22675 [     5]: 12101
      0.13865 [    15]: 10121
      0.13789 [    12]: 11021
      0.11410 [    13]: 11012
      0.09424 [    16]: 10112
      0.01593 [     9]: 11120
      0.01418 [    10]: 11111
      0.01257 [     6]: 12011
      0.00377 [    14]: 10211
ROOT  12:  E=   -2497.6953262589 Eh  4.727 eV  38124.4 cm**-1
      0.28588 [     6]: 12011
      0.28049 [    14]: 10211
      0.10621 [    18]: 01211
      0.07968 [    17]: 02111
      0.04218 [     2]: 21011
      0.04142 [     8]: 11201
      0.03758 [    12]: 11021
      0.03158 [     3]: 20111
      0.02806 [    19]: 01121
      0.01258 [     5]: 12101
      0.01117 [     1]: 21101
      0.00830 [    15]: 10121
      0.00808 [     7]: 11210
      0.00718 [    20]: 01112
      0.00703 [    13]: 11012
      0.00461 [     4]: 12110
      0.00343 [    16]: 10112
      0.00284 [     0]: 21110
ROOT  13:  E=   -2497.6748860492 Eh  5.283 eV  42610.5 cm**-1
      0.21359 [    20]: 01112
      0.15183 [    16]: 10112
      0.13776 [    13]: 11012
      0.09305 [     4]: 12110
      0.08299 [     7]: 11210
      0.04129 [    19]: 01121
      0.03980 [     5]: 12101
      0.03625 [     6]: 12011
      0.03590 [    15]: 10121
      0.03566 [    14]: 10211
      0.02968 [     0]: 21110
      0.02412 [     8]: 11201
      0.02319 [    17]: 02111
      0.02210 [    12]: 11021
      0.01169 [     1]: 21101
      0.00863 [    18]: 01211
      0.00478 [     3]: 20111
      0.00370 [    11]: 11102
ROOT  14:  E=   -2497.6735894678 Eh  5.318 eV  42895.1 cm**-1
      0.27605 [    13]: 11012
      0.20597 [    16]: 10112
      0.14806 [     7]: 11210
      0.11161 [     4]: 12110
      0.09339 [    11]: 11102
      0.05385 [     9]: 11120
      0.03001 [    12]: 11021
      0.02999 [     8]: 11201
      0.02451 [    15]: 10121
      0.02291 [     5]: 12101
ROOT  15:  E=   -2497.6727215434 Eh  5.342 eV  43085.6 cm**-1
      0.58571 [    11]: 11102
      0.24381 [     9]: 11120
      0.07012 [    16]: 10112
      0.03597 [     4]: 12110
      0.01624 [    13]: 11012
      0.01593 [     5]: 12101
      0.00992 [     7]: 11210
      0.00669 [     8]: 11201
      0.00571 [    15]: 10121
      0.00373 [    10]: 11111
      0.00363 [    12]: 11021
ROOT  16:  E=   -2497.5750773658 Eh  7.999 eV  64516.0 cm**-1
      0.76705 [     0]: 21110
      0.09640 [     4]: 12110
      0.09221 [     7]: 11210
      0.02107 [     3]: 20111
      0.01080 [     2]: 21011
      0.00442 [    10]: 11111
      0.00349 [     9]: 11120
ROOT  17:  E=   -2497.5648123213 Eh  8.278 eV  66768.9 cm**-1
      0.66436 [     1]: 21101
      0.09309 [     3]: 20111
      0.09096 [     5]: 12101
      0.08750 [     8]: 11201
      0.02346 [     2]: 21011
      0.02006 [    10]: 11111
      0.01134 [    14]: 10211
      0.00346 [     0]: 21110
      0.00262 [     6]: 12011
ROOT  18:  E=   -2497.5601851080 Eh  8.404 eV  67784.5 cm**-1
      0.37804 [     2]: 21011
      0.28116 [     3]: 20111
      0.10588 [     1]: 21101
      0.09299 [    10]: 11111
      0.04660 [     6]: 12011
      0.03206 [    14]: 10211
      0.02542 [     0]: 21110
      0.01442 [     5]: 12101
      0.01300 [     8]: 11201
      0.00340 [     4]: 12110
      0.00314 [     7]: 11210
ROOT  19:  E=   -2497.5580090497 Eh  8.463 eV  68262.1 cm**-1
      0.33249 [    10]: 11111
      0.26169 [     3]: 20111
      0.25052 [     2]: 21011
      0.04666 [     6]: 12011
      0.04649 [    14]: 10211
      0.02197 [    17]: 02111
      0.02097 [    18]: 01211
      0.01008 [     1]: 21101
ROOT  20:  E=   -2497.4872688135 Eh 10.388 eV  83787.7 cm**-1
      0.50150 [    19]: 01121
      0.16866 [    15]: 10121
      0.16038 [    12]: 11021
      0.05799 [    17]: 02111
      0.02914 [    10]: 11111
      0.02726 [    20]: 01112
      0.01898 [     6]: 12011
      0.01303 [    18]: 01211
      0.00836 [    16]: 10112
      0.00801 [    13]: 11012
      0.00470 [    14]: 10211
ROOT  21:  E=   -2497.4788600687 Eh 10.617 eV  85633.2 cm**-1
      0.31382 [    10]: 11111
      0.21106 [    18]: 01211
      0.17738 [    17]: 02111
      0.08696 [     3]: 20111
      0.08267 [     2]: 21011
      0.06263 [    14]: 10211
      0.04911 [     6]: 12011
      0.00535 [    19]: 01121
      0.00314 [     1]: 21101
ROOT  22:  E=   -2497.4786166059 Eh 10.624 eV  85686.7 cm**-1
      0.26150 [    18]: 01211
      0.23272 [    17]: 02111
      0.16402 [    10]: 11111
      0.09318 [    14]: 10211
      0.07849 [     6]: 12011
      0.07782 [    19]: 01121
      0.02666 [    15]: 10121
      0.02585 [    12]: 11021
      0.01933 [    20]: 01112
      0.00666 [    16]: 10112
      0.00640 [    13]: 11012
      0.00352 [     8]: 11201
      0.00266 [     5]: 12101
ROOT  23:  E=   -2497.4667235886 Eh 10.947 eV  88296.9 cm**-1
      0.54367 [    20]: 01112
      0.19020 [    16]: 10112
      0.18115 [    13]: 11012
      0.02427 [    17]: 02111
      0.01245 [    10]: 11111
      0.01124 [    18]: 01211
      0.00925 [    19]: 01121
      0.00864 [     6]: 12011
      0.00683 [    11]: 11102
      0.00433 [    14]: 10211
      0.00367 [    15]: 10121
      0.00340 [    12]: 11021

                 <<<<<<<<<<<<<<<<<<INITIAL CI STATE CHECK>>>>>>>>>>>>>>>>>>

   E(CAS)= -2497.769596167 Eh DE=    0.000000e+00
   --- Energy gap subspaces: Ext-Act = 0.035   Act-Int = 0.157
   N(occ)=  1.00000 1.00000 1.00000 1.00000 1.00000
   ||g|| =     9.046940e-04 Max(G)=    1.597778e-04 Rot=382,15
                     ---- THE CAS-SCF GRADIENT HAS CONVERGED ----
                            --- FINALIZING ORBITALS ---
                    ---- DOING ONE FINAL ITERATION FOR PRINTING ----
   --- Forming Natural Orbitals
   --- Canonicalize Internal Space
   --- Canonicalize External Space

MACRO-ITERATION   2: 
   --- Inactive Energy E0 = -2490.55950475 Eh
   --- All densities will be recomputed
CI-ITERATION   0: 
 -2497.870741302   0.000000000000 (    0.00)
   CI-PROBLEM SOLVED
   DENSITIES MADE
CI-ITERATION   0: 
 -2497.869033855   0.000000000000 (    0.00)
 -2497.772246457   0.000000000000
 -2497.771538490   0.000000000000
 -2497.770694489   0.000000000000
 -2497.769295312   0.000000000000
 -2497.756909625   0.000000000000
 -2497.752194628   0.000000000000
 -2497.750328202   0.000000000000
 -2497.740430173   0.000000000000
 -2497.736537450   0.000000000000
 -2497.735046428   0.000000000000
 -2497.732493426   0.000000000000
 -2497.695326259   0.000000000000
 -2497.674886049   0.000000000000
 -2497.673589468   0.000000000000
 -2497.672721543   0.000000000000
 -2497.575077366   0.000000000000
 -2497.564812321   0.000000000000
 -2497.560185108   0.000000000000
 -2497.558009049   0.000000000000
 -2497.487268813   0.000000000000
 -2497.478860068   0.000000000000
 -2497.478616605   0.000000000000
 -2497.466723588   0.000000000000
   CI-PROBLEM SOLVED
   DENSITIES MADE
   E(CAS)= -2497.769596167 Eh DE=    3.583409e-10
   --- Energy gap subspaces: Ext-Act = 0.035   Act-Int = 0.146
   N(occ)=  1.00000 1.00000 1.00000 1.00000 1.00000
   ||g|| =     9.046940e-04 Max(G)=    1.597778e-04 Rot=382,15
--------------
CASSCF RESULTS
--------------

Final CASSCF energy       : -2497.769596167 Eh  -67967.7661 eV

----------------
ORBITAL ENERGIES
----------------

  NO   OCC          E(Eh)            E(eV) 
   0   2.0000    -240.478732     -6543.7590 
   1   2.0000     -29.049817      -790.4857 
   2   2.0000     -24.758718      -673.7190 
   3   2.0000     -24.753829      -673.5859 
   4   2.0000     -24.753330      -673.5724 
   5   2.0000      -4.712222      -128.2261 
   6   2.0000      -4.712203      -128.2256 
   7   2.0000      -4.712078      -128.2222 
   8   2.0000      -4.712064      -128.2218 
   9   2.0000      -4.706113      -128.0598 
  10   2.0000      -4.706113      -128.0598 
  11   2.0000      -4.697083      -127.8141 
  12   2.0000      -4.696918      -127.8096 
  13   2.0000      -4.693096      -127.7056 
  14   2.0000      -4.692569      -127.6913 
  15   2.0000      -3.742346      -101.8344 
  16   2.0000      -2.753910       -74.9377 
  17   2.0000      -2.753184       -74.9179 
  18   2.0000      -2.752270       -74.8931 
  19   2.0000      -2.751455       -74.8709 
  20   2.0000      -2.751123       -74.8619 
  21   2.0000      -2.751026       -74.8592 
  22   2.0000      -2.748406       -74.7879 
  23   2.0000      -2.748400       -74.7878 
  24   2.0000      -2.745811       -74.7173 
  25   2.0000      -2.745741       -74.7154 
  26   2.0000      -2.744714       -74.6875 
  27   2.0000      -2.744699       -74.6871 
  28   2.0000      -2.743092       -74.6433 
  29   2.0000      -2.742814       -74.6358 
  30   2.0000      -2.740330       -74.5682 
  31   2.0000      -2.740078       -74.5613 
  32   2.0000      -2.739676       -74.5504 
  33   2.0000      -2.739567       -74.5474 
  34   2.0000      -2.734862       -74.4194 
  35   2.0000      -2.733974       -74.3952 
  36   2.0000      -2.733804       -74.3906 
  37   2.0000      -2.732137       -74.3452 
  38   2.0000      -2.731986       -74.3411 
  39   2.0000      -2.728698       -74.2516 
  40   2.0000      -2.728674       -74.2510 
  41   2.0000      -2.728522       -74.2468 
  42   2.0000      -2.728250       -74.2395 
  43   2.0000      -2.724787       -74.1452 
  44   2.0000      -2.724265       -74.1310 
  45   2.0000      -2.723954       -74.1226 
  46   2.0000      -2.414852       -65.7115 
  47   2.0000      -2.412874       -65.6576 
  48   2.0000      -2.411161       -65.6110 
  49   2.0000      -0.558202       -15.1894 
  50   2.0000      -0.548430       -14.9235 
  51   2.0000      -0.539341       -14.6762 
  52   2.0000      -0.538079       -14.6419 
  53   2.0000      -0.537345       -14.6219 
  54   2.0000      -0.535820       -14.5804 
  55   2.0000      -0.533648       -14.5213 
  56   2.0000      -0.523621       -14.2485 
  57   2.0000      -0.520623       -14.1669 
  58   2.0000      -0.517767       -14.0892 
  59   2.0000      -0.513837       -13.9822 
  60   2.0000      -0.513513       -13.9734 
  61   2.0000      -0.503538       -13.7020 
  62   2.0000      -0.502752       -13.6806 
  63   2.0000      -0.498299       -13.5594 
  64   2.0000      -0.497555       -13.5392 
  65   2.0000      -0.494025       -13.4431 
  66   2.0000      -0.491481       -13.3739 
  67   2.0000      -0.488183       -13.2841 
  68   2.0000      -0.486137       -13.2285 
  69   2.0000      -0.485457       -13.2099 
  70   2.0000      -0.476045       -12.9538 
  71   2.0000      -0.469718       -12.7817 
  72   2.0000      -0.466473       -12.6934 
  73   2.0000      -0.466198       -12.6859 
  74   2.0000      -0.464457       -12.6385 
  75   2.0000      -0.462366       -12.5816 
  76   2.0000      -0.457552       -12.4506 
  77   2.0000      -0.456706       -12.4276 
  78   2.0000      -0.456179       -12.4133 
  79   2.0000      -0.451542       -12.2871 
  80   2.0000      -0.450310       -12.2536 
  81   2.0000      -0.447644       -12.1810 
  82   2.0000      -0.444307       -12.0902 
  83   2.0000      -0.441970       -12.0266 
  84   2.0000      -0.439375       -11.9560 
  85   2.0000      -0.438954       -11.9445 
  86   2.0000      -0.436101       -11.8669 
  87   2.0000      -0.435952       -11.8629 
  88   2.0000      -0.435233       -11.8433 
  89   2.0000      -0.434387       -11.8203 
  90   2.0000      -0.428988       -11.6733 
  91   2.0000      -0.427864       -11.6428 
  92   2.0000      -0.426657       -11.6099 
  93   2.0000      -0.418794       -11.3960 
  94   2.0000      -0.416311       -11.3284 
  95   2.0000      -0.415989       -11.3196 
  96   2.0000      -0.408990       -11.1292 
  97   2.0000      -0.401905       -10.9364 
  98   2.0000      -0.394132       -10.7249 
  99   2.0000      -0.381602       -10.3839 
 100   2.0000      -0.363099        -9.8804 
 101   2.0000      -0.302526        -8.2321 
 102   2.0000      -0.294083        -8.0024 
 103   2.0000      -0.286610        -7.7991 
 104   2.0000      -0.248358        -6.7582 
 105   1.0000      -0.062510        -1.7010 
 106   1.0000      -0.102347        -2.7850 
 107   1.0000      -0.082834        -2.2540 
 108   1.0000      -0.078444        -2.1346 
 109   1.0000      -0.079050        -2.1511 
 110   0.0000      -0.027920        -0.7597 
 111   0.0000      -0.004578        -0.1246 
 112   0.0000       0.003678         0.1001 
 113   0.0000       0.013189         0.3589 
 114   0.0000       0.038212         1.0398 
 115   0.0000       0.041287         1.1235 
 116   0.0000       0.052867         1.4386 
 117   0.0000       0.054513         1.4834 
 118   0.0000       0.067711         1.8425 
 119   0.0000       0.072749         1.9796 
 120   0.0000       0.084217         2.2917 
 121   0.0000       0.088370         2.4047 
 122   0.0000       0.090541         2.4637 
 123   0.0000       0.109046         2.9673 
 124   0.0000       0.113178         3.0797 
 125   0.0000       0.124653         3.3920 
 126   0.0000       0.125120         3.4047 
 127   0.0000       0.132794         3.6135 
 128   0.0000       0.138820         3.7775 
 129   0.0000       0.142157         3.8683 
 130   0.0000       0.144348         3.9279 
 131   0.0000       0.147953         4.0260 
 132   0.0000       0.151679         4.1274 
 133   0.0000       0.152503         4.1498 
 134   0.0000       0.164932         4.4880 
 135   0.0000       0.173428         4.7192 
 136   0.0000       0.173914         4.7324 
 137   0.0000       0.186433         5.0731 
 138   0.0000       0.193619         5.2686 
 139   0.0000       0.194465         5.2917 
 140   0.0000       0.209574         5.7028 
 141   0.0000       0.219735         5.9793 
 142   0.0000       0.220855         6.0098 
 143   0.0000       0.229679         6.2499 
 144   0.0000       0.269272         7.3273 
 145   0.0000       0.270694         7.3660 
 146   0.0000       0.294003         8.0002 
 147   0.0000       0.307628         8.3710 
 148   0.0000       0.308126         8.3845 
 149   0.0000       0.310206         8.4411 
 150   0.0000       0.327773         8.9191 
 151   0.0000       0.332229         9.0404 
 152   0.0000       0.336487         9.1563 
 153   0.0000       0.341382         9.2895 
 154   0.0000       0.362894         9.8748 
 155   0.0000       0.374275        10.1846 
 156   0.0000       0.387297        10.5389 
 157   0.0000       0.391922        10.6648 
 158   0.0000       0.393157        10.6983 
 159   0.0000       0.399310        10.8658 
 160   0.0000       0.403903        10.9908 
 161   0.0000       0.418949        11.4002 
 162   0.0000       0.436355        11.8738 
 163   0.0000       0.441349        12.0097 
 164   0.0000       0.441744        12.0205 
 165   0.0000       0.442049        12.0288 
 166   0.0000       0.443044        12.0558 
 167   0.0000       0.448232        12.1970 
 168   0.0000       0.450330        12.2541 
 169   0.0000       0.456738        12.4285 
 170   0.0000       0.463822        12.6212 
 171   0.0000       0.470226        12.7955 
 172   0.0000       0.475395        12.9361 
 173   0.0000       0.479074        13.0363 
 174   0.0000       0.485432        13.2093 
 175   0.0000       0.494003        13.4425 
 176   0.0000       0.496359        13.5066 
 177   0.0000       0.497831        13.5467 
 178   0.0000       0.504245        13.7212 
 179   0.0000       0.514759        14.0073 
 180   0.0000       0.518725        14.1152 
 181   0.0000       0.525191        14.2912 
 182   0.0000       0.529807        14.4168 
 183   0.0000       0.533002        14.5037 
 184   0.0000       0.547068        14.8865 
 185   0.0000       0.556939        15.1551 
 186   0.0000       0.558497        15.1975 
 187   0.0000       0.560991        15.2653 
 188   0.0000       0.565554        15.3895 
 189   0.0000       0.570290        15.5184 
 190   0.0000       0.579896        15.7798 
 191   0.0000       0.590184        16.0597 
 192   0.0000       0.592454        16.1215 
 193   0.0000       0.602459        16.3937 
 194   0.0000       0.604645        16.4532 
 195   0.0000       0.615413        16.7462 
 196   0.0000       0.621813        16.9204 
 197   0.0000       0.622444        16.9376 
 198   0.0000       0.636336        17.3156 
 199   0.0000       0.644959        17.5502 
 200   0.0000       0.646722        17.5982 
 201   0.0000       0.650492        17.7008 
 202   0.0000       0.658786        17.9265 
 203   0.0000       0.672863        18.3095 
 204   0.0000       0.676215        18.4008 
 205   0.0000       0.679203        18.4821 
 206   0.0000       0.685251        18.6466 
 207   0.0000       0.699263        19.0279 
 208   0.0000       0.699588        19.0368 
 209   0.0000       0.706354        19.2209 
 210   0.0000       0.724575        19.7167 
 211   0.0000       0.726150        19.7595 
 212   0.0000       0.759983        20.6802 
 213   0.0000       0.763310        20.7707 
 214   0.0000       0.849689        23.1212 
 215   0.0000       0.874086        23.7851 
 216   0.0000       0.891182        24.2503 
 217   0.0000       0.901972        24.5439 
 218   0.0000       0.907535        24.6953 
 219   0.0000       0.957776        26.0624 
 220   0.0000       0.964442        26.2438 
 221   0.0000       0.972730        26.4693 
 222   0.0000       0.985637        26.8205 
 223   0.0000       0.992685        27.0123 
 224   0.0000       1.009213        27.4621 
 225   0.0000       1.019710        27.7477 
 226   0.0000       1.033196        28.1147 
 227   0.0000       1.042857        28.3776 
 228   0.0000       1.064984        28.9797 
 229   0.0000       1.082136        29.4464 
 230   0.0000       1.109076        30.1795 
 231   0.0000       1.126399        30.6509 
 232   0.0000       1.146372        31.1944 
 233   0.0000       1.174838        31.9690 
 234   0.0000       1.176247        32.0073 
 235   0.0000       1.182217        32.1698 
 236   0.0000       1.205620        32.8066 
 237   0.0000       1.210864        32.9493 
 238   0.0000       1.215939        33.0874 
 239   0.0000       1.218751        33.1639 
 240   0.0000       1.233969        33.5780 
 241   0.0000       1.242677        33.8150 
 242   0.0000       1.270000        34.5584 
 243   0.0000       1.290811        35.1247 
 244   0.0000       1.300638        35.3922 
 245   0.0000       1.337515        36.3956 
 246   0.0000       1.377348        37.4795 
 247   0.0000       1.378640        37.5147 
 248   0.0000       1.415458        38.5166 
 249   0.0000       1.567999        42.6674 
 250   0.0000       1.584960        43.1290 
 251   0.0000       1.592485        43.3337 
 252   0.0000       1.594577        43.3907 
 253   0.0000       1.643786        44.7297 
 254   0.0000       1.646465        44.8026 
 255   0.0000       1.659682        45.1622 
 256   0.0000       1.682786        45.7909 
 257   0.0000       1.684199        45.8294 
 258   0.0000       1.688528        45.9472 
 259   0.0000       1.700770        46.2803 
 260   0.0000       1.710964        46.5577 
 261   0.0000       1.721085        46.8331 
 262   0.0000       1.728334        47.0304 
 263   0.0000       1.736849        47.2621 
 264   0.0000       1.747518        47.5524 
 265   0.0000       1.752879        47.6983 
 266   0.0000       1.753757        47.7222 
 267   0.0000       1.764089        48.0033 
 268   0.0000       1.766432        48.0671 
 269   0.0000       1.770728        48.1840 
 270   0.0000       1.774219        48.2790 
 271   0.0000       1.776401        48.3383 
 272   0.0000       1.782657        48.5085 
 273   0.0000       1.785598        48.5886 
 274   0.0000       1.790563        48.7237 
 275   0.0000       1.810790        49.2741 
 276   0.0000       1.827184        49.7202 
 277   0.0000       1.827879        49.7391 
 278   0.0000       1.831891        49.8483 
 279   0.0000       1.833064        49.8802 
 280   0.0000       1.836375        49.9703 
 281   0.0000       1.839482        50.0548 
 282   0.0000       1.842871        50.1471 
 283   0.0000       1.846813        50.2543 
 284   0.0000       1.848886        50.3108 
 285   0.0000       1.853071        50.4246 
 286   0.0000       1.853147        50.4267 
 287   0.0000       1.856605        50.5208 
 288   0.0000       1.860616        50.6299 
 289   0.0000       1.861295        50.6484 
 290   0.0000       1.864424        50.7335 
 291   0.0000       1.868064        50.8326 
 292   0.0000       1.869693        50.8769 
 293   0.0000       1.869705        50.8773 
 294   0.0000       1.874057        50.9957 
 295   0.0000       1.874395        51.0049 
 296   0.0000       1.874471        51.0070 
 297   0.0000       1.880107        51.1603 
 298   0.0000       1.880264        51.1646 
 299   0.0000       1.882672        51.2301 
 300   0.0000       1.883021        51.2396 
 301   0.0000       1.884763        51.2870 
 302   0.0000       1.888640        51.3925 
 303   0.0000       1.890476        51.4425 
 304   0.0000       1.893061        51.5128 
 305   0.0000       1.894304        51.5466 
 306   0.0000       1.894647        51.5560 
 307   0.0000       1.898425        51.6588 
 308   0.0000       1.900331        51.7106 
 309   0.0000       1.902060        51.7577 
 310   0.0000       1.902466        51.7687 
 311   0.0000       1.904412        51.8217 
 312   0.0000       1.904940        51.8361 
 313   0.0000       1.908229        51.9256 
 314   0.0000       1.911591        52.0170 
 315   0.0000       1.912059        52.0298 
 316   0.0000       1.915118        52.1130 
 317   0.0000       1.920527        52.2602 
 318   0.0000       1.923929        52.3528 
 319   0.0000       1.926654        52.4269 
 320   0.0000       1.931235        52.5516 
 321   0.0000       1.932070        52.5743 
 322   0.0000       1.933795        52.6212 
 323   0.0000       1.934393        52.6375 
 324   0.0000       1.934846        52.6498 
 325   0.0000       1.935969        52.6804 
 326   0.0000       1.938199        52.7411 
 327   0.0000       1.945549        52.9411 
 328   0.0000       1.945826        52.9486 
 329   0.0000       1.949888        53.0592 
 330   0.0000       1.951419        53.1008 
 331   0.0000       1.955544        53.2131 
 332   0.0000       1.955639        53.2157 
 333   0.0000       1.956720        53.2451 
 334   0.0000       1.963349        53.4254 
 335   0.0000       1.964756        53.4637 
 336   0.0000       1.967802        53.5466 
 337   0.0000       1.976873        53.7934 
 338   0.0000       1.979060        53.8530 
 339   0.0000       1.981779        53.9269 
 340   0.0000       1.981860        53.9292 
 341   0.0000       1.984899        54.0118 
 342   0.0000       1.993164        54.2367 
 343   0.0000       1.993930        54.2576 
 344   0.0000       1.996840        54.3368 
 345   0.0000       2.017245        54.8920 
 346   0.0000       2.026328        55.1392 
 347   0.0000       2.036471        55.4152 
 348   0.0000       2.039780        55.5052 
 349   0.0000       2.060971        56.0819 
 350   0.0000       2.068167        56.2777 
 351   0.0000       2.081828        56.6494 
 352   0.0000       2.089939        56.8701 
 353   0.0000       2.090243        56.8784 
 354   0.0000       2.094647        56.9983 
 355   0.0000       2.105728        57.2998 
 356   0.0000       2.131670        58.0057 
 357   0.0000       2.197573        59.7990 
 358   0.0000       2.208771        60.1037 
 359   0.0000       2.221631        60.4536 
 360   0.0000       2.251237        61.2593 
 361   0.0000       2.253705        61.3264 
 362   0.0000       2.261339        61.5342 
 363   0.0000       2.288249        62.2664 
 364   0.0000       2.308096        62.8065 
 365   0.0000       2.318492        63.0894 
 366   0.0000       2.356956        64.1360 
 367   0.0000       2.381562        64.8056 
 368   0.0000       2.414748        65.7086 
 369   0.0000       2.470868        67.2357 
 370   0.0000       2.516741        68.4840 
 371   0.0000       2.571641        69.9779 
 372   0.0000       2.667856        72.5961 
 373   0.0000       2.754307        74.9485 
 374   0.0000       2.768660        75.3391 
 375   0.0000       2.791411        75.9582 
 376   0.0000       2.860735        77.8446 
 377   0.0000       2.895222        78.7830 
 378   0.0000       2.927611        79.6643 
 379   0.0000       2.964777        80.6757 
 380   0.0000       2.966597        80.7252 
 381   0.0000       3.019745        82.1714 
 382   0.0000       3.384467        92.0960 
 383   0.0000       3.850780       104.7850 
 384   0.0000       3.850924       104.7890 
 385   0.0000       3.859918       105.0337 
 386   0.0000       3.863902       105.1421 
 387   0.0000       3.867440       105.2384 
 388   0.0000       3.882656       105.6525 
 389   0.0000       3.885004       105.7163 
 390   0.0000       3.935146       107.0808 
 391   0.0000       3.948610       107.4471 
 392   0.0000       4.053493       110.3011 
 393   0.0000       4.095231       111.4369 
 394   0.0000       4.127902       112.3259 
 395   0.0000      24.279235       660.6716 
 396   0.0000      24.319008       661.7538 
 397   0.0000      24.352965       662.6779 
 398   0.0000      24.632098       670.2735 
 399   0.0000      24.801737       674.8896 
 400   0.0000      25.104929       683.1398 
 401   0.0000      25.119524       683.5370 
 402   0.0000      25.238314       686.7695 
 403   0.0000      25.350553       689.8236 
 404   0.0000      25.461847       692.8521 
 405   0.0000      25.581462       696.1070 
 406   0.0000      25.927880       705.5335 
 407   0.0000      26.050813       708.8787 
 408   0.0000      26.143077       711.3893 
 409   0.0000      26.521431       721.6848 
 410   0.0000      26.768214       728.4001 
 411   0.0000      26.941369       733.1119 
 412   0.0000      27.011435       735.0185 
 413   0.0000      27.162391       739.1262 
 414   0.0000      27.441263       746.7147 
 415   0.0000      27.515915       748.7461 
 416   0.0000      27.821087       757.0503 
 417   0.0000      27.961265       760.8647 
 418   0.0000      28.150352       766.0100 
 419   0.0000      28.280324       769.5467 
 420   0.0000      28.387197       772.4549 
 421   0.0000      28.673159       780.2363 
 422   0.0000      28.832149       784.5627 
 423   0.0000      29.134211       792.7822 
 424   0.0000      29.229940       795.3871 
 425   0.0000      44.499106      1210.8822 
 426   0.0000      44.574715      1212.9397 
 427   0.0000      44.627205      1214.3680 
 428   0.0000      44.659163      1215.2376 
 429   0.0000      44.720465      1216.9057 
 430   0.0000      44.732612      1217.2362 
 431   0.0000      44.768890      1218.2234 
 432   0.0000      44.777193      1218.4494 
 433   0.0000      44.806307      1219.2416 
 434   0.0000      44.842156      1220.2171 
 435   0.0000     205.381999      5588.7283 
 436   0.0000     205.404986      5589.3538 
 437   0.0000     205.432710      5590.1082 
 438   0.0000     205.446885      5590.4940 
 439   0.0000     205.472870      5591.2011 
 440   0.0000     205.473134      5591.2082 
 441   0.0000     205.485172      5591.5358 
 442   0.0000     205.495291      5591.8111 
 443   0.0000     205.503979      5592.0476 
 444   0.0000     205.525866      5592.6431 


---------------------------------------------
CAS-SCF STATES FOR BLOCK  1 MULT= 6 NROOTS= 1
---------------------------------------------

ROOT   0:  E=   -2497.8707413024 Eh
      1.00000 [     0]: 11111


---------------------------------------------
CAS-SCF STATES FOR BLOCK  2 MULT= 4 NROOTS=24
---------------------------------------------

ROOT   0:  E=   -2497.8690338552 Eh
      0.15107 [     8]: 11201
      0.14054 [    12]: 11021
      0.12803 [     5]: 12101
      0.12518 [     6]: 12011
      0.10789 [    10]: 11111
      0.07135 [    14]: 10211
      0.06818 [    15]: 10121
      0.04117 [    11]: 11102
      0.04016 [    13]: 11012
      0.03802 [     7]: 11210
      0.03634 [     9]: 11120
      0.03191 [     4]: 12110
      0.01911 [    16]: 10112
ROOT   1:  E=   -2497.7722464569 Eh  2.634 eV  21242.4 cm**-1
      0.47771 [    10]: 11111
      0.17858 [     7]: 11210
      0.17687 [    13]: 11012
      0.02910 [     6]: 12011
      0.02782 [     5]: 12101
      0.02201 [    11]: 11102
      0.01946 [     9]: 11120
      0.01475 [     0]: 21110
      0.01424 [    14]: 10211
      0.01346 [    20]: 01112
      0.01210 [    15]: 10121
      0.00379 [     8]: 11201
      0.00294 [    12]: 11021
ROOT   2:  E=   -2497.7715384896 Eh  2.653 eV  21397.8 cm**-1
      0.27584 [     4]: 12110
      0.20558 [    16]: 10112
      0.11183 [    17]: 02111
      0.06408 [    11]: 11102
      0.06210 [     6]: 12011
      0.05249 [     3]: 20111
      0.05091 [    14]: 10211
      0.04354 [     9]: 11120
      0.02833 [    10]: 11111
      0.02282 [    13]: 11012
      0.01664 [     8]: 11201
      0.01650 [    19]: 01121
      0.01584 [     1]: 21101
      0.00941 [    12]: 11021
      0.00823 [     2]: 21011
      0.00712 [     7]: 11210
      0.00618 [    18]: 01211
ROOT   3:  E=   -2497.7706944888 Eh  2.676 eV  21583.0 cm**-1
      0.40461 [    10]: 11111
      0.12467 [     9]: 11120
      0.11235 [    11]: 11102
      0.09098 [    12]: 11021
      0.08649 [     8]: 11201
      0.04094 [    20]: 01112
      0.03312 [     7]: 11210
      0.02672 [    13]: 11012
      0.02634 [     0]: 21110
      0.02394 [    19]: 01121
      0.00686 [     4]: 12110
      0.00660 [     1]: 21101
      0.00614 [    16]: 10112
      0.00581 [    18]: 01211
ROOT   4:  E=   -2497.7692953122 Eh  2.714 eV  21890.1 cm**-1
      0.19898 [    10]: 11111
      0.13435 [    20]: 01112
      0.08274 [    18]: 01211
      0.06859 [     5]: 12101
      0.06591 [    12]: 11021
      0.06178 [     0]: 21110
      0.05783 [     8]: 11201
      0.05772 [    11]: 11102
      0.05354 [     9]: 11120
      0.05244 [    13]: 11012
      0.04639 [     2]: 21011
      0.04334 [     7]: 11210
      0.03992 [    15]: 10121
      0.01254 [    19]: 01121
      0.01012 [     1]: 21101
      0.00925 [     6]: 12011
ROOT   5:  E=   -2497.7569096251 Eh  3.051 eV  24608.4 cm**-1
      0.21511 [    10]: 11111
      0.17093 [     5]: 12101
      0.16319 [     6]: 12011
      0.12574 [    15]: 10121
      0.11570 [    14]: 10211
      0.07796 [     4]: 12110
      0.05574 [    16]: 10112
      0.01522 [    17]: 02111
      0.01302 [    11]: 11102
      0.01110 [     3]: 20111
      0.00947 [    13]: 11012
      0.00832 [     7]: 11210
      0.00709 [     8]: 11201
      0.00416 [     9]: 11120
ROOT   6:  E=   -2497.7521946285 Eh  3.179 eV  25643.2 cm**-1
      0.52287 [    17]: 02111
      0.09141 [    16]: 10112
      0.07983 [     3]: 20111
      0.07468 [    19]: 01121
      0.05203 [    14]: 10211
      0.02904 [    11]: 11102
      0.02554 [     6]: 12011
      0.02532 [     1]: 21101
      0.02253 [    10]: 11111
      0.01826 [    18]: 01211
      0.01169 [     5]: 12101
      0.01094 [    13]: 11012
      0.01000 [     8]: 11201
      0.00896 [     2]: 21011
      0.00858 [     4]: 12110
      0.00360 [    15]: 10121
ROOT   7:  E=   -2497.7503282017 Eh  3.230 eV  26052.9 cm**-1
      0.27448 [    19]: 01121
      0.22324 [    18]: 01211
      0.10366 [    11]: 11102
      0.08392 [    10]: 11111
      0.07583 [    13]: 11012
      0.07038 [     1]: 21101
      0.05838 [    20]: 01112
      0.04778 [     2]: 21011
      0.02823 [     0]: 21110
      0.00804 [    17]: 02111
      0.00570 [    12]: 11021
      0.00475 [    16]: 10112
      0.00464 [     7]: 11210
      0.00443 [     8]: 11201
ROOT   8:  E=   -2497.7404301729 Eh  3.499 eV  28225.2 cm**-1
      0.85387 [    10]: 11111
      0.02880 [     2]: 21011
      0.02219 [     1]: 21101
      0.02047 [    19]: 01121
      0.01884 [    18]: 01211
      0.00980 [    13]: 11012
      0.00915 [     8]: 11201
      0.00808 [     7]: 11210
      0.00789 [    12]: 11021
      0.00330 [    17]: 02111
      0.00300 [     3]: 20111
      0.00263 [     5]: 12101
ROOT   9:  E=   -2497.7365374499 Eh  3.605 eV  29079.6 cm**-1
      0.36222 [    20]: 01112
      0.16129 [    10]: 11111
      0.14152 [     0]: 21110
      0.08738 [    18]: 01211
      0.06312 [     8]: 11201
      0.06033 [    12]: 11021
      0.04818 [     5]: 12101
      0.02705 [     2]: 21011
      0.02617 [    15]: 10121
      0.00737 [     9]: 11120
      0.00670 [     6]: 12011
ROOT  10:  E=   -2497.7350464282 Eh  3.646 eV  29406.8 cm**-1
      0.28263 [     4]: 12110
      0.18473 [     3]: 20111
      0.15369 [    16]: 10112
      0.10276 [     6]: 12011
      0.05553 [     1]: 21101
      0.05061 [    11]: 11102
      0.04208 [     9]: 11120
      0.03119 [    14]: 10211
      0.02232 [     2]: 21011
      0.02174 [    13]: 11012
      0.01334 [     7]: 11210
      0.01234 [    12]: 11021
      0.01193 [     8]: 11201
      0.00673 [    17]: 02111
      0.00421 [     0]: 21110
ROOT  11:  E=   -2497.7324934261 Eh  3.715 eV  29967.2 cm**-1
      0.22194 [     7]: 11210
      0.19668 [     9]: 11120
      0.15335 [    13]: 11012
      0.10416 [    11]: 11102
      0.10299 [     1]: 21101
      0.09948 [     2]: 21011
      0.03760 [     8]: 11201
      0.02562 [    12]: 11021
      0.01567 [    20]: 01112
      0.01517 [    10]: 11111
      0.00686 [     4]: 12110
      0.00596 [     0]: 21110
      0.00386 [    14]: 10211
      0.00297 [    19]: 01121
ROOT  12:  E=   -2497.6953262585 Eh  4.727 eV  38124.4 cm**-1
      0.22869 [     5]: 12101
      0.18756 [    15]: 10121
      0.11218 [     6]: 12011
      0.10587 [    14]: 10211
      0.07749 [    12]: 11021
      0.07253 [     8]: 11201
      0.06399 [     4]: 12110
      0.05869 [    16]: 10112
      0.02173 [    11]: 11102
      0.01843 [     9]: 11120
      0.01274 [    17]: 02111
      0.01208 [    10]: 11111
      0.01098 [     3]: 20111
      0.00746 [    13]: 11012
      0.00585 [     1]: 21101
      0.00275 [    19]: 01121
ROOT  13:  E=   -2497.6748860488 Eh  5.283 eV  42610.5 cm**-1
      0.33809 [     3]: 20111
      0.18790 [    17]: 02111
      0.11317 [     1]: 21101
      0.05588 [     4]: 12110
      0.05355 [    16]: 10112
      0.05245 [     2]: 21011
      0.04799 [    14]: 10211
      0.03691 [     6]: 12011
      0.01964 [     8]: 11201
      0.01837 [    11]: 11102
      0.01600 [    19]: 01121
      0.01186 [    15]: 10121
      0.01048 [    12]: 11021
      0.00960 [     5]: 12101
      0.00829 [    13]: 11012
      0.00527 [    10]: 11111
      0.00386 [    18]: 01211
      0.00379 [     9]: 11120
      0.00363 [     7]: 11210
      0.00315 [     0]: 21110
ROOT  14:  E=   -2497.6735894675 Eh  5.318 eV  42895.1 cm**-1
      0.27018 [     1]: 21101
      0.17721 [     2]: 21011
      0.14666 [    19]: 01121
      0.11742 [     0]: 21110
      0.09401 [    18]: 01211
      0.06671 [    20]: 01112
      0.02751 [    13]: 11012
      0.02499 [     7]: 11210
      0.02147 [    11]: 11102
      0.02019 [     9]: 11120
      0.01060 [     3]: 20111
      0.00838 [    12]: 11021
      0.00616 [    17]: 02111
ROOT  15:  E=   -2497.6727215431 Eh  5.342 eV  43085.6 cm**-1
      0.50677 [     0]: 21110
      0.20961 [    20]: 01112
      0.15995 [     2]: 21011
      0.07632 [    18]: 01211
      0.01059 [     7]: 11210
      0.00729 [     9]: 11120
      0.00476 [    10]: 11111
      0.00439 [    11]: 11102
      0.00396 [     1]: 21101
      0.00392 [    12]: 11021
      0.00355 [    13]: 11012
      0.00337 [    19]: 01121
ROOT  16:  E=   -2497.5750773656 Eh  7.999 eV  64516.0 cm**-1
      0.38566 [    19]: 01121
      0.36692 [    18]: 01211
      0.11497 [    17]: 02111
      0.09161 [    20]: 01112
      0.01406 [    10]: 11111
      0.00803 [    12]: 11021
      0.00755 [     8]: 11201
ROOT  17:  E=   -2497.5648123211 Eh  8.278 eV  66768.9 cm**-1
      0.28703 [     9]: 11120
      0.27624 [     7]: 11210
      0.16806 [    10]: 11111
      0.10173 [    12]: 11021
      0.09607 [     4]: 12110
      0.03293 [     6]: 12011
      0.02509 [    13]: 11012
      0.00383 [     8]: 11201
ROOT  18:  E=   -2497.5601851078 Eh  8.404 eV  67784.5 cm**-1
      0.31109 [    10]: 11111
      0.18102 [     8]: 11201
      0.13030 [    12]: 11021
      0.07025 [     9]: 11120
      0.06538 [     7]: 11210
      0.05749 [     5]: 12101
      0.04616 [    11]: 11102
      0.04056 [     6]: 12011
      0.02899 [    13]: 11012
      0.02219 [     4]: 12110
      0.01289 [    19]: 01121
      0.01211 [    18]: 01211
      0.00887 [    15]: 10121
      0.00440 [    14]: 10211
      0.00406 [    17]: 02111
      0.00303 [    20]: 01112
ROOT  19:  E=   -2497.5580090494 Eh  8.463 eV  68262.1 cm**-1
      0.29204 [    15]: 10121
      0.28818 [    14]: 10211
      0.22168 [    10]: 11111
      0.07453 [    16]: 10112
      0.06092 [     8]: 11201
      0.02320 [    12]: 11021
      0.01491 [    11]: 11102
      0.01336 [     5]: 12101
      0.00461 [    13]: 11012
      0.00259 [     6]: 12011
ROOT  20:  E=   -2497.4872688130 Eh 10.388 eV  83787.7 cm**-1
      0.23211 [    13]: 11012
      0.21535 [    11]: 11102
      0.21173 [    16]: 10112
      0.13783 [    10]: 11111
      0.06694 [     8]: 11201
      0.06648 [    14]: 10211
      0.02028 [     7]: 11210
      0.01446 [     2]: 21011
      0.01355 [     1]: 21101
      0.01205 [     3]: 20111
      0.00389 [     0]: 21110
ROOT  21:  E=   -2497.4788600682 Eh 10.617 eV  85633.2 cm**-1
      0.26986 [    10]: 11111
      0.22928 [     6]: 12011
      0.21663 [     5]: 12101
      0.08007 [    15]: 10121
      0.07034 [    12]: 11021
      0.06212 [     4]: 12110
      0.02550 [    14]: 10211
      0.01994 [     9]: 11120
      0.01611 [     8]: 11201
      0.00543 [     7]: 11210
ROOT  22:  E=   -2497.4786166053 Eh 10.624 eV  85686.7 cm**-1
      0.26024 [    10]: 11111
      0.13564 [    12]: 11021
      0.12884 [    15]: 10121
      0.10153 [    14]: 10211
      0.09772 [     8]: 11201
      0.05441 [    13]: 11012
      0.05134 [    16]: 10112
      0.04984 [    11]: 11102
      0.03720 [     9]: 11120
      0.02997 [     7]: 11210
      0.01041 [     2]: 21011
      0.00997 [     6]: 12011
      0.00976 [     3]: 20111
      0.00956 [     1]: 21101
      0.00732 [     5]: 12101
      0.00290 [     0]: 21110
      0.00284 [     4]: 12110
ROOT  23:  E=   -2497.4667235882 Eh 10.947 eV  88296.9 cm**-1
      0.29260 [     2]: 21011
      0.27840 [     3]: 20111
      0.26995 [     1]: 21101
      0.08090 [     0]: 21110
      0.02149 [    10]: 11111
      0.01299 [    14]: 10211
      0.01207 [     8]: 11201
      0.00629 [    12]: 11021
      0.00622 [    15]: 10121
      0.00422 [    16]: 10112
      0.00396 [    13]: 11012
      0.00356 [    11]: 11102
      0.00329 [     7]: 11210


-----------------------------
SA-CASSCF TRANSITION ENERGIES
------------------------------

LOWEST ROOT (ROOT 0 ,MULT 6) =  -2497.870741302 Eh -67970.518 eV

STATE   ROOT MULT  DE/a.u.    DE/eV    DE/cm**-1
   1:    0    4   0.001707     0.046    374.7
   2:    1    4   0.098495     2.680  21617.1
   3:    2    4   0.099203     2.699  21772.5
   4:    3    4   0.100047     2.722  21957.7
   5:    4    4   0.101446     2.760  22264.8
   6:    5    4   0.113832     3.098  24983.2
   7:    6    4   0.118547     3.226  26018.0
   8:    7    4   0.120413     3.277  26427.6
   9:    8    4   0.130311     3.546  28600.0
  10:    9    4   0.134204     3.652  29454.3
  11:   10    4   0.135695     3.692  29781.6
  12:   11    4   0.138248     3.762  30341.9
  13:   12    4   0.175415     4.773  38499.2
  14:   13    4   0.195855     5.329  42985.3
  15:   14    4   0.197152     5.365  43269.8
  16:   15    4   0.198020     5.388  43460.3
  17:   16    4   0.295664     8.045  64890.7
  18:   17    4   0.305929     8.325  67143.7
  19:   18    4   0.310556     8.451  68159.2
  20:   19    4   0.312732     8.510  68636.8
  21:   20    4   0.383472    10.435  84162.5
  22:   21    4   0.391881    10.664  86008.0
  23:   22    4   0.392125    10.670  86061.4
  24:   23    4   0.404018    10.994  88671.6


--------------
DENSITY MATRIX
--------------

                  0          1          2          3          4    
      0       1.000000  -0.000000  -0.000000   0.000000   0.000000
      1      -0.000000   1.000000   0.000000   0.000000   0.000000
      2      -0.000000   0.000000   1.000000  -0.000000   0.000000
      3       0.000000   0.000000  -0.000000   1.000000   0.000000
      4       0.000000   0.000000   0.000000   0.000000   1.000000
Trace of the electron density:  5.000000
Extracting Spin-Density from 2-RDM (MULT=6) ... done
Extracting Spin-Density from 2-RDM (MULT=4) ... done

-------------------
SPIN-DENSITY MATRIX
-------------------

                  0          1          2          3          4    
      0       0.800000   0.000000   0.000000   0.000000   0.000000
      1       0.000000   0.800000  -0.000000  -0.000000  -0.000000
      2       0.000000  -0.000000   0.800000  -0.000000  -0.000000
      3       0.000000  -0.000000  -0.000000   0.800000   0.000000
[...]
 3 96  185593.5     53.9   0.000005231   0.00025   0.01243   0.00371   0.00921
 3 97  185593.5     53.9   0.000207037   0.01002   0.07827   0.02334   0.05790
 3 98  764379.9     13.1   0.000137265   0.00161   0.01840   0.01818   0.03073
 3 99  764379.9     13.1   0.000119582   0.00141   0.01716   0.01698   0.02869
 3 100  764380.0     13.1   0.000078623   0.00092   0.01389   0.01375   0.02329
 3 101  764380.0     13.1   0.000015323   0.00018   0.00622   0.00611   0.01021
 4  5       0.0      0.0   0.000000000   0.00000   0.00000   0.00000   0.00000
 4  6       0.8   12286655.2   0.000000000   0.00000   0.00000   0.00000   0.00000
 4  7       0.8   12286653.7   0.000000000   0.00000   0.00000   0.00000   0.00000
 4  8   23874.8    418.9   0.000000004   0.00003   0.00423   0.00126   0.00304
 4  9   23874.8    418.9   0.000000000   0.00000   0.00099   0.00074   0.00112
 4 10   23936.2    417.8   0.000000186   0.00122   0.02623   0.00997   0.02071
 4 11   23936.2    417.8   0.000000206   0.00135   0.02967   0.00575   0.02081
 4 12   24196.9    413.3   0.000000041   0.00027   0.00945   0.01327   0.00151
 4 13   24196.9    413.3   0.000000043   0.00028   0.00680   0.01332   0.00732
 4 14   24258.5    412.2   0.000000001   0.00001   0.00189   0.00166   0.00153
 4 15   24258.5    412.2   0.000000000   0.00000   0.00104   0.00086   0.00019
 4 16   76564.6    130.6   0.000610536   1.24963   0.88185   0.24199   0.64297
 4 17   76564.6    130.6   0.000622961   1.27506   0.89121   0.24488   0.64871
 4 18   76565.5    130.6   0.000000639   0.00131   0.02902   0.00847   0.01983
 4 19   76565.5    130.6   0.000001317   0.00270   0.04058   0.01090   0.03050
 4 20   77608.3    128.9   0.000000014   0.00003   0.00304   0.00216   0.00369
 4 21   77608.3    128.9   0.000000015   0.00003   0.00209   0.00250   0.00436
 4 22   77610.0    128.8   0.000001251   0.00253   0.02308   0.02270   0.03844
 4 23   77610.0    128.8   0.000001405   0.00284   0.02380   0.02349   0.04146
 4 24   77997.4    128.2   0.000000001   0.00000   0.00052   0.00056   0.00102
 4 25   77997.4    128.2   0.000000000   0.00000   0.00057   0.00039   0.00063
 4 26   78000.9    128.2   0.000000006   0.00001   0.00155   0.00156   0.00279
 4 27   78000.9    128.2   0.000000010   0.00002   0.00203   0.00199   0.00342
 4 28   78003.4    128.2   0.000000020   0.00004   0.00318   0.00291   0.00475
 4 29   78003.4    128.2   0.000000009   0.00002   0.00150   0.00169   0.00349
 4 30   97030.7    103.1   0.000003231   0.00522   0.03220   0.03201   0.05619
 4 31   97030.7    103.1   0.000003077   0.00497   0.03117   0.03117   0.05501
 4 32   97033.0    103.1   0.000009311   0.01504   0.05357   0.05404   0.09616
 4 33   97033.0    103.1   0.000012526   0.02023   0.06392   0.06315   0.11026
 4 34   97428.4    102.6   0.000000693   0.00111   0.02638   0.00726   0.01913
 4 35   97428.4    102.6   0.000000743   0.00119   0.02723   0.00745   0.01994
 4 36   97429.4    102.6   0.000007126   0.01146   0.08441   0.02312   0.06166
 4 37   97429.4    102.6   0.000014874   0.02392   0.12207   0.03354   0.08887
 4 38   97777.6    102.3   0.000000364   0.00058   0.01969   0.00589   0.01268
 4 39   97777.6    102.3   0.000000598   0.00096   0.02413   0.00662   0.01825
 4 40   97780.4    102.3   0.000000003   0.00001   0.00158   0.00043   0.00154
 4 41   97780.4    102.3   0.000000003   0.00000   0.00163   0.00080   0.00108
 4 42   97858.5    102.2   0.000000001   0.00000   0.00091   0.00072   0.00073
 4 43   97858.5    102.2   0.000000000   0.00000   0.00021   0.00032   0.00081
 4 44   97861.5    102.2   0.000000002   0.00000   0.00045   0.00065   0.00134
 4 45   97861.5    102.2   0.000000002   0.00000   0.00133   0.00083   0.00062
 4 46   99372.4    100.6   0.000000017   0.00003   0.00164   0.00210   0.00450
 4 47   99372.4    100.6   0.000000035   0.00006   0.00384   0.00446   0.00457
 4 48   99386.5    100.6   0.000000059   0.00009   0.00333   0.00448   0.00787
 4 49   99386.5    100.6   0.000000074   0.00012   0.00698   0.00385   0.00725
 4 50   99551.3    100.5   0.000115516   0.18184   0.19175   0.18958   0.33035
 4 51   99551.3    100.5   0.000024495   0.03856   0.08137   0.08541   0.15698
 4 52   99560.2    100.4   0.000018082   0.02846   0.07550   0.07496   0.13093
 4 53   99560.2    100.4   0.000029835   0.04696   0.09547   0.09584   0.16930
 4 54  100753.7     99.3   0.000000790   0.00123   0.02820   0.00823   0.01911
 4 55  100753.7     99.3   0.000000645   0.00100   0.02355   0.00718   0.01991
 4 56  100790.2     99.2   0.000000169   0.00026   0.01315   0.00456   0.00828
 4 57  100790.2     99.2   0.000000063   0.00010   0.00546   0.00183   0.00801
 4 58  101567.7     98.5   0.000036604   0.05648   0.18674   0.05069   0.13797
 4 59  101567.7     98.5   0.000068688   0.10598   0.25725   0.07100   0.18644
 4 60  101760.1     98.3   0.000002430   0.00374   0.04823   0.01327   0.03521
 4 61  101760.1     98.3   0.000002447   0.00377   0.04785   0.01408   0.03578
 4 62  101874.0     98.2   0.000360691   0.55484   0.58772   0.16138   0.42823
 4 63  101874.0     98.2   0.000189654   0.29174   0.42633   0.11717   0.31025
 4 64  101912.3     98.1   0.000055620   0.08553   0.23078   0.06343   0.16806
 4 65  101912.3     98.1   0.000268286   0.41254   0.50688   0.13922   0.36910
 4 66  102182.7     97.9   0.000018458   0.02831   0.13344   0.03724   0.09547
 4 67  102182.7     97.9   0.000006059   0.00929   0.07453   0.01952   0.05793
 4 68  102386.2     97.7   0.000039354   0.06023   0.18728   0.05054   0.15036
 4 69  102386.2     97.7   0.000019003   0.02909   0.14035   0.04330   0.08668
 4 70  103093.4     97.0   0.000000257   0.00039   0.01592   0.00461   0.01078
 4 71  103093.4     97.0   0.000000118   0.00018   0.01001   0.00255   0.00855
 4 72  103182.4     96.9   0.000003908   0.00594   0.06082   0.01673   0.04423
 4 73  103182.4     96.9   0.000001173   0.00178   0.03319   0.00947   0.02429
 4 74  103484.4     96.6   0.000000001   0.00000   0.00074   0.00014   0.00053
 4 75  103484.4     96.6   0.000000004   0.00001   0.00207   0.00053   0.00149
 4 76  103485.2     96.6   0.000000046   0.00007   0.00666   0.00157   0.00471
 4 77  103485.2     96.6   0.000000072   0.00011   0.00835   0.00194   0.00600
 4 78  108161.5     92.5   0.000000016   0.00002   0.00288   0.00200   0.00319
 4 79  108161.5     92.5   0.000000033   0.00005   0.00293   0.00299   0.00554
 4 80  108166.8     92.4   0.000000017   0.00002   0.00382   0.00239   0.00202
 4 81  108166.8     92.4   0.000000026   0.00004   0.00319   0.00149   0.00503
 4 82  110796.8     90.3   0.000007162   0.01013   0.04656   0.04538   0.07684
 4 83  110796.8     90.3   0.000000740   0.00105   0.01026   0.01288   0.02785
 4 84  110800.4     90.3   0.000014173   0.02005   0.06067   0.06277   0.11147
 4 85  110800.4     90.3   0.000028356   0.04011   0.09095   0.09019   0.15394
 4 86  112648.3     88.8   0.000001790   0.00249   0.03941   0.01084   0.02862
 4 87  112648.3     88.8   0.000000596   0.00083   0.02263   0.00619   0.01671
 4 88  112662.2     88.8   0.000002608   0.00363   0.04689   0.01245   0.03569
 4 89  112662.2     88.8   0.000002857   0.00397   0.05021   0.01431   0.03532
 4 90  112957.4     88.5   0.000000003   0.00000   0.00122   0.00025   0.00150
 4 91  112957.4     88.5   0.000000000   0.00000   0.00028   0.00014   0.00037
 4 92  112973.3     88.5   0.000000007   0.00001   0.00185   0.00039   0.00241
 4 93  112973.3     88.5   0.000000004   0.00001   0.00186   0.00053   0.00125
 4 94  184997.1     54.1   0.000039721   0.03365   0.14501   0.04001   0.10498
 4 95  184997.1     54.1   0.000049575   0.04199   0.16167   0.04438   0.11785
 4 96  184997.4     54.1   0.000000113   0.00010   0.00785   0.00227   0.00535
 4 97  184997.4     54.1   0.000000135   0.00011   0.00824   0.00216   0.00646
 4 98  763783.8     13.1   0.000000005   0.00000   0.00046   0.00043   0.00083
 4 99  763783.8     13.1   0.000000002   0.00000   0.00035   0.00027   0.00038
 4 100  763783.9     13.1   0.000000731   0.00015   0.00577   0.00528   0.00942
 4 101  763783.9     13.1   0.000001463   0.00030   0.00834   0.00751   0.01320
 5  6       0.8   12286655.2   0.000000000   0.00000   0.00000   0.00000   0.00000
 5  7       0.8   12286653.7   0.000000000   0.00000   0.00000   0.00000   0.00000
 5  8   23874.8    418.9   0.000000000   0.00000   0.00099   0.00074   0.00112
 5  9   23874.8    418.9   0.000000004   0.00003   0.00423   0.00126   0.00304
 5 10   23936.2    417.8   0.000000206   0.00135   0.02967   0.00575   0.02081
 5 11   23936.2    417.8   0.000000186   0.00122   0.02623   0.00997   0.02071
 5 12   24196.9    413.3   0.000000043   0.00028   0.00680   0.01332   0.00732
 5 13   24196.9    413.3   0.000000041   0.00027   0.00945   0.01327   0.00151
 5 14   24258.5    412.2   0.000000000   0.00000   0.00104   0.00086   0.00019
 5 15   24258.5    412.2   0.000000001   0.00001   0.00189   0.00166   0.00153
 5 16   76564.6    130.6   0.000622961   1.27506   0.89121   0.24488   0.64871
 5 17   76564.6    130.6   0.000610536   1.24963   0.88185   0.24199   0.64297
 5 18   76565.5    130.6   0.000001317   0.00270   0.04058   0.01090   0.03050
 5 19   76565.5    130.6   0.000000639   0.00131   0.02902   0.00847   0.01983
 5 20   77608.3    128.9   0.000000015   0.00003   0.00209   0.00250   0.00436
 5 21   77608.3    128.9   0.000000014   0.00003   0.00304   0.00216   0.00369
 5 22   77610.0    128.8   0.000001405   0.00284   0.02380   0.02349   0.04146
 5 23   77610.0    128.8   0.000001251   0.00253   0.02308   0.02270   0.03844
 5 24   77997.4    128.2   0.000000000   0.00000   0.00057   0.00039   0.00063
 5 25   77997.4    128.2   0.000000001   0.00000   0.00052   0.00056   0.00102
 5 26   78000.9    128.2   0.000000010   0.00002   0.00203   0.00199   0.00342
 5 27   78000.9    128.2   0.000000006   0.00001   0.00155   0.00156   0.00279
 5 28   78003.4    128.2   0.000000009   0.00002   0.00150   0.00169   0.00349
 5 29   78003.4    128.2   0.000000020   0.00004   0.00318   0.00291   0.00475
 5 30   97030.7    103.1   0.000003077   0.00497   0.03117   0.03117   0.05501
 5 31   97030.7    103.1   0.000003231   0.00522   0.03220   0.03201   0.05619
 5 32   97033.0    103.1   0.000012526   0.02023   0.06392   0.06315   0.11026
 5 33   97033.0    103.1   0.000009311   0.01504   0.05357   0.05404   0.09616
 5 34   97428.4    102.6   0.000000743   0.00119   0.02723   0.00745   0.01994
 5 35   97428.4    102.6   0.000000693   0.00111   0.02638   0.00726   0.01913
 5 36   97429.4    102.6   0.000014874   0.02392   0.12207   0.03354   0.08887
 5 37   97429.4    102.6   0.000007126   0.01146   0.08441   0.02312   0.06166
 5 38   97777.6    102.3   0.000000598   0.00096   0.02413   0.00662   0.01825
 5 39   97777.6    102.3   0.000000364   0.00058   0.01969   0.00589   0.01268
 5 40   97780.4    102.3   0.000000003   0.00000   0.00163   0.00080   0.00108
 5 41   97780.4    102.3   0.000000003   0.00001   0.00158   0.00043   0.00154
 5 42   97858.5    102.2   0.000000000   0.00000   0.00021   0.00032   0.00081
 5 43   97858.5    102.2   0.000000001   0.00000   0.00091   0.00072   0.00073
 5 44   97861.5    102.2   0.000000002   0.00000   0.00133   0.00083   0.00062
 5 45   97861.5    102.2   0.000000002   0.00000   0.00045   0.00065   0.00134
 5 46   99372.4    100.6   0.000000035   0.00006   0.00384   0.00446   0.00457
 5 47   99372.4    100.6   0.000000017   0.00003   0.00164   0.00210   0.00450
 5 48   99386.5    100.6   0.000000074   0.00012   0.00698   0.00385   0.00725
 5 49   99386.5    100.6   0.000000059   0.00009   0.00333   0.00448   0.00787
 5 50   99551.3    100.5   0.000024495   0.03856   0.08137   0.08541   0.15698
 5 51   99551.3    100.5   0.000115516   0.18184   0.19175   0.18958   0.33035
 5 52   99560.2    100.4   0.000029835   0.04696   0.09547   0.09584   0.16930
 5 53   99560.2    100.4   0.000018082   0.02846   0.07550   0.07496   0.13093
 5 54  100753.7     99.3   0.000000645   0.00100   0.02355   0.00718   0.01991
 5 55  100753.7     99.3   0.000000790   0.00123   0.02820   0.00823   0.01911
 5 56  100790.2     99.2   0.000000063   0.00010   0.00546   0.00183   0.00801
 5 57  100790.2     99.2   0.000000169   0.00026   0.01315   0.00456   0.00828
 5 58  101567.7     98.5   0.000068688   0.10598   0.25725   0.07100   0.18644
 5 59  101567.7     98.5   0.000036604   0.05648   0.18674   0.05069   0.13797
 5 60  101760.1     98.3   0.000002447   0.00377   0.04785   0.01408   0.03578
 5 61  101760.1     98.3   0.000002430   0.00374   0.04823   0.01327   0.03521
 5 62  101874.0     98.2   0.000189654   0.29174   0.42633   0.11717   0.31025
 5 63  101874.0     98.2   0.000360690   0.55484   0.58772   0.16138   0.42823
 5 64  101912.3     98.1   0.000268286   0.41254   0.50688   0.13922   0.36910
 5 65  101912.3     98.1   0.000055620   0.08553   0.23078   0.06343   0.16806
 5 66  102182.7     97.9   0.000006059   0.00929   0.07453   0.01952   0.05793
 5 67  102182.7     97.9   0.000018458   0.02831   0.13344   0.03724   0.09547
 5 68  102386.2     97.7   0.000019003   0.02909   0.14035   0.04330   0.08668
 5 69  102386.2     97.7   0.000039354   0.06023   0.18728   0.05054   0.15036
 5 70  103093.4     97.0   0.000000118   0.00018   0.01001   0.00255   0.00855
 5 71  103093.4     97.0   0.000000257   0.00039   0.01592   0.00461   0.01078
 5 72  103182.4     96.9   0.000001173   0.00178   0.03319   0.00947   0.02429
 5 73  103182.4     96.9   0.000003908   0.00594   0.06082   0.01673   0.04423
 5 74  103484.4     96.6   0.000000004   0.00001   0.00207   0.00053   0.00149
 5 75  103484.4     96.6   0.000000001   0.00000   0.00074   0.00014   0.00053
 5 76  103485.2     96.6   0.000000072   0.00011   0.00835   0.00194   0.00600
 5 77  103485.2     96.6   0.000000046   0.00007   0.00666   0.00157   0.00471
 5 78  108161.5     92.5   0.000000033   0.00005   0.00293   0.00299   0.00554
 5 79  108161.5     92.5   0.000000016   0.00002   0.00288   0.00200   0.00319
 5 80  108166.8     92.4   0.000000026   0.00004   0.00319   0.00149   0.00503
 5 81  108166.8     92.4   0.000000017   0.00002   0.00382   0.00239   0.00202
 5 82  110796.8     90.3   0.000000740   0.00105   0.01026   0.01288   0.02785
 5 83  110796.8     90.3   0.000007162   0.01013   0.04656   0.04538   0.07684
 5 84  110800.4     90.3   0.000028356   0.04011   0.09095   0.09019   0.15394
 5 85  110800.4     90.3   0.000014173   0.02005   0.06067   0.06277   0.11147
 5 86  112648.3     88.8   0.000000596   0.00083   0.02263   0.00619   0.01671
 5 87  112648.3     88.8   0.000001790   0.00249   0.03941   0.01084   0.02862
 5 88  112662.2     88.8   0.000002857   0.00397   0.05021   0.01431   0.03532
 5 89  112662.2     88.8   0.000002608   0.00363   0.04689   0.01245   0.03569
 5 90  112957.4     88.5   0.000000000   0.00000   0.00028   0.00014   0.00037
 5 91  112957.4     88.5   0.000000003   0.00000   0.00122   0.00025   0.00150
 5 92  112973.3     88.5   0.000000004   0.00001   0.00186   0.00053   0.00125
 5 93  112973.3     88.5   0.000000007   0.00001   0.00185   0.00039   0.00241
 5 94  184997.1     54.1   0.000049575   0.04199   0.16167   0.04438   0.11785
 5 95  184997.1     54.1   0.000039721   0.03365   0.14501   0.04001   0.10498
 5 96  184997.4     54.1   0.000000135   0.00011   0.00824   0.00216   0.00646
 5 97  184997.4     54.1   0.000000113   0.00010   0.00785   0.00227   0.00535
 5 98  763783.8     13.1   0.000000002   0.00000   0.00035   0.00027   0.00038
 5 99  763783.8     13.1   0.000000005   0.00000   0.00046   0.00043   0.00083
 5 100  763783.9     13.1   0.000001463   0.00030   0.00834   0.00751   0.01320
 5 101  763783.9     13.1   0.000000731   0.00015   0.00577   0.00528   0.00942

------------------------------------------------------------------------------
                           SOC CORRECTED DIPOLE MOMENTS
------------------------------------------------------------------------------
      TX        TY        TZ           |T|
   (Debye)   (Debye)   (Debye)      (Debye)
------------------------------------------------------------------------------
 -22.16059 -21.66921  38.51879     49.44031

--------------
CASSCF TIMINGS
--------------

Total time                       ...     1731.6 sec
Sum of individual times          ...     1734.5 sec (100.2%)

Calculation of AO operators
   F(Core) operator              ...       47.7 sec (  2.8%)
   G(Act) operator               ...       44.2 sec (  2.6%)
   J(AO) operators               ...        0.0 sec (  0.0%)
Calculation of MO transformed quantities
   J(MO) operators               ...        3.7 sec (  0.2%)
   (pq|rs) integrals             ...        0.0 sec (  0.0%)
   AO->MO one electron integrals ...        0.1 sec (  0.0%)
Configuration interaction steps
   CI-setup phase                ...        0.0 sec (  0.0%)
   CI-solution phase             ...        0.0 sec (  0.0%)
   Generation of densities       ...        0.0 sec (  0.0%)
Orbital improvement steps
   Orbital gradient              ...        0.1 sec (  0.0%)
PT2 
   NEVPT2 time                   ...     1620.4 sec ( 93.6%)
Properties                       ...        9.4 sec (  0.5%)
   SOC integral calculation      ...        8.8 sec (  0.5%)
   SSC RMEs (incl. integrals)    ...        0.0 sec (  0.0%)
   SOC RMEs                      ...        0.0 sec (  0.0%)

Maximum memory used throughout the entire CASSCF-calculation: 739.6 MB

-------------------------   --------------------
FINAL SINGLE POINT ENERGY     -2502.863629246735
-------------------------   --------------------


                            ***************************************
                            *     ORCA property calculations      *
                            ***************************************

                                    ---------------------
                                    Active property flags
                                    ---------------------
   (+) Dipole Moment


------------------------------------------------------------------------------
                       ORCA ELECTRIC PROPERTIES CALCULATION
------------------------------------------------------------------------------

Dipole Moment Calculation                       ... on
Quadrupole Moment Calculation                   ... off
Polarizability Calculation                      ... off
GBWName                                         ... nevpt2.gbw
Electron density                                ... nevpt2.scfp
The origin for moment calculation is the CENTER OF MASS  = (12.616071, 11.209004 13.811862)

-------------
DIPOLE MOMENT
-------------
                                X             Y             Z
Electronic contribution:      8.59070       8.40516     -14.93274
Nuclear contribution   :     -8.71847      -8.52515      15.15415
                        -----------------------------------------
Total Dipole Moment    :     -0.12777      -0.12000       0.22141
                        -----------------------------------------
Magnitude (a.u.)       :      0.28239
Magnitude (Debye)      :      0.71779



--------------------
Rotational spectrum 
--------------------
 
Rotational constants in cm-1:     0.002381     0.001214     0.001135 
Rotational constants in MHz :    71.382518    36.403831    34.039746 

 Dipole components along the rotational axes: 
x,y,z [a.u.] :     0.000263     0.005791     0.282335 
x,y,z [Debye]:     0.000668     0.014718     0.717639 

 

Timings for individual modules:

Sum of individual times         ...     1755.876 sec (=  29.265 min)
GTO integral calculation        ...       10.691 sec (=   0.178 min)   0.6 %
SCF iterations                  ...        9.228 sec (=   0.154 min)   0.5 %
CASSCF iterations               ...     1735.957 sec (=  28.933 min)  98.9 %
                             ****ORCA TERMINATED NORMALLY****
TOTAL RUN TIME: 0 days 0 hours 29 minutes 16 seconds 706 msec
