
                                 *****************
                                 * O   R   C   A *
                                 *****************

                                            #,                                       
                                            ###                                      
                                            ####                                     
                                            #####                                    
                                            ######                                   
                                           ########,                                 
                                     ,,################,,,,,                         
                               ,,#################################,,                 
                          ,,##########################################,,             
                       ,#########################################, ''#####,          
                    ,#############################################,,   '####,        
                  ,##################################################,,,,####,       
                ,###########''''           ''''###############################       
              ,#####''   ,,,,##########,,,,          '''####'''          '####       
            ,##' ,,,,###########################,,,                        '##       
           ' ,,###''''                  '''############,,,                           
         ,,##''                                '''############,,,,        ,,,,,,###''
      ,#''                                            '''#######################'''  
     '                                                          ''''####''''         
             ,#######,   #######,   ,#######,      ##                                
            ,#'     '#,  ##    ##  ,#'     '#,    #''#        ######   ,####,        
            ##       ##  ##   ,#'  ##            #'  '#       #        #'  '#        
            ##       ##  #######   ##           ,######,      #####,   #    #        
            '#,     ,#'  ##    ##  '#,     ,#' ,#      #,         ##   #,  ,#        
             '#######'   ##     ##  '#######'  #'      '#     #####' # '####'        



                  #######################################################
                  #                        -***-                        #
                  #          Department of theory and spectroscopy      #
                  #    Directorship and core code : Frank Neese         #
                  #        Max Planck Institute fuer Kohlenforschung    #
                  #                Kaiser Wilhelm Platz 1               #
                  #                 D-45470 Muelheim/Ruhr               #
                  #                      Germany                        #
                  #                                                     #
                  #                  All rights reserved                #
                  #                        -***-                        #
                  #######################################################


                         Program Version 5.0.3 -  RELEASE  -


 With contributions from (in alphabetic order):
   Daniel Aravena         : Magnetic Suceptibility
   Michael Atanasov       : Ab Initio Ligand Field Theory (pilot matlab implementation)
   Alexander A. Auer      : GIAO ZORA, VPT2 properties, NMR spectrum
   Ute Becker             : Parallelization
   Giovanni Bistoni       : ED, misc. LED, open-shell LED, HFLD
   Martin Brehm           : Molecular dynamics
   Dmytro Bykov           : SCF Hessian
   Vijay G. Chilkuri      : MRCI spin determinant printing, contributions to CSF-ICE
   Dipayan Datta          : RHF DLPNO-CCSD density
   Achintya Kumar Dutta   : EOM-CC, STEOM-CC
   Dmitry Ganyushin       : Spin-Orbit,Spin-Spin,Magnetic field MRCI
   Miquel Garcia          : C-PCM and meta-GGA Hessian, CC/C-PCM, Gaussian charge scheme
   Yang Guo               : DLPNO-NEVPT2, F12-NEVPT2, CIM, IAO-localization
   Andreas Hansen         : Spin unrestricted coupled pair/coupled cluster methods
   Benjamin Helmich-Paris : MC-RPA, TRAH-SCF, COSX integrals
   Lee Huntington         : MR-EOM, pCC
   Robert Izsak           : Overlap fitted RIJCOSX, COSX-SCS-MP3, EOM
   Marcus Kettner         : VPT2
   Christian Kollmar      : KDIIS, OOCD, Brueckner-CCSD(T), CCSD density, CASPT2, CASPT2-K
   Simone Kossmann        : Meta GGA functionals, TD-DFT gradient, OOMP2, MP2 Hessian
   Martin Krupicka        : Initial AUTO-CI
   Lucas Lang             : DCDCAS
   Marvin Lechner         : AUTO-CI (C++ implementation), FIC-MRCC
   Dagmar Lenk            : GEPOL surface, SMD
   Dimitrios Liakos       : Extrapolation schemes; Compound Job, initial MDCI parallelization
   Dimitrios Manganas     : Further ROCIS development; embedding schemes
   Dimitrios Pantazis     : SARC Basis sets
   Anastasios Papadopoulos: AUTO-CI, single reference methods and gradients
   Taras Petrenko         : DFT Hessian,TD-DFT gradient, ASA, ECA, R-Raman, ABS, FL, XAS/XES, NRVS
   Peter Pinski           : DLPNO-MP2, DLPNO-MP2 Gradient
   Christoph Reimann      : Effective Core Potentials
   Marius Retegan         : Local ZFS, SOC
   Christoph Riplinger    : Optimizer, TS searches, QM/MM, DLPNO-CCSD(T), (RO)-DLPNO pert. Triples
   Tobias Risthaus        : Range-separated hybrids, TD-DFT gradient, RPA, STAB
   Michael Roemelt        : Original ROCIS implementation
   Masaaki Saitow         : Open-shell DLPNO-CCSD energy and density
   Barbara Sandhoefer     : DKH picture change effects
   Avijit Sen             : IP-ROCIS
   Kantharuban Sivalingam : CASSCF convergence, NEVPT2, FIC-MRCI
   Bernardo de Souza      : ESD, SOC TD-DFT
   Georgi Stoychev        : AutoAux, RI-MP2 NMR, DLPNO-MP2 response
   Willem Van den Heuvel  : Paramagnetic NMR
   Boris Wezisla          : Elementary symmetry handling
   Frank Wennmohs         : Technical directorship


 We gratefully acknowledge several colleagues who have allowed us to
 interface, adapt or use parts of their codes:
   Stefan Grimme, W. Hujo, H. Kruse, P. Pracht,  : VdW corrections, initial TS optimization,
                  C. Bannwarth, S. Ehlert          DFT functionals, gCP, sTDA/sTD-DF
   Ed Valeev, F. Pavosevic, A. Kumar             : LibInt (2-el integral package), F12 methods
   Garnet Chan, S. Sharma, J. Yang, R. Olivares  : DMRG
   Ulf Ekstrom                                   : XCFun DFT Library
   Mihaly Kallay                                 : mrcc  (arbitrary order and MRCC methods)
   Jiri Pittner, Ondrej Demel                    : Mk-CCSD
   Frank Weinhold                                : gennbo (NPA and NBO analysis)
   Christopher J. Cramer and Donald G. Truhlar   : smd solvation model
   Lars Goerigk                                  : TD-DFT with DH, B97 family of functionals
   V. Asgeirsson, H. Jonsson                     : NEB implementation
   FAccTs GmbH                                   : IRC, NEB, NEB-TS, DLPNO-Multilevel, CI-OPT
                                                   MM, QMMM, 2- and 3-layer-ONIOM, Crystal-QMMM,
                                                   LR-CPCM, SF, NACMEs, symmetry and pop. for TD-DFT,
                                                   nearIR, NL-DFT gradient (VV10), updates on ESD,
                                                   ML-optimized integration grids
   S Lehtola, MJT Oliveira, MAL Marques          : LibXC Library
   Liviu Ungur et al                             : ANISO software


 Your calculation uses the libint2 library for the computation of 2-el integrals
 For citations please refer to: http://libint.valeyev.net

 Your ORCA version has been built with support for libXC version: 5.1.0
 For citations please refer to: https://tddft.org/programs/libxc/

 This ORCA versions uses:
   CBLAS   interface :  Fast vector & matrix operations
   LAPACKE interface :  Fast linear algebra routines
   SCALAPACK package :  Parallel linear algebra routines
   Shared memory     :  Shared parallel matrices
   BLAS/LAPACK       :  OpenBLAS 0.3.15  USE64BITINT DYNAMIC_ARCH NO_AFFINITY Haswell SINGLE_THREADED
        Core in use  :  Haswell
   Copyright (c) 2011-2014, The OpenBLAS Project




***************************************
The coordinates will be read from file: pbe.xyz
***************************************


================================================================================

cite the ECPs for Au [Def2-ECP] as follows:
Ce-Yb(ecp-28): M. Dolg, H. Stoll, H.Preuss, J. Chem. Phys., 1989, 90, 1730-1734.
Y-Cd(ecp-28), Hf-Hg(ecp-46): D. Andrae,U. Haeussermann, M. Dolg, H. Stoll, H. Preuss, Theor. Chim. Acta, 1990, 77, 123-141.
In-Sb(ecp-28), Tl-Bi(ecp-46): B. Metz, H. Stoll, M. Dolg, J. Chem. Phys., 2000, 113, 2563-2569.
Te-Xe(ecp-28), Po-Rn(ecp-46): K. A. Peterson, D. Figgen, E. Goll, H. Stoll, M. Dolg, J. Chem. Phys., 2003, 119, 11113-11123.
Rb(ecp-28), Cs(ecp-46): T. Leininger, A. Nicklass, W. Kuechle, H. Stoll, M. Dolg, A. Bergner, Chem. Phys. Lett., 1996, 255, 274-280.
Sr(ecp-28), Ba(ecp-46): M. Kaupp, P. V. Schleyer, H. Stoll and H. Preuss, J. Chem. Phys., 1991, 94, 1360-1366.
La(ecp-46): M. Dolg, H. Stoll, A. Savin, H. Preuss, Theor. Chim. Acta, 1989, 75, 173-194.
Lu(ecp-28): X. Cao, M. Dolg, J. Chem. Phys., 2001, 115, 7348-7355.

ECP parameters for Au [Def2-ECP] have been obtained from:
TURBOMOLE (7.0.2)

----- Orbital basis set information -----
Your calculation utilizes the basis: def2-TZVP
   F. Weigend and R. Ahlrichs, Phys. Chem. Chem. Phys. 7, 3297 (2005).

----- AuxJ basis set information -----
Your calculation utilizes the auxiliary basis: def2/J
   F. Weigend, Phys. Chem. Chem. Phys. 8, 1057 (2006).

----- AuxC basis set information -----
Your calculation utilizes the auxiliary basis: def2-TZVP/C
  H-La, Hf-Rn : A. Hellweg, C. Hattig, S. Hofener and W. Klopper, Theor. Chem. Acc. 117, 587 (2007).
        Ce-Lu : J. Chmela and M. E. Harding, Mol. Phys. (2018).

================================================================================
                                        WARNINGS
                       Please study these warnings very carefully!
================================================================================


WARNING: your system is open-shell and RHF/RKS was chosen
  ===> : WILL SWITCH to UHF/UKS


WARNING: No MP2 level density has been requested!
         To caclulate MP2 level properties use
         %mp2 Density relaxed end
         or
         %mp2 Density unrelaxed end
         Otherwise for double-hybrid DFT only the energy is correct!

WARNING: The frozen-core approximation is turned on by default for 
         the MP2 part of double-hybrid DFT.

INFO   : the flag for use of the SHARK integral package has been found!



***************************************
The coordinates will be read from file: pbe.xyz
***************************************


================================================================================

cite the ECPs for Au [Def2-ECP] as follows:
Ce-Yb(ecp-28): M. Dolg, H. Stoll, H.Preuss, J. Chem. Phys., 1989, 90, 1730-1734.
Y-Cd(ecp-28), Hf-Hg(ecp-46): D. Andrae,U. Haeussermann, M. Dolg, H. Stoll, H. Preuss, Theor. Chim. Acta, 1990, 77, 123-141.
In-Sb(ecp-28), Tl-Bi(ecp-46): B. Metz, H. Stoll, M. Dolg, J. Chem. Phys., 2000, 113, 2563-2569.
Te-Xe(ecp-28), Po-Rn(ecp-46): K. A. Peterson, D. Figgen, E. Goll, H. Stoll, M. Dolg, J. Chem. Phys., 2003, 119, 11113-11123.
Rb(ecp-28), Cs(ecp-46): T. Leininger, A. Nicklass, W. Kuechle, H. Stoll, M. Dolg, A. Bergner, Chem. Phys. Lett., 1996, 255, 274-280.
Sr(ecp-28), Ba(ecp-46): M. Kaupp, P. V. Schleyer, H. Stoll and H. Preuss, J. Chem. Phys., 1991, 94, 1360-1366.
La(ecp-46): M. Dolg, H. Stoll, A. Savin, H. Preuss, Theor. Chim. Acta, 1989, 75, 173-194.
Lu(ecp-28): X. Cao, M. Dolg, J. Chem. Phys., 2001, 115, 7348-7355.

ECP parameters for Au [Def2-ECP] have been obtained from:
TURBOMOLE (7.0.2)

----- Orbital basis set information -----
Your calculation utilizes the basis: def2-TZVP
   F. Weigend and R. Ahlrichs, Phys. Chem. Chem. Phys. 7, 3297 (2005).

----- AuxJ basis set information -----
Your calculation utilizes the auxiliary basis: def2/J
   F. Weigend, Phys. Chem. Chem. Phys. 8, 1057 (2006).

----- AuxC basis set information -----
Your calculation utilizes the auxiliary basis: def2-TZVP/C
  H-La, Hf-Rn : A. Hellweg, C. Hattig, S. Hofener and W. Klopper, Theor. Chem. Acc. 117, 587 (2007).
        Ce-Lu : J. Chmela and M. E. Harding, Mol. Phys. (2018).

================================================================================
                                        WARNINGS
                       Please study these warnings very carefully!
================================================================================


WARNING: No MP2 level density has been requested!
         To caclulate MP2 level properties use
         %mp2 Density relaxed end
         or
         %mp2 Density unrelaxed end
         Otherwise for double-hybrid DFT only the energy is correct!

WARNING: The frozen-core approximation is turned on by default for 
         the MP2 part of double-hybrid DFT.

INFO   : the flag for use of the SHARK integral package has been found!

================================================================================
                                       INPUT FILE
================================================================================
NAME = b2plyp.inp
|  1> !RI-B2PLYP def2-TZVP def2-TZVP/C
|  2> !RIJCOSX VERYSLOWCONV
|  3> 
|  4> %scf
|  5>   AutoTRAHIter 200
|  6>   maxiter 400
|  7> end
|  8> 
|  9> 
| 10> %pal nprocs 6 end 
| 11> 
| 12> *xyzfile 0 5 pbe.xyz
| 13> 
| 14> $new_job
| 15> 
| 16> !RI-B2PLYP def2-TZVP def2-TZVP/C
| 17> !RIJCOSX VERYSLOWCONV
| 18> 
| 19> %scf
| 20>   AutoTRAHIter 200
| 21>   maxiter 400
| 22> end
| 23> 
| 24> 
| 25> %pal nprocs 6 end 
| 26> 
| 27> *xyzfile 0 3 pbe.xyz
| 28> 
| 29> 
| 30> 
| 31> 
| 32> 
| 33>                          ****END OF INPUT****
================================================================================


                 $$$$$$$$$$$$$$$$$$$$$$$$$$$$$$$$$$$$$$$$$$$$$$ 
                 $ THERE ARE  2 JOBS TO BE PROCESSED THIS RUN $
                 $$$$$$$$$$$$$$$$$$$$$$$$$$$$$$$$$$$$$$$$$$$$$$ 




                 $$$$$$$$$$$$$$$$  JOB NUMBER  1 $$$$$$$$$$$$$$


                       ****************************
                       * Single Point Calculation *
                       ****************************

---------------------------------
CARTESIAN COORDINATES (ANGSTROEM)
---------------------------------
  Au    10.788500    4.506201    5.448827
  Au     7.192219    7.399365    6.254779
  Au     8.139969    5.119141    5.066326
  Au     8.753750    3.962804    7.525500
  Au     9.047262    8.799559    7.693733
  Au     7.775593    6.306510    8.752401
  Au    10.179692    5.198206    9.504697
  Au    12.781900    5.980777   10.054816
  Au    11.174281    7.831432    8.871463
  Au    12.245121    5.254140    7.489687
  Fe     9.750651    6.371215    6.988769

----------------------------
CARTESIAN COORDINATES (A.U.)
----------------------------
  NO LB      ZA    FRAG     MASS         X           Y           Z
   0 Au   19.0000*   0   196.966   20.387311    8.515485   10.296790
   1 Au   19.0000*   0   196.966   13.591325   13.982774   11.819819
   2 Au   19.0000*   0   196.966   15.382312    9.673774    9.573968
   3 Au   19.0000*   0   196.966   16.542190    7.488614   14.221134
   4 Au   19.0000*   0   196.966   17.096847   16.628756   14.539049
   5 Au   19.0000*   0   196.966   14.693742   11.917576   16.539640
   6 Au   19.0000*   0   196.966   19.236831    9.823186   17.961274
   7 Au   19.0000*   0   196.966   24.154291   11.302030   19.000848
   8 Au   19.0000*   0   196.966   21.116331   14.799261   16.764635
   9 Au   19.0000*   0   196.966   23.139925    9.928886   14.153458
  10 Fe   26.0000    0    55.850   18.426059   12.039852   13.206859
* core charge reduced due to ECP

--------------------------------
INTERNAL COORDINATES (ANGSTROEM)
--------------------------------
 Au     0   0   0     0.000000000000     0.00000000     0.00000000
 Au     1   0   0     4.685423760010     0.00000000     0.00000000
 Au     2   1   0     2.740451158682    31.36973916     0.00000000
 Au     3   2   1     2.785925326135    92.22048256    62.46394335
 Au     2   1   3     2.733553310648    83.45207126   180.09429604
 Au     2   1   3     2.787969397743    75.60800108   113.64206442
 Au     4   3   2     2.734364863914   124.49206772   310.18471330
 Au     7   4   3     2.772460188141   139.51871518   288.06841765
 Au     5   2   1     2.616969094661   126.79655703   332.64183940
 Au     1   2   3     2.616537616209    96.69686662   200.85169510
 Fe     5   2   1     2.624611096029    64.31370679   347.08027016

---------------------------
INTERNAL COORDINATES (A.U.)
---------------------------
 Au     0   0   0     0.000000000000     0.00000000     0.00000000
 Au     1   0   0     8.854167727786     0.00000000     0.00000000
 Au     2   1   0     5.178702173295    31.36973916     0.00000000
 Au     3   2   1     5.264635895951    92.22048256    62.46394335
 Au     2   1   3     5.165667129599    83.45207126   180.09429604
 Au     2   1   3     5.268498631488    75.60800108   113.64206442
 Au     4   3   2     5.167200743015   124.49206772   310.18471330
 Au     7   4   3     5.239190472786   139.51871518   288.06841765
 Au     5   2   1     4.945354889846   126.79655703   332.64183940
 Au     1   2   3     4.944539513739    96.69686662   200.85169510
 Fe     5   2   1     4.959796179546    64.31370679   347.08027016

---------------------
BASIS SET INFORMATION
---------------------
There are 2 groups of distinct atoms

 Group   1 Type Au  : 8s7p6d1f contracted to 6s4p3d1f pattern {311111/4111/411/1}
 Group   2 Type Fe  : 17s11p7d1f contracted to 6s4p4d1f pattern {842111/6311/4111/1}

Atom   0Au   basis set group =>   1
Atom   1Au   basis set group =>   1
Atom   2Au   basis set group =>   1
Atom   3Au   basis set group =>   1
Atom   4Au   basis set group =>   1
Atom   5Au   basis set group =>   1
Atom   6Au   basis set group =>   1
Atom   7Au   basis set group =>   1
Atom   8Au   basis set group =>   1
Atom   9Au   basis set group =>   1
Atom  10Fe   basis set group =>   2
---------------------------------
AUXILIARY/J BASIS SET INFORMATION
---------------------------------
There are 2 groups of distinct atoms

 Group   1 Type Au  : 11s5p5d3f3g contracted to 8s5p5d2f3g pattern {41111111/11111/11111/21/111}
 Group   2 Type Fe  : 19s5p5d3f3g contracted to 8s5p5d2f3g pattern {121111111/11111/11111/21/111}

Atom   0Au   basis set group =>   1
Atom   1Au   basis set group =>   1
Atom   2Au   basis set group =>   1
Atom   3Au   basis set group =>   1
Atom   4Au   basis set group =>   1
Atom   5Au   basis set group =>   1
Atom   6Au   basis set group =>   1
Atom   7Au   basis set group =>   1
Atom   8Au   basis set group =>   1
Atom   9Au   basis set group =>   1
Atom  10Fe   basis set group =>   2
---------------------------------
AUXILIARY/C BASIS SET INFORMATION
---------------------------------
There are 2 groups of distinct atoms

 Group   1 Type Au  : 8s8p7d5f3g2h contracted to 8s8p7d5f3g2h pattern {11111111/11111111/1111111/11111/111/11}
 Group   2 Type Fe  : 11s9p8d6f5g2h contracted to 9s8p8d6f5g2h pattern {311111111/21111111/11111111/111111/11111/11}

Atom   0Au   basis set group =>   1
Atom   1Au   basis set group =>   1
Atom   2Au   basis set group =>   1
Atom   3Au   basis set group =>   1
Atom   4Au   basis set group =>   1
Atom   5Au   basis set group =>   1
Atom   6Au   basis set group =>   1
Atom   7Au   basis set group =>   1
Atom   8Au   basis set group =>   1
Atom   9Au   basis set group =>   1
Atom  10Fe   basis set group =>   2
-------------------------
ECP PARAMETER INFORMATION
-------------------------

 Group 1, Type Au ECP Def2-ECP (replacing 60 core electrons, lmax=3)

Atom   0Au   ECP group =>   1
Atom   1Au   ECP group =>   1
Atom   2Au   ECP group =>   1
Atom   3Au   ECP group =>   1
Atom   4Au   ECP group =>   1
Atom   5Au   ECP group =>   1
Atom   6Au   ECP group =>   1
Atom   7Au   ECP group =>   1
Atom   8Au   ECP group =>   1
Atom   9Au   ECP group =>   1



           ************************************************************
           *        Program running with 6 parallel MPI-processes     *
           *              working on a common directory               *
           ************************************************************
------------------------------------------------------------------------------
                           ORCA GTO INTEGRAL CALCULATION
                           -- RI-GTO INTEGRALS CHOSEN --
------------------------------------------------------------------------------
------------------------------------------------------------------------------
                   ___                                                        
                  /   \      - P O W E R E D   B Y -                         
                 /     \                                                     
                 |  |  |   _    _      __       _____    __    __             
                 |  |  |  | |  | |    /  \     |  _  \  |  |  /  |          
                  \  \/   | |  | |   /    \    | | | |  |  | /  /          
                 / \  \   | |__| |  /  /\  \   | |_| |  |  |/  /          
                |  |  |   |  __  | /  /__\  \  |    /   |      \           
                |  |  |   | |  | | |   __   |  |    \   |  |\   \          
                \     /   | |  | | |  |  |  |  | |\  \  |  | \   \       
                 \___/    |_|  |_| |__|  |__|  |_| \__\ |__|  \__/        
                                                                              
                      - O R C A' S   B I G   F R I E N D -                    
                                      &                                       
                       - I N T E G R A L  F E E D E R -                       
                                                                              
 v1 FN, 2020, v2 2021                                                         
------------------------------------------------------------------------------


Reading SHARK input file b2plyp.SHARKINP.tmp ... ok
----------------------
SHARK INTEGRAL PACKAGE
----------------------

Number of atoms                             ...     11
Number of basis functions                   ...    445
Number of shells                            ...    155
Maximum angular momentum                    ...      3
Integral batch strategy                     ... SHARK/LIBINT Hybrid
RI-J (if used) integral strategy            ... SPLIT-RIJ (Revised 2003 algorithm where possible)
Printlevel                                  ...      1
Contraction scheme used                     ... SEGMENTED contraction
Coulomb Range Separation                    ... NOT USED
Exchange Range Separation                   ... NOT USED
Finite Nucleus Model                        ... NOT USED
Auxiliary Coulomb fitting basis             ... AVAILABLE
   # of basis functions in Aux-J            ...    979
   # of shells in Aux-J                     ...    253
   Maximum angular momentum in Aux-J        ...      4
Auxiliary J/K fitting basis                 ... NOT available
Auxiliary Correlation fitting basis         ... AVAILABLE
   # of basis functions in Aux-C            ...   1692
   # of shells in Aux-C                     ...    368
   Maximum angular momentum in Aux-C        ...      5
Auxiliary 'external' fitting basis          ... NOT available
Integral threshold                          ...     1.000000e-10
Primitive cut-off                           ...     1.000000e-11
Primitive pair pre-selection threshold      ...     1.000000e-11

Calculating pre-screening integrals         ... done (  0.1 sec) Dimension = 155
Organizing shell pair data                  ... done (  0.1 sec)
Shell pair information
Total number of shell pairs                 ...     12090
Shell pairs after pre-screening             ...      9956
Total number of primitive shell pairs       ...     33105
Primitive shell pairs kept                  ...     20094
          la=0 lb=0:   1562 shell pairs
          la=1 lb=0:   2255 shell pairs
          la=1 lb=1:    864 shell pairs
          la=2 lb=0:   1972 shell pairs
          la=2 lb=1:   1385 shell pairs
          la=2 lb=2:    570 shell pairs
          la=3 lb=0:    533 shell pairs
          la=3 lb=1:    410 shell pairs
          la=3 lb=2:    348 shell pairs
          la=3 lb=3:     57 shell pairs

Calculating one electron integrals          ... done (  0.0 sec)
Calculating ECP integrals                   ... done (  3.6 sec)
Calculating RI/J V-Matrix + Cholesky decomp.... done (  0.0 sec)
Calculating RI/C V-Matrix + Cholesky decomp.... done (  0.1 sec)
Calculating Nuclear repulsion               ... done (  0.0 sec) ENN=   3231.233714060293 Eh

SHARK setup successfully completed in   4.2 seconds

Maximum memory used throughout the entire GTOINT-calculation: 30.1 MB


           ************************************************************
           *        Program running with 6 parallel MPI-processes     *
           *              working on a common directory               *
           ************************************************************
-------------------------------------------------------------------------------
                                 ORCA SCF
-------------------------------------------------------------------------------

------------
SCF SETTINGS
------------
Hamiltonian:
 Density Functional     Method          .... DFT(GTOs)
 Exchange Functional    Exchange        .... B88
   X-Alpha parameter    XAlpha          ....  0.666667
   Becke's b parameter  XBeta           ....  0.004200
 Correlation Functional Correlation     .... LYP
 LDA part of GGA corr.  LDAOpt          .... VWN-3
 Gradients option       PostSCFGGA      .... off
 Hybrid DFT is turned on
   Fraction HF Exchange ScalHFX         ....  0.530000
   Scaling of DF-GGA-X  ScalDFX         ....  0.470000
   Scaling of DF-GGA-C  ScalDFC         ....  0.730000
   Scaling of DF-LDA-C  ScalLDAC        ....  0.730000
   Perturbative correction              ....  0.270000
   Density functional embedding theory  .... OFF
   NL short-range parameter             ....  7.800000
 RI-approximation to the Coulomb term is turned on
   Number of AuxJ basis functions       .... 979
   RIJ-COSX (HFX calculated with COS-X)).... on


General Settings:
 Integral files         IntName         .... b2plyp
 Hartree-Fock type      HFTyp           .... UHF
 Total Charge           Charge          ....    0
 Multiplicity           Mult            ....    5
 Number of Electrons    NEL             ....  216
 Basis Dimension        Dim             ....  445
 Nuclear Repulsion      ENuc            ....   3231.2337140603 Eh

Convergence Acceleration:
 DIIS                   CNVDIIS         .... on
   Start iteration      DIISMaxIt       ....     0
   Startup error        DIISStart       ....  0.200000
   # of expansion vecs  DIISMaxEq       ....     5
   Bias factor          DIISBfac        ....   1.050
   Max. coefficient     DIISMaxC        ....  10.000
 Trust-Rad. Augm. Hess. CNVTRAH         .... auto
   Auto Start mean grad. ratio tolernc. ....  1.125000
   Auto Start start iteration           ....   200
   Auto Start num. interpolation iter.  ....    10
   Max. Number of Micro iterations      ....    16
   Max. Number of Macro iterations      .... Maxiter - #DIIS iter
   Number of Davidson start vectors     ....     2
   Converg. threshold I  (grad. norm)   ....   5.000e-05
   Converg. threshold II (energy diff.) ....   1.000e-06
   Grad. Scal. Fac. for Micro threshold ....   0.100
   Minimum threshold for Micro iter.    ....   0.010
   NR start threshold (gradient norm)   ....   0.001
   Initial trust radius                 ....   0.400
   Minimum AH scaling param. (alpha)    ....   1.000
   Maximum AH scaling param. (alpha)    .... 1000.000
   Orbital update algorithm             .... Taylor
   White noise on init. David. guess    .... on
   Maximum white noise                  ....   0.010
   Quad. conv. algorithm                .... NR
 SOSCF                  CNVSOSCF        .... off
 Level Shifting         CNVShift        .... on
   Level shift para.    LevelShift      ....    0.2500
   Turn off err/grad.   ShiftErr        ....    0.0000
 Zerner damping         CNVZerner       .... off
 Static damping         CNVDamp         .... on
   Fraction old density DampFac         ....    0.9200
   Max. Damping (<1)    DampMax         ....    0.9800
   Min. Damping (>=0)   DampMin         ....    0.0000
   Turn off err/grad.   DampErr         ....    0.0030
 Fernandez-Rico         CNVRico         .... off

SCF Procedure:
 Maximum # iterations   MaxIter         ....   400
 SCF integral mode      SCFMode         .... Direct
   Integral package                     .... SHARK and LIBINT hybrid scheme
 Reset frequency        DirectResetFreq ....    20
 Integral Threshold     Thresh          ....  1.000e-10 Eh
 Primitive CutOff       TCut            ....  1.000e-11 Eh

Convergence Tolerance:
 Convergence Check Mode ConvCheckMode   .... Total+1el-Energy
 Convergence forced     ConvForced      .... 0
 Energy Change          TolE            ....  1.000e-06 Eh
 1-El. energy change                    ....  1.000e-03 Eh
 DIIS Error             TolErr          ....  1.000e-06


Diagonalization of the overlap matrix:
Smallest eigenvalue                        ... 9.161e-04
Time for diagonalization                   ...    0.022 sec
Threshold for overlap eigenvalues          ... 1.000e-08
Number of eigenvalues below threshold      ... 0
Time for construction of square roots      ...    0.013 sec
Total time needed                          ...    0.036 sec

Time for model grid setup =    0.258 sec

------------------------------
INITIAL GUESS: MODEL POTENTIAL
------------------------------
Loading Hartree-Fock densities                     ... done
  calling /media/Programs/ORCA501/orca b2plyp_atom79.inp > b2plyp_atom79.out in order to generate an atomic fitting density for atom 0 (Au with ECP) on-the-fly... 
    atom 0 (Au), assumed electronic state with S=2: 1s2 2s2 2p6 3s2 3p6 4s2 3d10 4p6 5s2 4d10 5p6 6s1 4f14 5d10           ... done
Calculating cut-offs                               ... done
Initializing the effective Hamiltonian             ... done
Setting up the integral package (SHARK)            ... done
Starting the Coulomb interaction                   ... done (   0.2 sec)
Reading the grid                                   ... done
Mapping shells                                     ... done
Starting the XC term evaluation                    ... done (   0.2 sec)
  promolecular density results
     # of electrons  =    816.011686714
     EX              =  -3728.085097090
     EC              =    -16.548426648
     EX+EC           =  -3744.633523737
Transforming the Hamiltonian                       ... done (   0.0 sec)
Diagonalizing the Hamiltonian                      ... done (   0.0 sec)
Back transforming the eigenvectors                 ... done (   0.0 sec)
Now organizing SCF variables                       ... done
                      ------------------
                      INITIAL GUESS DONE (   1.1 sec)
                      ------------------
-------------------
DFT GRID GENERATION
-------------------

General Integration Accuracy     IntAcc      ... 4.388
Radial Grid Type                 RadialGrid  ... OptM3 with GC (2021)
Angular Grid (max. ang.)         AngularGrid ... 4 (Lebedev-302)
Angular grid pruning method      GridPruning ... 4 (adaptive)
Weight generation scheme         WeightScheme... Becke
Basis function cutoff            BFCut       ... 1.0000e-10
Integration weight cutoff        WCut        ... 1.0000e-14
Angular grids for H and He will be reduced by one unit
Partially contracted basis set               ... off
Rotationally invariant grid construction     ... off

Total number of grid points                  ...   123406
Total number of batches                      ...     1934
Average number of points per batch           ...       63
Average number of grid points per atom       ...    11219
Time for grid setup =    0.891 sec

--------------------
COSX GRID GENERATION
--------------------

GRIDX 1
-------
General Integration Accuracy     IntAcc      ... 3.816
Radial Grid Type                 RadialGrid  ... OptM3 with GC (2021)
Angular Grid (max. ang.)         AngularGrid ... 1 (Lebedev-50)
Angular grid pruning method      GridPruning ... 4 (adaptive)
Weight generation scheme         WeightScheme... Becke
Basis function cutoff            BFCut       ... 1.0000e-10
Integration weight cutoff        WCut        ... 1.0000e-14
Angular grids for H and He will be reduced by one unit
Partially contracted basis set               ... on
Rotationally invariant grid construction     ... off

Total number of grid points                  ...    13057
Total number of batches                      ...      211
Average number of points per batch           ...       61
Average number of grid points per atom       ...     1187
UseSFitting                                  ... on

GRIDX 2
-------
General Integration Accuracy     IntAcc      ... 4.020
Radial Grid Type                 RadialGrid  ... OptM3 with GC (2021)
Angular Grid (max. ang.)         AngularGrid ... 2 (Lebedev-110)
Angular grid pruning method      GridPruning ... 4 (adaptive)
Weight generation scheme         WeightScheme... Becke
Basis function cutoff            BFCut       ... 1.0000e-10
Integration weight cutoff        WCut        ... 1.0000e-14
Angular grids for H and He will be reduced by one unit
Partially contracted basis set               ... on
Rotationally invariant grid construction     ... off

Total number of grid points                  ...    39333
Total number of batches                      ...      621
Average number of points per batch           ...       63
Average number of grid points per atom       ...     3576
UseSFitting                                  ... on

GRIDX 3
-------
General Integration Accuracy     IntAcc      ... 4.338
Radial Grid Type                 RadialGrid  ... OptM3 with GC (2021)
Angular Grid (max. ang.)         AngularGrid ... 3 (Lebedev-194)
Angular grid pruning method      GridPruning ... 4 (adaptive)
Weight generation scheme         WeightScheme... Becke
Basis function cutoff            BFCut       ... 1.0000e-10
Integration weight cutoff        WCut        ... 1.0000e-14
Angular grids for H and He will be reduced by one unit
Partially contracted basis set               ... on
Rotationally invariant grid construction     ... off

Total number of grid points                  ...    72544
Total number of batches                      ...     1137
Average number of points per batch           ...       63
Average number of grid points per atom       ...     6595
UseSFitting                                  ... on

Time for X-Grid setup             =    0.699 sec

--------------
SCF ITERATIONS
--------------
ITER       Energy         Delta-E        Max-DP      RMS-DP      [F,P]     Damp
               ***  Starting incremental Fock matrix formation  ***
  0  -2614.4979813134   0.000000000000 0.09121001  0.00070574  0.5146951 0.9200
  1  -2615.4926964708  -0.994715157432 0.08187142  0.00063779  0.3333165 0.9200
                               ***Turning on DIIS***
  2  -2616.0335121935  -0.540815722718 0.06761290  0.00053829  0.2322992 0.9200
  3  -2616.2505045189  -0.216992325441 0.03478357  0.00039899  0.2138513 0.9200
  4  -2616.3047224378  -0.054217918901 0.02460444  0.00028128  0.1968534 0.9200
  5  -2616.3733918723  -0.068669434459 0.02391659  0.00026552  0.1811744 0.9200
  6  -2616.4478515330  -0.074459660739 0.02199151  0.00024873  0.1666718 0.9200
  7  -2616.5075208921  -0.059669359101 0.02012340  0.00022723  0.1533093 0.9200
  8  -2616.5688595301  -0.061338637931 0.01775552  0.00021648  0.1410679 0.9200
  9  -2616.6377312080  -0.068871677901 0.01682606  0.00020582  0.1299027 0.9200
 10  -2616.6995611941  -0.061829986134 0.01581547  0.00018927  0.1195727 0.9200
 11  -2616.7587215453  -0.059160351211 0.01486154  0.00017724  0.1100224 0.9200
 12  -2616.8138156354  -0.055094090126 0.01382929  0.00016658  0.1012190 0.9200
 13  -2616.8666200161  -0.052804380691 0.01268885  0.00015636  0.0931221 0.9200
 14  -2616.9186449758  -0.052024959634 0.01169269  0.00014832  0.0856953 0.9200
 15  -2616.9680193717  -0.049374395895 0.01093241  0.00013911  0.0788713 0.9200
 16  -2617.0145814578  -0.046562086115 0.01012904  0.00012978  0.0725772 0.9200
 17  -2617.0585197327  -0.043938274899 0.00935663  0.00012142  0.0667788 0.9200
 18  -2617.1001464080  -0.041626675365 0.00862530  0.00011376  0.0614415 0.9200
 19  -2617.1397991615  -0.039652753445 0.00794263  0.00010682  0.0565335 0.9200
               *** Restarting incremental Fock matrix formation ***
                                   *** Resetting DIIS ***
 20  -2617.1792423153  -0.039443153770 0.00700471  0.00009335  0.0520228 0.9200
 21  -2617.2152529335  -0.036010618261 0.00647268  0.00008521  0.0478980 0.9200
 22  -2617.2490732791  -0.033820345598 0.00607263  0.00007998  0.0441022 0.9200
 23  -2617.2807128269  -0.031639547764 0.00569670  0.00007648  0.0405992 0.9200
 24  -2617.3102681923  -0.029555365456 0.00531527  0.00007360  0.0373638 0.9200
 25  -2617.3378893974  -0.027621205018 0.00490955  0.00007022  0.0343817 0.9200
 26  -2617.3637601771  -0.025870779706 0.00453406  0.00006688  0.0316410 0.9200
 27  -2617.3879539085  -0.024193731416 0.00418761  0.00006354  0.0291198 0.9200
 28  -2617.4105630231  -0.022609114646 0.00386351  0.00006022  0.0267984 0.9200
 29  -2617.4316931095  -0.021130086380 0.00355990  0.00005701  0.0246607 0.9200
 30  -2617.4514435148  -0.019750405327 0.00327670  0.00005394  0.0226930 0.9200
 31  -2617.4698984496  -0.018454934788 0.00301522  0.00005103  0.0208825 0.9200
 32  -2617.4871299416  -0.017231491997 0.00286435  0.00004825  0.0192168 0.9200
 33  -2617.5032077012  -0.016077759614 0.00276354  0.00004559  0.0176841 0.9200
 34  -2617.5182012077  -0.014993506495 0.00265094  0.00004306  0.0162735 0.9200
 35  -2617.5321771626  -0.013975954898 0.00253401  0.00004065  0.0149753 0.9200
 36  -2617.5451977935  -0.013020630873 0.00242090  0.00003837  0.0137805 0.9200
 37  -2617.5573211348  -0.012123341344 0.00231461  0.00003620  0.0126812 0.9200
 38  -2617.5686022976  -0.011281162800 0.00221137  0.00003415  0.0116695 0.9200
 39  -2617.5790941654  -0.010491867740 0.00211166  0.00003227  0.0107386 0.9200
               *** Restarting incremental Fock matrix formation ***
                                   *** Resetting DIIS ***
 40  -2617.5888469100  -0.009752744587 0.00172224  0.00002571  0.0098819 0.9200
 41  -2617.5980041013  -0.009157191356 0.00147408  0.00002257  0.0091021 0.9200
 42  -2617.6064953804  -0.008491279044 0.00138007  0.00002132  0.0083829 0.9200
 43  -2617.6143529964  -0.007857616033 0.00136012  0.00002110  0.0077178 0.9200
 44  -2617.6216165293  -0.007263532935 0.00136390  0.00002121  0.0071032 0.9200
 45  -2617.6283286610  -0.006712131650 0.00134778  0.00002080  0.0065916 0.9200
 46  -2617.6345396847  -0.006211023743 0.00133695  0.00002027  0.0063141 0.9200
 47  -2617.6402859397  -0.005746254934 0.00132891  0.00001969  0.0060767 0.9200
 48  -2617.6456014639  -0.005315524217 0.00130848  0.00001902  0.0057878 0.9200
 49  -2617.6505193024  -0.004917838521 0.00127103  0.00001827  0.0054565 0.9200
 50  -2617.6550701842  -0.004550881757 0.00122721  0.00001749  0.0051301 0.9200
 51  -2617.6592818537  -0.004211669515 0.00120318  0.00001669  0.0048393 0.9200
 52  -2617.6631791481  -0.003897294422 0.00117049  0.00001591  0.0045743 0.9200
 53  -2617.6667848728  -0.003605724686 0.00113287  0.00001513  0.0043164 0.9200
 54  -2617.6701203915  -0.003335518749 0.00109365  0.00001436  0.0040613 0.9200
 55  -2617.6732055771  -0.003085185531 0.00105506  0.00001362  0.0038159 0.9200
 56  -2617.6760587932  -0.002853216125 0.00101553  0.00001289  0.0035864 0.9200
 57  -2617.6786970011  -0.002638207937 0.00097449  0.00001220  0.0033721 0.9200
 58  -2617.6811358887  -0.002438887594 0.00093285  0.00001153  0.0031692 0.9200
 59  -2617.6833900647  -0.002254175980 0.01127218  0.00013703  0.0029756 0.0000
               *** Restarting incremental Fock matrix formation ***
                                   *** Resetting DIIS ***
 60  -2617.7102158045  -0.026825739848 0.00094043  0.00001072  0.0006581 0.0000
               *** Restarting incremental Fock matrix formation ***
                                   *** Resetting DIIS ***
 61  -2617.7083129851   0.001902819409 0.00429881  0.00008334  0.0005196 0.0000
 62  -2617.7084284420  -0.000115456822 0.00154877  0.00003100  0.0003974 0.0000
 63  -2617.7084511692  -0.000022727237 0.00072908  0.00001261  0.0003540 0.0000
 64  -2617.7084602281  -0.000009058925 0.00056485  0.00000760  0.0001906 0.0000
 65  -2617.7084655050  -0.000005276851 0.00055595  0.00000546  0.0001613 0.0000
 66  -2617.7084690213  -0.000003516339 0.00048312  0.00000490  0.0001469 0.0000
 67  -2617.7084716446  -0.000002623297 0.00036225  0.00000363  0.0001357 0.0000
 68  -2617.7084734819  -0.000001837282 0.00027464  0.00000310  0.0001400 0.0000
 69  -2617.7084751128  -0.000001630959 0.00020821  0.00000263  0.0001267 0.0000
 70  -2617.7084765067  -0.000001393877 0.00021228  0.00000240  0.0001284 0.0000
 71  -2617.7084779038  -0.000001397100 0.00023326  0.00000232  0.0001215 0.0000
 72  -2617.7084792397  -0.000001335863 0.00028159  0.00000251  0.0001193 0.0000
 73  -2617.7084807832  -0.000001543477 0.00024853  0.00000214  0.0001175 0.0000
 74  -2617.7084821272  -0.000001344059 0.00037614  0.00000294  0.0001132 0.0000
 75  -2617.7084838972  -0.000001769966 0.00012562  0.00000118  0.0001129 0.0000
 76  -2617.7084846666  -0.000000769405 0.00071621  0.00000515  0.0001017 0.0000
 77  -2617.7084877290  -0.000003062396 0.00004848  0.00000061  0.0001130 0.0000
                 **** Energy Check signals convergence ****

               *****************************************************
               *                     SUCCESS                       *
               *           SCF CONVERGED AFTER  78 CYCLES          *
               *****************************************************

Old exchange energy                            =    -92.058109520 Eh
New exchange energy                            =    -92.058210539 Eh
Exchange energy change after final integration =     -0.000101019 Eh
Total energy after final integration           =  -2617.708588766 Eh
Final COS-X integration done in                =     9.398 sec

----------------
TOTAL SCF ENERGY
----------------

Total Energy       :        -2617.70858877 Eh          -71231.47204 eV

Components:
Nuclear Repulsion  :         3231.23371406 Eh           87926.33945 eV
Electronic Energy  :        -5848.94230283 Eh         -159157.81149 eV
One Electron Energy:       -10590.56785792 Eh         -288184.00241 eV
Two Electron Energy:         4741.62555509 Eh          129026.19092 eV
Max COSX asymmetry :            0.00000681 Eh               0.00019 eV

Virial components:
Potential Energy   :        -4339.32762105 Eh         -118079.10759 eV
Kinetic Energy     :         1721.61903228 Eh           46847.63556 eV
Virial Ratio       :            2.52049236


DFT components:
N(Alpha)           :      110.000028903020 electrons
N(Beta)            :      106.000033139451 electrons
N(Total)           :      216.000062042472 electrons
E(X)               :      -82.840254050984 Eh       
E(C)               :       -5.986907756452 Eh       
E(XC)              :      -88.827161807436 Eh       
DFET-embed. en.    :        0.000000000000 Eh       

---------------
SCF CONVERGENCE
---------------

  Last Energy change         ...   -1.7750e-08  Tolerance :   1.0000e-06
  Last MAX-Density change    ...    0.0000e+00  Tolerance :   1.0000e-05
  Last RMS-Density change    ...    0.0000e+00  Tolerance :   1.0000e-06
  Last DIIS Error            ...    9.6422e-05  Tolerance :   1.0000e-06

             **** THE GBW FILE WAS UPDATED (b2plyp.gbw) ****
             **** DENSITY b2plyp.scfp WAS UPDATED ****
             **** ENERGY FILE WAS UPDATED (b2plyp.en.tmp) ****
----------------------
UHF SPIN CONTAMINATION
----------------------

Warning: in a DFT calculation there is little theoretical justification to 
         calculate <S**2> as in Hartree-Fock theory. We will do it anyways
         but you should keep in mind that the values have only limited relevance

Expectation value of <S**2>     :     6.030885
Ideal value S*(S+1) for S=2.0   :     6.000000
Deviation                       :     0.030885

             **** THE GBW FILE WAS UPDATED (b2plyp.gbw) ****
             **** DENSITY b2plyp.scfp WAS UPDATED ****
----------------
ORBITAL ENERGIES
----------------
                 SPIN UP ORBITALS
  NO   OCC          E(Eh)            E(eV) 
   0   1.0000    -258.340188     -7029.7939 
   1   1.0000     -30.900538      -840.8464 
   2   1.0000     -26.618663      -724.3306 
   3   1.0000     -26.589891      -723.5477 
   4   1.0000     -26.587385      -723.4795 
   5   1.0000      -4.405418      -119.8775 
   6   1.0000      -4.404767      -119.8598 
   7   1.0000      -4.404648      -119.8566 
   8   1.0000      -4.398343      -119.6850 
   9   1.0000      -4.398339      -119.6849 
  10   1.0000      -4.390301      -119.4662 
  11   1.0000      -4.388462      -119.4161 
  12   1.0000      -4.388455      -119.4159 
  13   1.0000      -4.383660      -119.2855 
  14   1.0000      -4.383279      -119.2751 
  15   1.0000      -3.913995      -106.5052 
  16   1.0000      -2.664823       -72.5135 
  17   1.0000      -2.604266       -70.8657 
  18   1.0000      -2.598527       -70.7095 
  19   1.0000      -2.529276       -68.8251 
  20   1.0000      -2.525468       -68.7215 
  21   1.0000      -2.525131       -68.7123 
  22   1.0000      -2.523066       -68.6561 
  23   1.0000      -2.522666       -68.6452 
  24   1.0000      -2.522185       -68.6321 
  25   1.0000      -2.520324       -68.5815 
  26   1.0000      -2.520242       -68.5793 
  27   1.0000      -2.519790       -68.5670 
  28   1.0000      -2.519498       -68.5590 
  29   1.0000      -2.518198       -68.5237 
  30   1.0000      -2.516530       -68.4783 
  31   1.0000      -2.516296       -68.4719 
  32   1.0000      -2.511619       -68.3446 
  33   1.0000      -2.511493       -68.3412 
  34   1.0000      -2.511418       -68.3392 
  35   1.0000      -2.508314       -68.2547 
  36   1.0000      -2.506624       -68.2087 
  37   1.0000      -2.505691       -68.1833 
  38   1.0000      -2.505484       -68.1777 
  39   1.0000      -2.503870       -68.1338 
  40   1.0000      -2.503331       -68.1191 
  41   1.0000      -2.502348       -68.0924 
  42   1.0000      -2.501923       -68.0808 
  43   1.0000      -2.501635       -68.0730 
  44   1.0000      -2.500465       -68.0411 
  45   1.0000      -2.500177       -68.0333 
  46   1.0000      -2.497863       -67.9703 
  47   1.0000      -2.497482       -67.9599 
  48   1.0000      -2.496728       -67.9394 
  49   1.0000      -0.564645       -15.3648 
  50   1.0000      -0.556806       -15.1514 
  51   1.0000      -0.552167       -15.0252 
  52   1.0000      -0.532966       -14.5028 
  53   1.0000      -0.501227       -13.6391 
  54   1.0000      -0.497264       -13.5312 
  55   1.0000      -0.474526       -12.9125 
  56   1.0000      -0.463554       -12.6139 
  57   1.0000      -0.457447       -12.4478 
  58   1.0000      -0.455163       -12.3856 
  59   1.0000      -0.450558       -12.2603 
  60   1.0000      -0.445818       -12.1313 
  61   1.0000      -0.445253       -12.1160 
  62   1.0000      -0.440295       -11.9810 
  63   1.0000      -0.439094       -11.9484 
  64   1.0000      -0.434282       -11.8174 
  65   1.0000      -0.428448       -11.6587 
  66   1.0000      -0.428045       -11.6477 
  67   1.0000      -0.425945       -11.5906 
  68   1.0000      -0.422380       -11.4936 
  69   1.0000      -0.420728       -11.4486 
  70   1.0000      -0.415878       -11.3166 
  71   1.0000      -0.415520       -11.3069 
  72   1.0000      -0.413218       -11.2442 
  73   1.0000      -0.407459       -11.0875 
  74   1.0000      -0.405945       -11.0463 
  75   1.0000      -0.404455       -11.0058 
  76   1.0000      -0.395862       -10.7719 
  77   1.0000      -0.394534       -10.7358 
  78   1.0000      -0.385768       -10.4973 
  79   1.0000      -0.385673       -10.4947 
  80   1.0000      -0.381529       -10.3819 
  81   1.0000      -0.380838       -10.3631 
  82   1.0000      -0.379165       -10.3176 
  83   1.0000      -0.377853       -10.2819 
  84   1.0000      -0.376489       -10.2448 
  85   1.0000      -0.375243       -10.2109 
  86   1.0000      -0.368544       -10.0286 
  87   1.0000      -0.365114        -9.9353 
  88   1.0000      -0.364756        -9.9255 
  89   1.0000      -0.364663        -9.9230 
  90   1.0000      -0.364189        -9.9101 
  91   1.0000      -0.360936        -9.8216 
  92   1.0000      -0.360392        -9.8068 
  93   1.0000      -0.355228        -9.6662 
  94   1.0000      -0.354196        -9.6382 
  95   1.0000      -0.352429        -9.5901 
  96   1.0000      -0.349112        -9.4998 
  97   1.0000      -0.348299        -9.4777 
  98   1.0000      -0.345929        -9.4132 
  99   1.0000      -0.341166        -9.2836 
 100   1.0000      -0.339141        -9.2285 
 101   1.0000      -0.335906        -9.1405 
 102   1.0000      -0.328171        -8.9300 
 103   1.0000      -0.327589        -8.9141 
 104   1.0000      -0.320297        -8.7157 
 105   1.0000      -0.315393        -8.5823 
 106   1.0000      -0.298675        -8.1274 
 107   1.0000      -0.261394        -7.1129 
 108   1.0000      -0.230711        -6.2780 
 109   1.0000      -0.201116        -5.4726 
 110   0.0000      -0.086999        -2.3674 
 111   0.0000      -0.084352        -2.2953 
 112   0.0000      -0.077602        -2.1117 
 113   0.0000      -0.054042        -1.4706 
 114   0.0000      -0.037575        -1.0225 
 115   0.0000      -0.031814        -0.8657 
 116   0.0000      -0.003648        -0.0993 
 117   0.0000      -0.001004        -0.0273 
 118   0.0000       0.006000         0.1633 
 119   0.0000       0.020155         0.5484 
 120   0.0000       0.023242         0.6324 
 121   0.0000       0.027454         0.7471 
 122   0.0000       0.045394         1.2352 
 123   0.0000       0.049517         1.3474 
 124   0.0000       0.052268         1.4223 
 125   0.0000       0.076075         2.0701 
 126   0.0000       0.080405         2.1879 
 127   0.0000       0.088351         2.4041 
 128   0.0000       0.088513         2.4086 
 129   0.0000       0.093201         2.5361 
 130   0.0000       0.093888         2.5548 
 131   0.0000       0.101211         2.7541 
 132   0.0000       0.103361         2.8126 
 133   0.0000       0.113632         3.0921 
 134   0.0000       0.114096         3.1047 
 135   0.0000       0.116869         3.1802 
 136   0.0000       0.126419         3.4400 
 137   0.0000       0.133813         3.6412 
 138   0.0000       0.141109         3.8398 
 139   0.0000       0.145197         3.9510 
 140   0.0000       0.153833         4.1860 
 141   0.0000       0.162873         4.4320 
 142   0.0000       0.177577         4.8321 
 143   0.0000       0.180871         4.9217 
 144   0.0000       0.187690         5.1073 
 145   0.0000       0.203740         5.5441 
 146   0.0000       0.205696         5.5973 
 147   0.0000       0.213410         5.8072 
 148   0.0000       0.220412         5.9977 
 149   0.0000       0.238741         6.4965 
 150   0.0000       0.245805         6.6887 
 151   0.0000       0.247151         6.7253 
 152   0.0000       0.253001         6.8845 
 153   0.0000       0.267047         7.2667 
 154   0.0000       0.281240         7.6529 
 155   0.0000       0.286858         7.8058 
 156   0.0000       0.300137         8.1672 
 157   0.0000       0.307765         8.3747 
 158   0.0000       0.312829         8.5125 
 159   0.0000       0.325672         8.8620 
 160   0.0000       0.332806         9.0561 
 161   0.0000       0.336624         9.1600 
 162   0.0000       0.339703         9.2438 
 163   0.0000       0.344752         9.3812 
 164   0.0000       0.345794         9.4095 
 165   0.0000       0.354801         9.6546 
 166   0.0000       0.355273         9.6675 
 167   0.0000       0.361940         9.8489 
 168   0.0000       0.375506        10.2180 
 169   0.0000       0.377546        10.2736 
 170   0.0000       0.385546        10.4912 
 171   0.0000       0.386197        10.5089 
 172   0.0000       0.387611        10.5474 
 173   0.0000       0.388997        10.5851 
 174   0.0000       0.391967        10.6660 
 175   0.0000       0.401735        10.9318 
 176   0.0000       0.415235        11.2991 
 177   0.0000       0.416643        11.3374 
 178   0.0000       0.428162        11.6509 
 179   0.0000       0.432829        11.7779 
 180   0.0000       0.439695        11.9647 
 181   0.0000       0.444090        12.0843 
 182   0.0000       0.451509        12.2862 
 183   0.0000       0.456886        12.4325 
 184   0.0000       0.458715        12.4823 
 185   0.0000       0.470631        12.8065 
 186   0.0000       0.476975        12.9791 
 187   0.0000       0.479739        13.0544 
 188   0.0000       0.483704        13.1623 
 189   0.0000       0.484451        13.1826 
 190   0.0000       0.488578        13.2949 
 191   0.0000       0.502881        13.6841 
 192   0.0000       0.507931        13.8215 
 193   0.0000       0.512733        13.9522 
 194   0.0000       0.516805        14.0630 
 195   0.0000       0.516965        14.0673 
 196   0.0000       0.533152        14.5078 
 197   0.0000       0.539100        14.6697 
 198   0.0000       0.549289        14.9469 
 199   0.0000       0.553578        15.0636 
 200   0.0000       0.558189        15.1891 
 201   0.0000       0.559709        15.2305 
 202   0.0000       0.566187        15.4067 
 203   0.0000       0.577722        15.7206 
 204   0.0000       0.587186        15.9781 
 205   0.0000       0.600277        16.3344 
 206   0.0000       0.604914        16.4605 
 207   0.0000       0.610255        16.6059 
 208   0.0000       0.615156        16.7393 
 209   0.0000       0.623522        16.9669 
 210   0.0000       0.628168        17.0933 
 211   0.0000       0.628528        17.1031 
 212   0.0000       0.653859        17.7924 
 213   0.0000       0.665878        18.1195 
 214   0.0000       0.686886        18.6911 
 215   0.0000       0.755878        20.5685 
 216   0.0000       0.769851        20.9487 
 217   0.0000       0.786131        21.3917 
 218   0.0000       0.788483        21.4557 
 219   0.0000       0.797713        21.7069 
 220   0.0000       0.817263        22.2389 
 221   0.0000       0.839457        22.8428 
 222   0.0000       0.850854        23.1529 
 223   0.0000       0.856527        23.3073 
 224   0.0000       0.865195        23.5432 
 225   0.0000       0.879260        23.9259 
 226   0.0000       0.881825        23.9957 
 227   0.0000       0.912392        24.8275 
 228   0.0000       0.918327        24.9889 
 229   0.0000       0.922182        25.0938 
 230   0.0000       0.946074        25.7440 
 231   0.0000       0.948431        25.8081 
 232   0.0000       0.978541        26.6275 
 233   0.0000       0.988739        26.9050 
 234   0.0000       1.004566        27.3356 
 235   0.0000       1.017987        27.7008 
 236   0.0000       1.026262        27.9260 
 237   0.0000       1.039866        28.2962 
 238   0.0000       1.047273        28.4977 
 239   0.0000       1.051425        28.6107 
 240   0.0000       1.071996        29.1705 
 241   0.0000       1.073551        29.2128 
 242   0.0000       1.095071        29.7984 
 243   0.0000       1.115789        30.3622 
 244   0.0000       1.120200        30.4822 
 245   0.0000       1.153439        31.3867 
 246   0.0000       1.167144        31.7596 
 247   0.0000       1.231943        33.5229 
 248   0.0000       1.249149        33.9911 
 249   0.0000       1.395210        37.9656 
 250   0.0000       1.395356        37.9696 
 251   0.0000       1.431435        38.9513 
 252   0.0000       1.447567        39.3903 
 253   0.0000       1.455814        39.6147 
 254   0.0000       1.467797        39.9408 
 255   0.0000       1.479623        40.2626 
 256   0.0000       1.487655        40.4812 
 257   0.0000       1.498127        40.7661 
 258   0.0000       1.513919        41.1958 
 259   0.0000       1.516726        41.2722 
 260   0.0000       1.521645        41.4061 
 261   0.0000       1.540484        41.9187 
 262   0.0000       1.542610        41.9765 
 263   0.0000       1.550596        42.1939 
 264   0.0000       1.554895        42.3108 
 265   0.0000       1.561995        42.5041 
 266   0.0000       1.570654        42.7397 
 267   0.0000       1.580088        42.9964 
 268   0.0000       1.581200        43.0267 
 269   0.0000       1.598949        43.5096 
 270   0.0000       1.606043        43.7026 
 271   0.0000       1.610126        43.8138 
 272   0.0000       1.615861        43.9698 
 273   0.0000       1.621826        44.1321 
 274   0.0000       1.625887        44.2426 
 275   0.0000       1.631851        44.4049 
 276   0.0000       1.633625        44.4532 
 277   0.0000       1.639055        44.6010 
 278   0.0000       1.646211        44.7957 
 279   0.0000       1.649216        44.8774 
 280   0.0000       1.653646        44.9980 
 281   0.0000       1.659157        45.1479 
 282   0.0000       1.664678        45.2982 
 283   0.0000       1.665042        45.3081 
 284   0.0000       1.665739        45.3271 
 285   0.0000       1.668233        45.3949 
 286   0.0000       1.669108        45.4187 
 287   0.0000       1.674683        45.5705 
 288   0.0000       1.678480        45.6738 
 289   0.0000       1.681305        45.7506 
 290   0.0000       1.682809        45.7916 
 291   0.0000       1.684309        45.8324 
 292   0.0000       1.687307        45.9140 
 293   0.0000       1.689487        45.9733 
 294   0.0000       1.692383        46.0521 
 295   0.0000       1.694593        46.1122 
 296   0.0000       1.695282        46.1310 
 297   0.0000       1.696887        46.1747 
 298   0.0000       1.697299        46.1859 
 299   0.0000       1.700555        46.2744 
 300   0.0000       1.701066        46.2884 
 301   0.0000       1.701957        46.3126 
 302   0.0000       1.703839        46.3638 
 303   0.0000       1.707465        46.4625 
 304   0.0000       1.710733        46.5514 
 305   0.0000       1.711277        46.5662 
 306   0.0000       1.714874        46.6641 
 307   0.0000       1.715231        46.6738 
 308   0.0000       1.717708        46.7412 
 309   0.0000       1.718940        46.7747 
 310   0.0000       1.722353        46.8676 
 311   0.0000       1.724390        46.9230 
 312   0.0000       1.725483        46.9528 
 313   0.0000       1.729120        47.0517 
 314   0.0000       1.731630        47.1201 
 315   0.0000       1.734095        47.1871 
 316   0.0000       1.735085        47.2141 
 317   0.0000       1.736779        47.2602 
 318   0.0000       1.738228        47.2996 
 319   0.0000       1.740607        47.3643 
 320   0.0000       1.744324        47.4655 
 321   0.0000       1.746970        47.5375 
 322   0.0000       1.748358        47.5752 
 323   0.0000       1.749091        47.5952 
 324   0.0000       1.749976        47.6193 
 325   0.0000       1.758189        47.8427 
 326   0.0000       1.759090        47.8673 
 327   0.0000       1.764166        48.0054 
 328   0.0000       1.765663        48.0461 
 329   0.0000       1.767026        48.0832 
 330   0.0000       1.768761        48.1304 
 331   0.0000       1.770167        48.1687 
 332   0.0000       1.771848        48.2144 
 333   0.0000       1.776890        48.3516 
 334   0.0000       1.782729        48.5105 
 335   0.0000       1.783565        48.5333 
 336   0.0000       1.787885        48.6508 
 337   0.0000       1.789250        48.6880 
 338   0.0000       1.799128        48.9568 
 339   0.0000       1.800977        49.0071 
 340   0.0000       1.803687        49.0808 
 341   0.0000       1.805442        49.1286 
 342   0.0000       1.806598        49.1600 
 343   0.0000       1.814757        49.3821 
 344   0.0000       1.817964        49.4693 
 345   0.0000       1.822064        49.5809 
 346   0.0000       1.830454        49.8092 
 347   0.0000       1.837572        50.0029 
 348   0.0000       1.840818        50.0912 
 349   0.0000       1.853605        50.4391 
 350   0.0000       1.862952        50.6935 
 351   0.0000       1.869782        50.8794 
 352   0.0000       1.881195        51.1899 
 353   0.0000       1.903083        51.7855 
 354   0.0000       1.919196        52.2240 
 355   0.0000       1.929945        52.5165 
 356   0.0000       1.941834        52.8400 
 357   0.0000       1.957466        53.2654 
 358   0.0000       1.968152        53.5561 
 359   0.0000       2.003075        54.5064 
 360   0.0000       2.028409        55.1958 
 361   0.0000       2.049412        55.7673 
 362   0.0000       2.053985        55.8918 
 363   0.0000       2.069374        56.3105 
 364   0.0000       2.070424        56.3391 
 365   0.0000       2.109748        57.4091 
 366   0.0000       2.121832        57.7380 
 367   0.0000       2.165628        58.9297 
 368   0.0000       2.188324        59.5473 
 369   0.0000       2.356676        64.1284 
 370   0.0000       2.386761        64.9471 
 371   0.0000       2.456626        66.8482 
 372   0.0000       2.495248        67.8992 
 373   0.0000       2.569726        69.9258 
 374   0.0000       2.591308        70.5131 
 375   0.0000       2.595810        70.6356 
 376   0.0000       2.621206        71.3266 
 377   0.0000       2.645368        71.9841 
 378   0.0000       2.713016        73.8249 
 379   0.0000       2.719236        73.9942 
 380   0.0000       2.760887        75.1276 
 381   0.0000       2.762893        75.1821 
 382   0.0000       3.373877        91.8079 
 383   0.0000       3.735021       101.6351 
 384   0.0000       3.742474       101.8379 
 385   0.0000       3.858944       105.0072 
 386   0.0000       3.886176       105.7482 
 387   0.0000       3.910266       106.4038 
 388   0.0000       4.104404       111.6865 
 389   0.0000       4.109117       111.8147 
 390   0.0000       4.113688       111.9391 
 391   0.0000       4.116683       112.0206 
 392   0.0000       4.129327       112.3647 
 393   0.0000       4.149256       112.9070 
 394   0.0000       4.154200       113.0415 
 395   0.0000      23.451986       638.1610 
 396   0.0000      23.744787       646.1285 
 397   0.0000      23.938721       651.4057 
 398   0.0000      24.231852       659.3822 
 399   0.0000      24.499618       666.6685 
 400   0.0000      24.596648       669.3088 
 401   0.0000      24.688101       671.7974 
 402   0.0000      24.782843       674.3755 
 403   0.0000      25.165952       684.8004 
 404   0.0000      25.299684       688.4394 
 405   0.0000      25.443235       692.3456 
 406   0.0000      25.602011       696.6661 
 407   0.0000      25.685210       698.9301 
 408   0.0000      25.849644       703.4046 
 409   0.0000      25.983091       707.0359 
 410   0.0000      26.429643       719.1871 
 411   0.0000      26.472681       720.3583 
 412   0.0000      26.636257       724.8094 
 413   0.0000      26.742268       727.6941 
 414   0.0000      26.862682       730.9707 
 415   0.0000      26.927522       732.7351 
 416   0.0000      26.939071       733.0494 
 417   0.0000      27.239480       741.2239 
 418   0.0000      27.374738       744.9045 
 419   0.0000      27.541754       749.4492 
 420   0.0000      28.019725       762.4555 
 421   0.0000      28.049425       763.2636 
 422   0.0000      28.075831       763.9822 
 423   0.0000      28.326316       770.7983 
 424   0.0000      28.494051       775.3625 
 425   0.0000      44.091100      1199.7798 
 426   0.0000      44.175343      1202.0722 
 427   0.0000      44.205840      1202.9021 
 428   0.0000      44.250438      1204.1156 
 429   0.0000      44.261859      1204.4264 
 430   0.0000      44.291904      1205.2440 
 431   0.0000      44.340259      1206.5598 
 432   0.0000      44.359153      1207.0739 
 433   0.0000      44.396004      1208.0767 
 434   0.0000      44.397157      1208.1081 
 435   0.0000     202.666788      5514.8437 
 436   0.0000     202.701529      5515.7890 
 437   0.0000     202.711651      5516.0645 
 438   0.0000     202.731390      5516.6016 
 439   0.0000     202.733835      5516.6681 
 440   0.0000     202.752253      5517.1693 
 441   0.0000     202.766199      5517.5488 
 442   0.0000     202.781453      5517.9639 
 443   0.0000     202.788821      5518.1644 
 444   0.0000     202.789312      5518.1777 

                 SPIN DOWN ORBITALS
  NO   OCC          E(Eh)            E(eV) 
   0   1.0000    -258.338163     -7029.7388 
   1   1.0000     -30.807123      -838.3044 
   2   1.0000     -26.518871      -721.6152 
   3   1.0000     -26.511216      -721.4069 
   4   1.0000     -26.510017      -721.3742 
   5   1.0000      -4.405056      -119.8677 
   6   1.0000      -4.404007      -119.8391 
   7   1.0000      -4.403829      -119.8343 
   8   1.0000      -4.397250      -119.6552 
   9   1.0000      -4.397208      -119.6541 
  10   1.0000      -4.389900      -119.4553 
  11   1.0000      -4.387287      -119.3841 
  12   1.0000      -4.387275      -119.3838 
  13   1.0000      -4.383005      -119.2676 
  14   1.0000      -4.382687      -119.2590 
  15   1.0000      -3.667788       -99.8056 
  16   1.0000      -2.528368       -68.8004 
  17   1.0000      -2.524030       -68.6823 
  18   1.0000      -2.523901       -68.6788 
  19   1.0000      -2.522293       -68.6351 
  20   1.0000      -2.522122       -68.6304 
  21   1.0000      -2.521424       -68.6114 
  22   1.0000      -2.519235       -68.5519 
  23   1.0000      -2.519040       -68.5466 
  24   1.0000      -2.518433       -68.5300 
  25   1.0000      -2.518274       -68.5257 
  26   1.0000      -2.517588       -68.5071 
  27   1.0000      -2.515194       -68.4419 
  28   1.0000      -2.515011       -68.4369 
  29   1.0000      -2.510893       -68.3249 
  30   1.0000      -2.510365       -68.3105 
  31   1.0000      -2.510152       -68.3047 
  32   1.0000      -2.507319       -68.2276 
  33   1.0000      -2.505684       -68.1831 
  34   1.0000      -2.504361       -68.1471 
  35   1.0000      -2.503887       -68.1342 
  36   1.0000      -2.502850       -68.1060 
  37   1.0000      -2.502303       -68.0911 
  38   1.0000      -2.501375       -68.0659 
  39   1.0000      -2.501208       -68.0613 
  40   1.0000      -2.500721       -68.0481 
  41   1.0000      -2.499717       -68.0207 
  42   1.0000      -2.499381       -68.0116 
  43   1.0000      -2.497240       -67.9534 
  44   1.0000      -2.496872       -67.9433 
  45   1.0000      -2.496116       -67.9228 
  46   1.0000      -2.347551       -63.8801 
  47   1.0000      -2.345427       -63.8223 
  48   1.0000      -2.331638       -63.4471 
  49   1.0000      -0.497118       -13.5273 
  50   1.0000      -0.476554       -12.9677 
  51   1.0000      -0.472998       -12.8709 
  52   1.0000      -0.460398       -12.5281 
  53   1.0000      -0.457346       -12.4450 
  54   1.0000      -0.454627       -12.3710 
  55   1.0000      -0.453356       -12.3364 
  56   1.0000      -0.452987       -12.3264 
  57   1.0000      -0.450372       -12.2553 
  58   1.0000      -0.441757       -12.0208 
  59   1.0000      -0.440685       -11.9916 
  60   1.0000      -0.433146       -11.7865 
  61   1.0000      -0.428655       -11.6643 
  62   1.0000      -0.425319       -11.5735 
  63   1.0000      -0.422963       -11.5094 
  64   1.0000      -0.422429       -11.4949 
  65   1.0000      -0.419430       -11.4133 
  66   1.0000      -0.415725       -11.3125 
  67   1.0000      -0.414781       -11.2868 
  68   1.0000      -0.412032       -11.2119 
  69   1.0000      -0.407275       -11.0825 
  70   1.0000      -0.406696       -11.0667 
  71   1.0000      -0.399316       -10.8659 
  72   1.0000      -0.396223       -10.7818 
  73   1.0000      -0.392540       -10.6816 
  74   1.0000      -0.388633       -10.5753 
  75   1.0000      -0.386576       -10.5193 
  76   1.0000      -0.384682       -10.4677 
  77   1.0000      -0.382961       -10.4209 
  78   1.0000      -0.379369       -10.3232 
  79   1.0000      -0.377770       -10.2797 
  80   1.0000      -0.375675       -10.2226 
  81   1.0000      -0.374079       -10.1792 
  82   1.0000      -0.365714        -9.9516 
  83   1.0000      -0.365428        -9.9438 
  84   1.0000      -0.364093        -9.9075 
  85   1.0000      -0.362615        -9.8672 
  86   1.0000      -0.361027        -9.8240 
  87   1.0000      -0.360219        -9.8021 
  88   1.0000      -0.356011        -9.6876 
  89   1.0000      -0.353636        -9.6229 
  90   1.0000      -0.352608        -9.5950 
  91   1.0000      -0.348322        -9.4783 
  92   1.0000      -0.347830        -9.4649 
  93   1.0000      -0.345746        -9.4082 
  94   1.0000      -0.344386        -9.3712 
  95   1.0000      -0.339166        -9.2292 
  96   1.0000      -0.335247        -9.1225 
  97   1.0000      -0.334578        -9.1043 
  98   1.0000      -0.327119        -8.9014 
  99   1.0000      -0.326815        -8.8931 
 100   1.0000      -0.318876        -8.6771 
 101   1.0000      -0.314635        -8.5617 
 102   1.0000      -0.297816        -8.1040 
 103   1.0000      -0.265184        -7.2160 
 104   1.0000      -0.234560        -6.3827 
 105   1.0000      -0.212871        -5.7925 
 106   0.0000      -0.093725        -2.5504 
 107   0.0000      -0.085967        -2.3393 
 108   0.0000      -0.075201        -2.0463 
 109   0.0000      -0.047705        -1.2981 
 110   0.0000      -0.034575        -0.9408 
 111   0.0000      -0.033428        -0.9096 
 112   0.0000      -0.007139        -0.1943 
 113   0.0000      -0.005425        -0.1476 
 114   0.0000      -0.001297        -0.0353 
 115   0.0000       0.001662         0.0452 
 116   0.0000       0.008649         0.2354 
 117   0.0000       0.009115         0.2480 
 118   0.0000       0.022483         0.6118 
 119   0.0000       0.027896         0.7591 
 120   0.0000       0.032021         0.8713 
 121   0.0000       0.047952         1.3048 
 122   0.0000       0.055733         1.5166 
 123   0.0000       0.057361         1.5609 
 124   0.0000       0.069717         1.8971 
 125   0.0000       0.082666         2.2494 
 126   0.0000       0.084426         2.2974 
 127   0.0000       0.091514         2.4902 
 128   0.0000       0.094903         2.5824 
 129   0.0000       0.099046         2.6952 
 130   0.0000       0.099828         2.7165 
 131   0.0000       0.104735         2.8500 
 132   0.0000       0.110294         3.0012 
 133   0.0000       0.114476         3.1150 
 134   0.0000       0.114794         3.1237 
 135   0.0000       0.119212         3.2439 
 136   0.0000       0.127240         3.4624 
 137   0.0000       0.134557         3.6615 
 138   0.0000       0.141844         3.8598 
 139   0.0000       0.147200         4.0055 
 140   0.0000       0.155290         4.2257 
 141   0.0000       0.164261         4.4698 
 142   0.0000       0.181217         4.9312 
 143   0.0000       0.181560         4.9405 
 144   0.0000       0.196425         5.3450 
 145   0.0000       0.206431         5.6173 
 146   0.0000       0.218701         5.9512 
 147   0.0000       0.225500         6.1362 
 148   0.0000       0.228090         6.2066 
 149   0.0000       0.252482         6.8704 
 150   0.0000       0.255883         6.9629 
 151   0.0000       0.262866         7.1530 
 152   0.0000       0.264246         7.1905 
 153   0.0000       0.281384         7.6568 
 154   0.0000       0.290312         7.8998 
 155   0.0000       0.294933         8.0255 
 156   0.0000       0.306838         8.3495 
 157   0.0000       0.310320         8.4442 
 158   0.0000       0.315208         8.5772 
 159   0.0000       0.326833         8.8936 
 160   0.0000       0.334111         9.0916 
 161   0.0000       0.338502         9.2111 
 162   0.0000       0.342352         9.3159 
 163   0.0000       0.345795         9.4095 
 164   0.0000       0.346838         9.4379 
 165   0.0000       0.355526         9.6743 
 166   0.0000       0.355887         9.6842 
 167   0.0000       0.362589         9.8665 
 168   0.0000       0.376081        10.2337 
 169   0.0000       0.378696        10.3048 
 170   0.0000       0.385658        10.4943 
 171   0.0000       0.387459        10.5433 
 172   0.0000       0.388436        10.5699 
 173   0.0000       0.389600        10.6015 
 174   0.0000       0.392796        10.6885 
 175   0.0000       0.403398        10.9770 
 176   0.0000       0.417072        11.3491 
 177   0.0000       0.419183        11.4066 
 178   0.0000       0.429333        11.6827 
 179   0.0000       0.433368        11.7925 
 180   0.0000       0.440554        11.9881 
 181   0.0000       0.445787        12.1305 
 182   0.0000       0.452188        12.3047 
 183   0.0000       0.458430        12.4745 
 184   0.0000       0.459555        12.5051 
 185   0.0000       0.472331        12.8528 
 186   0.0000       0.477898        13.0043 
 187   0.0000       0.481324        13.0975 
 188   0.0000       0.484973        13.1968 
 189   0.0000       0.486177        13.2296 
 190   0.0000       0.489457        13.3188 
 191   0.0000       0.504139        13.7183 
 192   0.0000       0.508974        13.8499 
 193   0.0000       0.513739        13.9796 
 194   0.0000       0.517649        14.0859 
 195   0.0000       0.518431        14.1072 
 196   0.0000       0.537641        14.6300 
 197   0.0000       0.540326        14.7030 
 198   0.0000       0.555360        15.1121 
 199   0.0000       0.556984        15.1563 
 200   0.0000       0.564908        15.3719 
 201   0.0000       0.566489        15.4149 
 202   0.0000       0.569528        15.4976 
 203   0.0000       0.582986        15.8639 
 204   0.0000       0.590772        16.0757 
 205   0.0000       0.601559        16.3692 
 206   0.0000       0.607515        16.5313 
 207   0.0000       0.611485        16.6393 
 208   0.0000       0.619577        16.8595 
 209   0.0000       0.625019        17.0076 
 210   0.0000       0.628780        17.1100 
 211   0.0000       0.630300        17.1513 
 212   0.0000       0.656554        17.8657 
 213   0.0000       0.669257        18.2114 
 214   0.0000       0.689540        18.7633 
 215   0.0000       0.769817        20.9478 
 216   0.0000       0.778254        21.1774 
 217   0.0000       0.791220        21.5302 
 218   0.0000       0.794419        21.6172 
 219   0.0000       0.801859        21.8197 
 220   0.0000       0.823546        22.4098 
 221   0.0000       0.844576        22.9821 
 222   0.0000       0.859047        23.3759 
 223   0.0000       0.863662        23.5014 
 224   0.0000       0.872321        23.7371 
 225   0.0000       0.889893        24.2152 
 226   0.0000       0.894830        24.3496 
 227   0.0000       0.919549        25.0222 
 228   0.0000       0.923193        25.1214 
 229   0.0000       0.927679        25.2434 
 230   0.0000       0.947231        25.7755 
 231   0.0000       0.953901        25.9570 
 232   0.0000       0.979516        26.6540 
 233   0.0000       0.989774        26.9331 
 234   0.0000       1.010517        27.4976 
 235   0.0000       1.022603        27.8264 
 236   0.0000       1.028699        27.9923 
 237   0.0000       1.044228        28.4149 
 238   0.0000       1.061882        28.8953 
 239   0.0000       1.071718        29.1629 
 240   0.0000       1.094116        29.7724 
 241   0.0000       1.098480        29.8912 
 242   0.0000       1.103573        30.0298 
 243   0.0000       1.134761        30.8784 
 244   0.0000       1.150005        31.2932 
 245   0.0000       1.170466        31.8500 
 246   0.0000       1.175261        31.9805 
 247   0.0000       1.234163        33.5833 
 248   0.0000       1.257899        34.2292 
 249   0.0000       1.396666        38.0052 
 250   0.0000       1.397130        38.0178 
 251   0.0000       1.432817        38.9889 
 252   0.0000       1.451297        39.4918 
 253   0.0000       1.458363        39.6841 
 254   0.0000       1.468247        39.9530 
 255   0.0000       1.480102        40.2756 
 256   0.0000       1.489459        40.5302 
 257   0.0000       1.498821        40.7850 
 258   0.0000       1.515556        41.2404 
 259   0.0000       1.517725        41.2994 
 260   0.0000       1.522357        41.4254 
 261   0.0000       1.541193        41.9380 
 262   0.0000       1.543512        42.0011 
 263   0.0000       1.551454        42.2172 
 264   0.0000       1.555883        42.3377 
 265   0.0000       1.563038        42.5324 
 266   0.0000       1.572138        42.7801 
 267   0.0000       1.581613        43.0379 
 268   0.0000       1.582077        43.0505 
 269   0.0000       1.601650        43.5831 
 270   0.0000       1.607686        43.7474 
 271   0.0000       1.610573        43.8259 
 272   0.0000       1.617071        44.0027 
 273   0.0000       1.624807        44.2132 
 274   0.0000       1.627691        44.2917 
 275   0.0000       1.633176        44.4410 
 276   0.0000       1.634792        44.4849 
 277   0.0000       1.644538        44.7502 
 278   0.0000       1.646491        44.8033 
 279   0.0000       1.650544        44.9136 
 280   0.0000       1.654910        45.0324 
 281   0.0000       1.660656        45.1887 
 282   0.0000       1.665197        45.3123 
 283   0.0000       1.666530        45.3486 
 284   0.0000       1.667923        45.3865 
 285   0.0000       1.670122        45.4463 
 286   0.0000       1.670981        45.4697 
 287   0.0000       1.677163        45.6379 
 288   0.0000       1.679256        45.6949 
 289   0.0000       1.682543        45.7843 
 290   0.0000       1.683820        45.8191 
 291   0.0000       1.685260        45.8583 
 292   0.0000       1.689592        45.9761 
 293   0.0000       1.691384        46.0249 
 294   0.0000       1.693476        46.0818 
 295   0.0000       1.695331        46.1323 
 296   0.0000       1.695979        46.1499 
 297   0.0000       1.697549        46.1926 
 298   0.0000       1.697976        46.2043 
 299   0.0000       1.701652        46.3043 
 300   0.0000       1.702842        46.3367 
 301   0.0000       1.703307        46.3493 
 302   0.0000       1.705056        46.3969 
 303   0.0000       1.709480        46.5173 
 304   0.0000       1.711811        46.5808 
 305   0.0000       1.712690        46.6047 
 306   0.0000       1.716762        46.7155 
 307   0.0000       1.717774        46.7430 
 308   0.0000       1.719149        46.7804 
 309   0.0000       1.720365        46.8135 
 310   0.0000       1.723710        46.9045 
 311   0.0000       1.725624        46.9566 
 312   0.0000       1.726935        46.9923 
 313   0.0000       1.730466        47.0884 
 314   0.0000       1.733397        47.1681 
 315   0.0000       1.735474        47.2247 
 316   0.0000       1.736892        47.2632 
 317   0.0000       1.737732        47.2861 
 318   0.0000       1.739827        47.3431 
 319   0.0000       1.741834        47.3977 
 320   0.0000       1.746011        47.5114 
 321   0.0000       1.748264        47.5727 
 322   0.0000       1.749817        47.6150 
[...]
      f+2     :     0.000742
      f-2     :     0.001076
      f+3     :     0.001006
      f-3     :     0.000857
  9 Aus       :     2.546126  s :     2.546126
      pz      :     2.329771  p :     6.533720
      px      :     2.115118
      py      :     2.088832
      dz2     :     1.985899  d :     9.941763
      dxz     :     1.992839
      dyz     :     1.989201
      dx2y2   :     1.991520
      dxy     :     1.982305
      f0      :     0.001036  f :     0.005376
      f+1     :     0.001253
      f-1     :     0.000859
      f+2     :     0.000866
      f-2     :     0.000709
      f+3     :     0.000353
      f-3     :     0.000300
 10 Fes       :     6.313350  s :     6.313350
      pz      :     4.188889  p :    12.628657
      px      :     4.206588
      py      :     4.233180
      dz2     :     1.679335  d :     7.183372
      dxz     :     1.315821
      dyz     :     1.313639
      dx2y2   :     1.424751
      dxy     :     1.449827
      f0      :     0.000077  f :     0.000644
      f+1     :     0.000098
      f-1     :     0.000085
      f+2     :     0.000093
      f-2     :     0.000104
      f+3     :     0.000091
      f-3     :     0.000096

SPIN
  0 Aus       :    -0.046382  s :    -0.046382
      pz      :    -0.053648  p :    -0.150975
      px      :    -0.088698
      py      :    -0.008629
      dz2     :    -0.003715  d :    -0.002058
      dxz     :    -0.004990
      dyz     :     0.002008
      dx2y2   :     0.002469
      dxy     :     0.002171
      f0      :     0.000005  f :    -0.000002
      f+1     :    -0.000021
      f-1     :     0.000014
      f+2     :    -0.000048
      f-2     :     0.000048
      f+3     :    -0.000016
      f-3     :     0.000016
  1 Aus       :    -0.093034  s :    -0.093034
      pz      :    -0.012902  p :    -0.051417
      px      :    -0.003037
      py      :    -0.035477
      dz2     :    -0.011374  d :    -0.015901
      dxz     :     0.002047
      dyz     :    -0.004953
      dx2y2   :     0.001802
      dxy     :    -0.003424
      f0      :    -0.000058  f :    -0.000113
      f+1     :    -0.000006
      f-1     :    -0.000034
      f+2     :    -0.000021
      f-2     :    -0.000007
      f+3     :    -0.000008
      f-3     :     0.000020
  2 Aus       :    -0.094082  s :    -0.094082
      pz      :    -0.019192  p :    -0.039918
      px      :     0.002380
      py      :    -0.023105
      dz2     :    -0.001093  d :    -0.011627
      dxz     :     0.002130
      dyz     :    -0.007987
      dx2y2   :    -0.006585
      dxy     :     0.001907
      f0      :    -0.000019  f :    -0.000078
      f+1     :    -0.000022
      f-1     :    -0.000029
      f+2     :    -0.000013
      f-2     :     0.000015
      f+3     :    -0.000009
      f-3     :    -0.000002
  3 Aus       :    -0.144056  s :    -0.144056
      pz      :    -0.011172  p :    -0.050150
      px      :    -0.002673
      py      :    -0.036305
      dz2     :    -0.007862  d :    -0.006346
      dxz     :    -0.002981
      dyz     :    -0.001735
      dx2y2   :     0.001302
      dxy     :     0.004930
      f0      :    -0.000036  f :    -0.000110
      f+1     :     0.000003
      f-1     :    -0.000013
      f+2     :    -0.000052
      f-2     :    -0.000009
      f+3     :     0.000006
      f-3     :    -0.000010
  4 Aus       :    -0.063518  s :    -0.063518
      pz      :    -0.045651  p :    -0.148815
      px      :    -0.074927
      py      :    -0.028237
      dz2     :     0.002266  d :     0.000830
      dxz     :     0.000512
      dyz     :    -0.001308
      dx2y2   :     0.007705
      dxy     :    -0.008345
      f0      :    -0.000059  f :     0.000002
      f+1     :    -0.000008
      f-1     :     0.000038
      f+2     :    -0.000059
      f-2     :     0.000021
      f+3     :     0.000002
      f-3     :     0.000067
  5 Aus       :    -0.145899  s :    -0.145899
      pz      :    -0.025340  p :    -0.039392
      px      :    -0.013172
      py      :    -0.000880
      dz2     :    -0.001110  d :    -0.006800
      dxz     :     0.008908
      dyz     :    -0.007673
      dx2y2   :    -0.005820
      dxy     :    -0.001105
      f0      :     0.000005  f :    -0.000106
      f+1     :    -0.000013
      f-1     :    -0.000043
      f+2     :     0.000001
      f-2     :    -0.000006
      f+3     :    -0.000055
      f-3     :     0.000004
  6 Aus       :     0.018999  s :     0.018999
      pz      :    -0.008602  p :    -0.074396
      px      :    -0.007597
      py      :    -0.058197
      dz2     :    -0.000145  d :    -0.011871
      dxz     :    -0.000780
      dyz     :    -0.000418
      dx2y2   :    -0.004051
      dxy     :    -0.006477
      f0      :    -0.000008  f :    -0.000295
      f+1     :    -0.000060
      f-1     :    -0.000018
      f+2     :    -0.000025
      f-2     :    -0.000071
      f+3     :    -0.000056
      f-3     :    -0.000056
  7 Aus       :     0.032468  s :     0.032468
      pz      :    -0.005994  p :    -0.040192
      px      :    -0.002764
      py      :    -0.031435
      dz2     :    -0.006917  d :    -0.019617
      dxz     :     0.000992
      dyz     :    -0.007155
      dx2y2   :     0.000344
      dxy     :    -0.006881
      f0      :    -0.000043  f :    -0.000122
      f+1     :    -0.000005
      f-1     :    -0.000005
      f+2     :    -0.000000
      f-2     :    -0.000041
      f+3     :    -0.000012
      f-3     :    -0.000018
  8 Aus       :    -0.113092  s :    -0.113092
      pz      :    -0.005257  p :    -0.031995
      px      :     0.003733
      py      :    -0.030472
      dz2     :     0.000439  d :     0.006541
      dxz     :     0.000530
      dyz     :     0.005513
      dx2y2   :     0.000897
      dxy     :    -0.000837
      f0      :     0.000005  f :     0.000048
      f+1     :    -0.000007
      f-1     :     0.000009
      f+2     :     0.000006
      f-2     :     0.000053
      f+3     :    -0.000019
      f-3     :     0.000002
  9 Aus       :    -0.112315  s :    -0.112315
      pz      :    -0.028108  p :    -0.041452
      px      :     0.001037
      py      :    -0.014380
      dz2     :     0.002962  d :     0.009189
      dxz     :     0.002108
      dyz     :    -0.002186
      dx2y2   :     0.002761
      dxy     :     0.003544
      f0      :    -0.000007  f :     0.000040
      f+1     :     0.000033
      f-1     :    -0.000002
      f+2     :    -0.000021
      f-2     :    -0.000006
      f+3     :    -0.000003
      f-3     :     0.000046
 10 Fes       :     0.026357  s :     0.026357
      pz      :     0.010417  p :     0.038241
      px      :     0.012789
      py      :     0.015034
      dz2     :     0.407317  d :     3.423477
      dxz     :     0.838792
      dyz     :     0.820587
      dx2y2   :     0.702136
      dxy     :     0.654645
      f0      :    -0.000016  f :    -0.000066
      f+1     :    -0.000027
      f-1     :     0.000003
      f+2     :    -0.000016
      f-2     :    -0.000017
      f+3     :    -0.000003
      f-3     :     0.000010


                      *****************************
                      * MAYER POPULATION ANALYSIS *
                      *****************************

  NA   - Mulliken gross atomic population
  ZA   - Total nuclear charge
  QA   - Mulliken gross atomic charge
  VA   - Mayer's total valence
  BVA  - Mayer's bonded valence
  FA   - Mayer's free valence

  ATOM       NA         ZA         QA         VA         BVA        FA
  0 Au    18.8464    19.0000     0.1536     1.5226     1.5027     0.0199
  1 Au    18.8438    19.0000     0.1562     1.3075     1.2582     0.0493
  2 Au    18.8620    19.0000     0.1380     1.3166     1.2670     0.0496
  3 Au    18.9252    19.0000     0.0748     1.4670     1.3567     0.1103
  4 Au    18.8619    19.0000     0.1381     1.5216     1.4922     0.0294
  5 Au    18.9328    19.0000     0.0672     1.4593     1.3490     0.1103
  6 Au    19.0090    19.0000    -0.0090     1.8424     1.8368     0.0056
  7 Au    18.6530    19.0000     0.3470     1.2116     1.2071     0.0045
  8 Au    19.0275    19.0000    -0.0275     1.8051     1.7400     0.0651
  9 Au    19.0069    19.0000    -0.0069     1.8029     1.7384     0.0645
 10 Fe    27.0317    26.0000    -1.0317     7.5592     4.0520     3.5072

  Mayer bond orders larger than 0.100000
B(  0-Au,  2-Au) :   0.1934 B(  0-Au,  9-Au) :   0.4690 B(  0-Au, 10-Fe) :   0.5938 
B(  1-Au,  2-Au) :   0.3399 B(  1-Au,  4-Au) :   0.2122 B(  1-Au,  5-Au) :   0.1621 
B(  1-Au, 10-Fe) :   0.3522 B(  2-Au,  3-Au) :   0.1570 B(  2-Au, 10-Fe) :   0.3780 
B(  3-Au,  5-Au) :   0.1397 B(  3-Au,  6-Au) :   0.3746 B(  3-Au, 10-Fe) :   0.4670 
B(  4-Au,  8-Au) :   0.4579 B(  4-Au, 10-Fe) :   0.5988 B(  5-Au,  6-Au) :   0.3488 
B(  5-Au, 10-Fe) :   0.4892 B(  6-Au,  7-Au) :   0.3087 B(  6-Au,  8-Au) :   0.2087 
B(  6-Au,  9-Au) :   0.2118 B(  6-Au, 10-Fe) :   0.2552 B(  7-Au,  8-Au) :   0.3407 
B(  7-Au,  9-Au) :   0.3505 B(  8-Au,  9-Au) :   0.1292 B(  8-Au, 10-Fe) :   0.4461 
B(  9-Au, 10-Fe) :   0.4303 

-------
TIMINGS
-------

Total SCF time: 0 days 0 hours 3 min 15 sec 

Total time                  ....     195.367 sec
Sum of individual times     ....     194.520 sec  ( 99.6%)

Fock matrix formation       ....     189.142 sec  ( 96.8%)
  Split-RI-J                ....      10.989 sec  (  5.8% of F)
  Chain of spheres X        ....     154.715 sec  ( 81.8% of F)
  XC integration            ....      22.843 sec  ( 12.1% of F)
    Basis function eval.    ....       3.677 sec  ( 16.1% of XC)
    Density eval.           ....      10.351 sec  ( 45.3% of XC)
    XC-Functional eval.     ....       0.685 sec  (  3.0% of XC)
    XC-Potential eval.      ....       7.358 sec  ( 32.2% of XC)
Diagonalization             ....       2.466 sec  (  1.3%)
Density matrix formation    ....       0.143 sec  (  0.1%)
Population analysis         ....       0.061 sec  (  0.0%)
Initial guess               ....       0.085 sec  (  0.0%)
Orbital Transformation      ....       0.000 sec  (  0.0%)
Orbital Orthonormalization  ....       0.068 sec  (  0.0%)
DIIS solution               ....       1.031 sec  (  0.5%)
Grid generation             ....       1.591 sec  (  0.8%)

Maximum memory used throughout the entire SCF-calculation: 110.1 MB


           ************************************************************
           *        Program running with 6 parallel MPI-processes     *
           *              working on a common directory               *
           ************************************************************

------------------------------------------------------------------------------
                                ORCA  MP2 
------------------------------------------------------------------------------

Freezing NCore=10 chemical core electrons

   <<< Use J-auxbasis for calculation of Separable RI-J derivative contributions (Dim=979) >>> 


-------------
RI-MP2 ENERGY
-------------
Dimension of the basis                    ...  445
Memory devoted to MP2                     ...  256 MB   
Data format for buffers                   ... DOUBLE
Compression type for matrix containers    ... UNCOMPRESSED
Overall scaling of the MP2 energy         ...   2.700e-01
Calculating two index integrals           ... done (    0.022 sec)
Cholesky decomposition of V**-1           ... done (    0.175 sec)

-----------------
RI-TRANSFORMATION (AUX index driven)
-----------------

Dimension of the orbital-basis         ... 445
Dimension of the aux-basis             ... 1692
Transformation of internal/external MOs...    5- 108 to  109- 444
Number Format for Storage              ... Double (8 Byte)
Integral mode                          ... Direct

First Phase: integral generation and transformation of MO indices
  Aux angular momentum 0               ... done (    0.073 sec)
  Aux angular momentum 1               ... done (    0.158 sec)
  Aux angular momentum 2               ... done (    0.237 sec)
  Aux angular momentum 3               ... done (    0.258 sec)
  Aux angular momentum 4               ... done (    0.207 sec)
  Aux angular momentum 5               ... done (    0.185 sec)
Closing buffer VIA ( 0.44 GB; CompressionRatio= 1.00)
  Phase 1 completed in     1.195 sec
Second Phase: sorting and transformation of aux index

IA-Transformation
Memory available                       ... 187 MB 
Max. # MO pairs treated in a batch     ... 18    
# of internal orbitals                 ... 104
# batches for internal orbitals        ... 1
Closing buffer IAV ( 0.44 GB; CompressionRatio= 1.00)
(ia|v) transformation done in     0.910 sec

  Phase 2 completed in     0.954 sec
RI-Integral transformation completed in     2.149 sec

-----------------
RI-TRANSFORMATION (AUX index driven)
-----------------

Dimension of the orbital-basis         ... 445
Dimension of the aux-basis             ... 1692
Transformation of internal/external MOs...    5- 106 to  107- 444
Number Format for Storage              ... Double (8 Byte)
Integral mode                          ... Direct

First Phase: integral generation and transformation of MO indices
  Aux angular momentum 0               ... done (    0.070 sec)
  Aux angular momentum 1               ... done (    0.165 sec)
  Aux angular momentum 2               ... done (    0.237 sec)
  Aux angular momentum 3               ... done (    0.265 sec)
  Aux angular momentum 4               ... done (    0.211 sec)
  Aux angular momentum 5               ... done (    0.186 sec)
Closing buffer VIA ( 0.43 GB; CompressionRatio= 1.00)
  Phase 1 completed in     1.214 sec
Second Phase: sorting and transformation of aux index

IA-Transformation
Memory available                       ... 187 MB 
Max. # MO pairs treated in a batch     ... 17    
# of internal orbitals                 ... 102
# batches for internal orbitals        ... 1
Closing buffer IAV ( 0.43 GB; CompressionRatio= 1.00)
(ia|v) transformation done in     0.882 sec

  Phase 2 completed in     0.924 sec
RI-Integral transformation completed in     2.138 sec
Opening buffers                              ... done

Starting loop over batches of integrals:

Operator 0  - window                       ... (  5-108)x(109-444)
Operator 0  - Memory available             ...   256 MB
Operator 0  - Memory needed per MO         ...   4.3 MB
Operator 0  - Number of orbitals per batch ... 18
Operator 0  - Number of batches            ... 1

OPERATOR  0   PASS   0:  MOs     5 ...   22 +   23 ...   40 +   41 ...   58 +   59 ...   76
                            +   77 ...   94 +   95 ...  108
  Reading integrals       ... ok
  Internal MO   7
  Internal MO  10
  Internal MO  13
  Internal MO  16
  Internal MO  19
  Internal MO  22

Operator 1  - window                       ... (  5-106)x(107-444)
Operator 1  - Memory available             ...   256 MB
Operator 1  - Memory needed per MO         ...   4.4 MB
Operator 1  - Number of orbitals per batch ... 17
Operator 1  - Number of batches            ... 1

OPERATOR  1   PASS   0:  MOs     5 ...   21 +   22 ...   38 +   39 ...   55 +   56 ...   72
                            +   73 ...   89 +   90 ...  106
  Reading integrals       ... ok
  Internal MO   7
  Internal MO  10
  Internal MO  13
  Internal MO  16
  Internal MO  19
Time spent in pair loops =    52.978 sec
Deleting buffer (Ka|jb)[aa] ...done
Deleting buffer (Ka|jb)[ba] ...done
Deleting buffer (Ka|jb)[ab] ...done
Deleting buffer (Ka|jb)[bb] ...done

Correlation energy components}
 E2 and T2 for alpha/alpha pairs :     -0.303377325 Eh      0.000000000
 E2 and T2 for beta/beta   pairs :     -0.301677985 Eh      0.000000000
 E2 and T2 for alpha/beta  pairs :     -1.041458151 Eh      0.000000000


-----------------------------------------------
 RI-MP2 CORRELATION ENERGY:     -1.646513461 Eh
-----------------------------------------------


-------
TIMINGS
-------

Total time                :   70.517 sec
Integral trafo            :    4.301 sec (  6.1%)
I/O of integrals          :    0.101 sec (  0.1%)
K(i,j) Operators          :   35.300 sec ( 50.1%)
T(i,j) pair energies      :    1.234 sec (  1.7%)
V-calculation             :    0.022 sec (  0.0%)
V**(-1/2)                 :    0.175 sec (  0.2%)
Gamma(ia|P)               :    0.000 sec (  0.0%)
Gamma-Trafo               :    0.000 sec (  0.0%)
D(virtual)                :    0.000 sec (  0.0%)
D(internal)               :    0.000 sec (  0.0%)
W(virtual)                :    0.000 sec (  0.0%)
W(internal)               :    0.000 sec (  0.0%)
L(virtual)                :    0.000 sec (  0.0%)
L(internal)               :    0.000 sec (  0.0%)
G(D)                      :    0.000 sec (  0.0%)
G(Z)                      :    0.000 sec (  0.0%)
Z-Vector Solution         :    0.000 sec (  0.0%)
3-Index Derivative        :    0.000 sec (  0.0%)
2-Index Derivative        :    0.000 sec (  0.0%)
Separable Gradient (RIJ)  :    0.000 sec (  0.0%)
Separable Gradient (COSX) :    0.000 sec (  0.0%)


---------------------------------------
MP2 TOTAL ENERGY:    -2619.328483333 Eh
---------------------------------------

Maximum memory used throughout the entire MP2-calculation: 194.6 MB

-------------------------   --------------------
FINAL SINGLE POINT ENERGY     -2619.328483332922
-------------------------   --------------------


                            ***************************************
                            *     ORCA property calculations      *
                            ***************************************


  WARNING: The energy has been calculated at the MP2 level but the densities
           used in the property calculations are still SCF densities
           MP2 response densities have not been calculated 
           use %mp2 Density relaxed end
           or  %mp2 Density unrelaxed end

                                    ---------------------
                                    Active property flags
                                    ---------------------
   (+) Dipole Moment


------------------------------------------------------------------------------
                       ORCA ELECTRIC PROPERTIES CALCULATION
------------------------------------------------------------------------------

Dipole Moment Calculation                       ... on
Quadrupole Moment Calculation                   ... off
Polarizability Calculation                      ... off
GBWName                                         ... b2plyp_job2.gbw
Electron density                                ... b2plyp_job2.scfp
The origin for moment calculation is the CENTER OF MASS  = (18.531131, 11.423511 14.451762)

-------------
DIPOLE MOMENT
-------------
                                X             Y             Z
Electronic contribution:      2.39246     -12.77589      25.90677
Nuclear contribution   :     -2.16580      12.70435     -25.66062
                        -----------------------------------------
Total Dipole Moment    :      0.22666      -0.07154       0.24615
                        -----------------------------------------
Magnitude (a.u.)       :      0.34217
Magnitude (Debye)      :      0.86974



--------------------
Rotational spectrum 
--------------------
 
Rotational constants in cm-1:     0.002273     0.001569     0.001248 
Rotational constants in MHz :    68.143328    47.038427    37.424704 

 Dipole components along the rotational axes: 
x,y,z [a.u.] :    -0.329172     0.023885    -0.090326 
x,y,z [Debye]:    -0.836688     0.060712    -0.229590 

 

Timings for individual modules:

Sum of individual times         ...      270.603 sec (=   4.510 min)
GTO integral calculation        ...        4.308 sec (=   0.072 min)   1.6 %
SCF iterations                  ...      195.491 sec (=   3.258 min)  72.2 %
MP2 module                      ...       70.804 sec (=   1.180 min)  26.2 %



                             ****ORCA TERMINATED NORMALLY****
TOTAL RUN TIME: 0 days 0 hours 10 minutes 36 seconds 944 msec
