
                                 *****************
                                 * O   R   C   A *
                                 *****************

                                            #,                                       
                                            ###                                      
                                            ####                                     
                                            #####                                    
                                            ######                                   
                                           ########,                                 
                                     ,,################,,,,,                         
                               ,,#################################,,                 
                          ,,##########################################,,             
                       ,#########################################, ''#####,          
                    ,#############################################,,   '####,        
                  ,##################################################,,,,####,       
                ,###########''''           ''''###############################       
              ,#####''   ,,,,##########,,,,          '''####'''          '####       
            ,##' ,,,,###########################,,,                        '##       
           ' ,,###''''                  '''############,,,                           
         ,,##''                                '''############,,,,        ,,,,,,###''
      ,#''                                            '''#######################'''  
     '                                                          ''''####''''         
             ,#######,   #######,   ,#######,      ##                                
            ,#'     '#,  ##    ##  ,#'     '#,    #''#        ######   ,####,        
            ##       ##  ##   ,#'  ##            #'  '#       #        #'  '#        
            ##       ##  #######   ##           ,######,      #####,   #    #        
            '#,     ,#'  ##    ##  '#,     ,#' ,#      #,         ##   #,  ,#        
             '#######'   ##     ##  '#######'  #'      '#     #####' # '####'        



                  #######################################################
                  #                        -***-                        #
                  #          Department of theory and spectroscopy      #
                  #    Directorship and core code : Frank Neese         #
                  #        Max Planck Institute fuer Kohlenforschung    #
                  #                Kaiser Wilhelm Platz 1               #
                  #                 D-45470 Muelheim/Ruhr               #
                  #                      Germany                        #
                  #                                                     #
                  #                  All rights reserved                #
                  #                        -***-                        #
                  #######################################################


                         Program Version 5.0.3 -  RELEASE  -


 With contributions from (in alphabetic order):
   Daniel Aravena         : Magnetic Suceptibility
   Michael Atanasov       : Ab Initio Ligand Field Theory (pilot matlab implementation)
   Alexander A. Auer      : GIAO ZORA, VPT2 properties, NMR spectrum
   Ute Becker             : Parallelization
   Giovanni Bistoni       : ED, misc. LED, open-shell LED, HFLD
   Martin Brehm           : Molecular dynamics
   Dmytro Bykov           : SCF Hessian
   Vijay G. Chilkuri      : MRCI spin determinant printing, contributions to CSF-ICE
   Dipayan Datta          : RHF DLPNO-CCSD density
   Achintya Kumar Dutta   : EOM-CC, STEOM-CC
   Dmitry Ganyushin       : Spin-Orbit,Spin-Spin,Magnetic field MRCI
   Miquel Garcia          : C-PCM and meta-GGA Hessian, CC/C-PCM, Gaussian charge scheme
   Yang Guo               : DLPNO-NEVPT2, F12-NEVPT2, CIM, IAO-localization
   Andreas Hansen         : Spin unrestricted coupled pair/coupled cluster methods
   Benjamin Helmich-Paris : MC-RPA, TRAH-SCF, COSX integrals
   Lee Huntington         : MR-EOM, pCC
   Robert Izsak           : Overlap fitted RIJCOSX, COSX-SCS-MP3, EOM
   Marcus Kettner         : VPT2
   Christian Kollmar      : KDIIS, OOCD, Brueckner-CCSD(T), CCSD density, CASPT2, CASPT2-K
   Simone Kossmann        : Meta GGA functionals, TD-DFT gradient, OOMP2, MP2 Hessian
   Martin Krupicka        : Initial AUTO-CI
   Lucas Lang             : DCDCAS
   Marvin Lechner         : AUTO-CI (C++ implementation), FIC-MRCC
   Dagmar Lenk            : GEPOL surface, SMD
   Dimitrios Liakos       : Extrapolation schemes; Compound Job, initial MDCI parallelization
   Dimitrios Manganas     : Further ROCIS development; embedding schemes
   Dimitrios Pantazis     : SARC Basis sets
   Anastasios Papadopoulos: AUTO-CI, single reference methods and gradients
   Taras Petrenko         : DFT Hessian,TD-DFT gradient, ASA, ECA, R-Raman, ABS, FL, XAS/XES, NRVS
   Peter Pinski           : DLPNO-MP2, DLPNO-MP2 Gradient
   Christoph Reimann      : Effective Core Potentials
   Marius Retegan         : Local ZFS, SOC
   Christoph Riplinger    : Optimizer, TS searches, QM/MM, DLPNO-CCSD(T), (RO)-DLPNO pert. Triples
   Tobias Risthaus        : Range-separated hybrids, TD-DFT gradient, RPA, STAB
   Michael Roemelt        : Original ROCIS implementation
   Masaaki Saitow         : Open-shell DLPNO-CCSD energy and density
   Barbara Sandhoefer     : DKH picture change effects
   Avijit Sen             : IP-ROCIS
   Kantharuban Sivalingam : CASSCF convergence, NEVPT2, FIC-MRCI
   Bernardo de Souza      : ESD, SOC TD-DFT
   Georgi Stoychev        : AutoAux, RI-MP2 NMR, DLPNO-MP2 response
   Willem Van den Heuvel  : Paramagnetic NMR
   Boris Wezisla          : Elementary symmetry handling
   Frank Wennmohs         : Technical directorship


 We gratefully acknowledge several colleagues who have allowed us to
 interface, adapt or use parts of their codes:
   Stefan Grimme, W. Hujo, H. Kruse, P. Pracht,  : VdW corrections, initial TS optimization,
                  C. Bannwarth, S. Ehlert          DFT functionals, gCP, sTDA/sTD-DF
   Ed Valeev, F. Pavosevic, A. Kumar             : LibInt (2-el integral package), F12 methods
   Garnet Chan, S. Sharma, J. Yang, R. Olivares  : DMRG
   Ulf Ekstrom                                   : XCFun DFT Library
   Mihaly Kallay                                 : mrcc  (arbitrary order and MRCC methods)
   Jiri Pittner, Ondrej Demel                    : Mk-CCSD
   Frank Weinhold                                : gennbo (NPA and NBO analysis)
   Christopher J. Cramer and Donald G. Truhlar   : smd solvation model
   Lars Goerigk                                  : TD-DFT with DH, B97 family of functionals
   V. Asgeirsson, H. Jonsson                     : NEB implementation
   FAccTs GmbH                                   : IRC, NEB, NEB-TS, DLPNO-Multilevel, CI-OPT
                                                   MM, QMMM, 2- and 3-layer-ONIOM, Crystal-QMMM,
                                                   LR-CPCM, SF, NACMEs, symmetry and pop. for TD-DFT,
                                                   nearIR, NL-DFT gradient (VV10), updates on ESD,
                                                   ML-optimized integration grids
   S Lehtola, MJT Oliveira, MAL Marques          : LibXC Library
   Liviu Ungur et al                             : ANISO software


 Your calculation uses the libint2 library for the computation of 2-el integrals
 For citations please refer to: http://libint.valeyev.net

 Your ORCA version has been built with support for libXC version: 5.1.0
 For citations please refer to: https://tddft.org/programs/libxc/

 This ORCA versions uses:
   CBLAS   interface :  Fast vector & matrix operations
   LAPACKE interface :  Fast linear algebra routines
   SCALAPACK package :  Parallel linear algebra routines
   Shared memory     :  Shared parallel matrices
   BLAS/LAPACK       :  OpenBLAS 0.3.15  USE64BITINT DYNAMIC_ARCH NO_AFFINITY Haswell SINGLE_THREADED
        Core in use  :  Haswell
   Copyright (c) 2011-2014, The OpenBLAS Project




***************************************
The coordinates will be read from file: pbe.xyz
***************************************


================================================================================

cite the ECPs for Au [Def2-ECP] as follows:
Ce-Yb(ecp-28): M. Dolg, H. Stoll, H.Preuss, J. Chem. Phys., 1989, 90, 1730-1734.
Y-Cd(ecp-28), Hf-Hg(ecp-46): D. Andrae,U. Haeussermann, M. Dolg, H. Stoll, H. Preuss, Theor. Chim. Acta, 1990, 77, 123-141.
In-Sb(ecp-28), Tl-Bi(ecp-46): B. Metz, H. Stoll, M. Dolg, J. Chem. Phys., 2000, 113, 2563-2569.
Te-Xe(ecp-28), Po-Rn(ecp-46): K. A. Peterson, D. Figgen, E. Goll, H. Stoll, M. Dolg, J. Chem. Phys., 2003, 119, 11113-11123.
Rb(ecp-28), Cs(ecp-46): T. Leininger, A. Nicklass, W. Kuechle, H. Stoll, M. Dolg, A. Bergner, Chem. Phys. Lett., 1996, 255, 274-280.
Sr(ecp-28), Ba(ecp-46): M. Kaupp, P. V. Schleyer, H. Stoll and H. Preuss, J. Chem. Phys., 1991, 94, 1360-1366.
La(ecp-46): M. Dolg, H. Stoll, A. Savin, H. Preuss, Theor. Chim. Acta, 1989, 75, 173-194.
Lu(ecp-28): X. Cao, M. Dolg, J. Chem. Phys., 2001, 115, 7348-7355.

ECP parameters for Au [Def2-ECP] have been obtained from:
TURBOMOLE (7.0.2)

----- Orbital basis set information -----
Your calculation utilizes the basis: def2-TZVP
   F. Weigend and R. Ahlrichs, Phys. Chem. Chem. Phys. 7, 3297 (2005).

----- AuxJ basis set information -----
Your calculation utilizes the auxiliary basis: def2/J
   F. Weigend, Phys. Chem. Chem. Phys. 8, 1057 (2006).

================================================================================
                                        WARNINGS
                       Please study these warnings very carefully!
================================================================================

Using LibXC functional ID 497 : Re-regularized SCAN exchange by Furness et al
[ 1]  J. W. Furness, A. D. Kaplan, J. Ning, J. P. Perdew, and J. Sun, J. Phys. Chem. Lett. 11, 8208 (2020)
[ 2]  J. W. Furness, A. D. Kaplan, J. Ning, J. P. Perdew, and J. Sun, J. Phys. Chem. Lett. 11, 9248 (2020)
Using LibXC functional ID 498 : Re-regularized SCAN correlation by Furness et al
[ 1]  J. W. Furness, A. D. Kaplan, J. Ning, J. P. Perdew, and J. Sun, J. Phys. Chem. Lett. 11, 8208 (2020)
[ 2]  J. W. Furness, A. D. Kaplan, J. Ning, J. P. Perdew, and J. Sun, J. Phys. Chem. Lett. 11, 9248 (2020)
Using LibXC functional ID 497 : Re-regularized SCAN exchange by Furness et al
[ 1]  J. W. Furness, A. D. Kaplan, J. Ning, J. P. Perdew, and J. Sun, J. Phys. Chem. Lett. 11, 8208 (2020)
[ 2]  J. W. Furness, A. D. Kaplan, J. Ning, J. P. Perdew, and J. Sun, J. Phys. Chem. Lett. 11, 9248 (2020)
Using LibXC functional ID 498 : Re-regularized SCAN correlation by Furness et al
[ 1]  J. W. Furness, A. D. Kaplan, J. Ning, J. P. Perdew, and J. Sun, J. Phys. Chem. Lett. 11, 8208 (2020)
[ 2]  J. W. Furness, A. D. Kaplan, J. Ning, J. P. Perdew, and J. Sun, J. Phys. Chem. Lett. 11, 9248 (2020)

WARNING: your system is open-shell and RHF/RKS was chosen
  ===> : WILL SWITCH to UHF/UKS


INFO   : the flag for use of the SHARK integral package has been found!



***************************************
The coordinates will be read from file: pbe.xyz
***************************************


================================================================================

cite the ECPs for Au [Def2-ECP] as follows:
Ce-Yb(ecp-28): M. Dolg, H. Stoll, H.Preuss, J. Chem. Phys., 1989, 90, 1730-1734.
Y-Cd(ecp-28), Hf-Hg(ecp-46): D. Andrae,U. Haeussermann, M. Dolg, H. Stoll, H. Preuss, Theor. Chim. Acta, 1990, 77, 123-141.
In-Sb(ecp-28), Tl-Bi(ecp-46): B. Metz, H. Stoll, M. Dolg, J. Chem. Phys., 2000, 113, 2563-2569.
Te-Xe(ecp-28), Po-Rn(ecp-46): K. A. Peterson, D. Figgen, E. Goll, H. Stoll, M. Dolg, J. Chem. Phys., 2003, 119, 11113-11123.
Rb(ecp-28), Cs(ecp-46): T. Leininger, A. Nicklass, W. Kuechle, H. Stoll, M. Dolg, A. Bergner, Chem. Phys. Lett., 1996, 255, 274-280.
Sr(ecp-28), Ba(ecp-46): M. Kaupp, P. V. Schleyer, H. Stoll and H. Preuss, J. Chem. Phys., 1991, 94, 1360-1366.
La(ecp-46): M. Dolg, H. Stoll, A. Savin, H. Preuss, Theor. Chim. Acta, 1989, 75, 173-194.
Lu(ecp-28): X. Cao, M. Dolg, J. Chem. Phys., 2001, 115, 7348-7355.

ECP parameters for Au [Def2-ECP] have been obtained from:
TURBOMOLE (7.0.2)

----- Orbital basis set information -----
Your calculation utilizes the basis: def2-TZVP
   F. Weigend and R. Ahlrichs, Phys. Chem. Chem. Phys. 7, 3297 (2005).

----- AuxJ basis set information -----
Your calculation utilizes the auxiliary basis: def2/J
   F. Weigend, Phys. Chem. Chem. Phys. 8, 1057 (2006).

================================================================================
                                        WARNINGS
                       Please study these warnings very carefully!
================================================================================

Using LibXC functional ID 497 : Re-regularized SCAN exchange by Furness et al
[ 1]  J. W. Furness, A. D. Kaplan, J. Ning, J. P. Perdew, and J. Sun, J. Phys. Chem. Lett. 11, 8208 (2020)
[ 2]  J. W. Furness, A. D. Kaplan, J. Ning, J. P. Perdew, and J. Sun, J. Phys. Chem. Lett. 11, 9248 (2020)
Using LibXC functional ID 498 : Re-regularized SCAN correlation by Furness et al
[ 1]  J. W. Furness, A. D. Kaplan, J. Ning, J. P. Perdew, and J. Sun, J. Phys. Chem. Lett. 11, 8208 (2020)
[ 2]  J. W. Furness, A. D. Kaplan, J. Ning, J. P. Perdew, and J. Sun, J. Phys. Chem. Lett. 11, 9248 (2020)
Using LibXC functional ID 497 : Re-regularized SCAN exchange by Furness et al
[ 1]  J. W. Furness, A. D. Kaplan, J. Ning, J. P. Perdew, and J. Sun, J. Phys. Chem. Lett. 11, 8208 (2020)
[ 2]  J. W. Furness, A. D. Kaplan, J. Ning, J. P. Perdew, and J. Sun, J. Phys. Chem. Lett. 11, 9248 (2020)
Using LibXC functional ID 498 : Re-regularized SCAN correlation by Furness et al
[ 1]  J. W. Furness, A. D. Kaplan, J. Ning, J. P. Perdew, and J. Sun, J. Phys. Chem. Lett. 11, 8208 (2020)
[ 2]  J. W. Furness, A. D. Kaplan, J. Ning, J. P. Perdew, and J. Sun, J. Phys. Chem. Lett. 11, 9248 (2020)

INFO   : the flag for use of the SHARK integral package has been found!

================================================================================
                                       INPUT FILE
================================================================================
NAME = scan.inp
|  1> !R2SCAN def2-TZVP VERYSLOWCONV
|  2> !KDIIS
|  3> %scf
|  4>   AutoTRAHIter 200
|  5>   maxiter 400
|  6> end
|  7> 
|  8> %pal nprocs 6 end 
|  9> 
| 10> *xyzfile 0 5 pbe.xyz
| 11> 
| 12> $new_job
| 13> 
| 14> !R2SCAN def2-TZVP VERYSLOWCONV
| 15> !KDIIS
| 16> %scf
| 17>   AutoTRAHIter 200
| 18>   maxiter 400
| 19> end
| 20> 
| 21> 
| 22> %pal nprocs 6 end 
| 23> 
| 24> *xyzfile 0 3 pbe.xyz
| 25> 
| 26> 
| 27> 
| 28> 
| 29> 
| 30>                          ****END OF INPUT****
================================================================================


                 $$$$$$$$$$$$$$$$$$$$$$$$$$$$$$$$$$$$$$$$$$$$$$ 
                 $ THERE ARE  2 JOBS TO BE PROCESSED THIS RUN $
                 $$$$$$$$$$$$$$$$$$$$$$$$$$$$$$$$$$$$$$$$$$$$$$ 




                 $$$$$$$$$$$$$$$$  JOB NUMBER  1 $$$$$$$$$$$$$$


                       ****************************
                       * Single Point Calculation *
                       ****************************

---------------------------------
CARTESIAN COORDINATES (ANGSTROEM)
---------------------------------
  Au     5.697073    7.389463    6.449546
  Au     5.422189    9.302488    8.463576
  Au     8.050630   10.240546    8.550103
  Au     7.825668    5.592484    6.392399
  Au     7.379487    7.435189    8.809886
  Au     9.505017    5.792541    8.641380
  Au    10.236171    8.509547    8.566879
  Au     9.441710   10.683490    6.182232
  Au    11.741726    9.107410    6.297997
  Au     6.752294   10.013767    5.995450
  Au     9.927090    8.739097    4.202428
  Au     7.220118    7.949812    4.187457
  Au     9.245886    6.034198    4.032037
  Au    10.789760    6.497782    6.292237
  Cr     8.642764    8.116631    6.479821

----------------------------
CARTESIAN COORDINATES (A.U.)
----------------------------
  NO LB      ZA    FRAG     MASS         X           Y           Z
   0 Au   19.0000*   0   196.966   10.765907   13.964062   12.187876
   1 Au   19.0000*   0   196.966   10.246452   17.579155   15.993841
   2 Au   19.0000*   0   196.966   15.213486   19.351828   16.157353
   3 Au   19.0000*   0   196.966   14.788370   10.568263   12.079884
   4 Au   19.0000*   0   196.966   13.945209   14.050472   16.648271
   5 Au   19.0000*   0   196.966   17.961879   10.946316   16.329841
   6 Au   19.0000*   0   196.966   19.343559   16.080712   16.189055
   7 Au   19.0000*   0   196.966   17.842247   20.188869   11.682725
   8 Au   19.0000*   0   196.966   22.188646   17.210511   11.901489
   9 Au   19.0000*   0   196.966   12.759986   18.923277   11.329759
  10 Au   19.0000*   0   196.966   18.759481   16.514500    7.941439
  11 Au   19.0000*   0   196.966   13.644046   15.022967    7.913147
  12 Au   19.0000*   0   196.966   17.472192   11.402983    7.619446
  13 Au   19.0000*   0   196.966   20.389691   12.279028   11.890605
  14 Cr   24.0000    0    52.000   16.332457   15.338210   12.245086
* core charge reduced due to ECP

--------------------------------
INTERNAL COORDINATES (ANGSTROEM)
--------------------------------
 Au     0   0   0     0.000000000000     0.00000000     0.00000000
 Au     1   0   0     2.791333577898     0.00000000     0.00000000
 Au     2   1   0     2.792157543034    99.20142679     0.00000000
 Au     1   2   3     2.786273203765   122.14322577    45.39504331
 Au     2   1   3     2.727223896107    63.36519469   306.20491217
 Au     5   2   1     2.691573402965   167.59893381    57.42385341
 Au     3   2   1     2.788051264994   121.97385592   314.12821425
 Au     3   2   1     2.781747409785   119.85917903    42.22876158
 Au     7   3   2     2.787823755479   106.57651773   119.80643634
 Au     8   3   2     2.777836553970    62.26965246     6.42800789
 Au     9   7   3     2.796420092596   103.36730959   302.23497996
 Au    10   8   3     2.783453001356    93.42410349   231.77756290
 Au     4   1   2     2.789881161497   107.70651818   241.06482155
 Au     6   5   2     2.768826106957   105.31298320     1.57782389
 Cr     4   1   2     2.654544661434    67.74183020   304.47787947

---------------------------
INTERNAL COORDINATES (A.U.)
---------------------------
 Au     0   0   0     0.000000000000     0.00000000     0.00000000
 Au     1   0   0     5.274856010645     0.00000000     0.00000000
 Au     2   1   0     5.276413079096    99.20142679     0.00000000
 Au     1   2   3     5.265293289400   122.14322577    45.39504331
 Au     2   1   3     5.153706269527    63.36519469   306.20491217
 Au     5   2   1     5.086336600949   167.59893381    57.42385341
 Au     3   2   1     5.268653338172   121.97385592   314.12821425
 Au     3   2   1     5.256740778239   119.85917903    42.22876158
 Au     7   3   2     5.268223407496   106.57651773   119.80643634
 Au     8   3   2     5.249350331799    62.26965246     6.42800789
 Au     9   7   3     5.284468130401   103.36730959   302.23497996
 Au    10   8   3     5.259963879205    93.42410349   231.77756290
 Au     4   1   2     5.272111341415   107.70651818   241.06482155
 Au     6   5   2     5.232323054601   105.31298320     1.57782389
 Cr     4   1   2     5.016362420373    67.74183020   304.47787947

---------------------
BASIS SET INFORMATION
---------------------
There are 2 groups of distinct atoms

 Group   1 Type Au  : 8s7p6d1f contracted to 6s4p3d1f pattern {311111/4111/411/1}
 Group   2 Type Cr  : 17s11p7d1f contracted to 6s4p4d1f pattern {842111/6311/4111/1}

Atom   0Au   basis set group =>   1
Atom   1Au   basis set group =>   1
Atom   2Au   basis set group =>   1
Atom   3Au   basis set group =>   1
Atom   4Au   basis set group =>   1
Atom   5Au   basis set group =>   1
Atom   6Au   basis set group =>   1
Atom   7Au   basis set group =>   1
Atom   8Au   basis set group =>   1
Atom   9Au   basis set group =>   1
Atom  10Au   basis set group =>   1
Atom  11Au   basis set group =>   1
Atom  12Au   basis set group =>   1
Atom  13Au   basis set group =>   1
Atom  14Cr   basis set group =>   2
---------------------------------
AUXILIARY/J BASIS SET INFORMATION
---------------------------------
There are 2 groups of distinct atoms

 Group   1 Type Au  : 11s5p5d3f3g contracted to 8s5p5d2f3g pattern {41111111/11111/11111/21/111}
 Group   2 Type Cr  : 19s5p5d3f3g contracted to 8s5p5d2f3g pattern {121111111/11111/11111/21/111}

Atom   0Au   basis set group =>   1
Atom   1Au   basis set group =>   1
Atom   2Au   basis set group =>   1
Atom   3Au   basis set group =>   1
Atom   4Au   basis set group =>   1
Atom   5Au   basis set group =>   1
Atom   6Au   basis set group =>   1
Atom   7Au   basis set group =>   1
Atom   8Au   basis set group =>   1
Atom   9Au   basis set group =>   1
Atom  10Au   basis set group =>   1
Atom  11Au   basis set group =>   1
Atom  12Au   basis set group =>   1
Atom  13Au   basis set group =>   1
Atom  14Cr   basis set group =>   2
-------------------------
ECP PARAMETER INFORMATION
-------------------------

 Group 1, Type Au ECP Def2-ECP (replacing 60 core electrons, lmax=3)

Atom   0Au   ECP group =>   1
Atom   1Au   ECP group =>   1
Atom   2Au   ECP group =>   1
Atom   3Au   ECP group =>   1
Atom   4Au   ECP group =>   1
Atom   5Au   ECP group =>   1
Atom   6Au   ECP group =>   1
Atom   7Au   ECP group =>   1
Atom   8Au   ECP group =>   1
Atom   9Au   ECP group =>   1
Atom  10Au   ECP group =>   1
Atom  11Au   ECP group =>   1
Atom  12Au   ECP group =>   1
Atom  13Au   ECP group =>   1



           ************************************************************
           *        Program running with 6 parallel MPI-processes     *
           *              working on a common directory               *
           ************************************************************
------------------------------------------------------------------------------
                           ORCA GTO INTEGRAL CALCULATION
                           -- RI-GTO INTEGRALS CHOSEN --
------------------------------------------------------------------------------
------------------------------------------------------------------------------
                   ___                                                        
                  /   \      - P O W E R E D   B Y -                         
                 /     \                                                     
                 |  |  |   _    _      __       _____    __    __             
                 |  |  |  | |  | |    /  \     |  _  \  |  |  /  |          
                  \  \/   | |  | |   /    \    | | | |  |  | /  /          
                 / \  \   | |__| |  /  /\  \   | |_| |  |  |/  /          
                |  |  |   |  __  | /  /__\  \  |    /   |      \           
                |  |  |   | |  | | |   __   |  |    \   |  |\   \          
                \     /   | |  | | |  |  |  |  | |\  \  |  | \   \       
                 \___/    |_|  |_| |__|  |__|  |_| \__\ |__|  \__/        
                                                                              
                      - O R C A' S   B I G   F R I E N D -                    
                                      &                                       
                       - I N T E G R A L  F E E D E R -                       
                                                                              
 v1 FN, 2020, v2 2021                                                         
------------------------------------------------------------------------------


Reading SHARK input file scan.SHARKINP.tmp ... ok
----------------------
SHARK INTEGRAL PACKAGE
----------------------

Number of atoms                             ...     15
Number of basis functions                   ...    605
Number of shells                            ...    211
Maximum angular momentum                    ...      3
Integral batch strategy                     ... SHARK/LIBINT Hybrid
RI-J (if used) integral strategy            ... SPLIT-RIJ (Revised 2003 algorithm where possible)
Printlevel                                  ...      1
Contraction scheme used                     ... SEGMENTED contraction
Coulomb Range Separation                    ... NOT USED
Exchange Range Separation                   ... NOT USED
Finite Nucleus Model                        ... NOT USED
Auxiliary Coulomb fitting basis             ... AVAILABLE
   # of basis functions in Aux-J            ...   1335
   # of shells in Aux-J                     ...    345
   Maximum angular momentum in Aux-J        ...      4
Auxiliary J/K fitting basis                 ... NOT available
Auxiliary Correlation fitting basis         ... NOT available
Auxiliary 'external' fitting basis          ... NOT available
Integral threshold                          ...     1.000000e-10
Primitive cut-off                           ...     1.000000e-11
Primitive pair pre-selection threshold      ...     1.000000e-11

Calculating pre-screening integrals         ... done (  0.2 sec) Dimension = 211
Organizing shell pair data                  ... done (  0.7 sec)
Shell pair information
Total number of shell pairs                 ...     22366
Shell pairs after pre-screening             ...     17948
Total number of primitive shell pairs       ...     59609
Primitive shell pairs kept                  ...     34744
          la=0 lb=0:   2819 shell pairs
          la=1 lb=0:   4091 shell pairs
          la=1 lb=1:   1554 shell pairs
          la=2 lb=0:   3551 shell pairs
          la=2 lb=1:   2526 shell pairs
          la=2 lb=2:   1030 shell pairs
          la=3 lb=0:    943 shell pairs
          la=3 lb=1:    714 shell pairs
          la=3 lb=2:    622 shell pairs
          la=3 lb=3:     98 shell pairs

Calculating one electron integrals          ... done (  0.1 sec)
Calculating ECP integrals                   ... done ( 22.4 sec)
Calculating RI/J V-Matrix + Cholesky decomp.... done (  3.1 sec)
Calculating Nuclear repulsion               ... done (  0.0 sec) ENN=   5649.108548930824 Eh

SHARK setup successfully completed in  27.8 seconds

Maximum memory used throughout the entire GTOINT-calculation: 34.7 MB


           ************************************************************
           *        Program running with 6 parallel MPI-processes     *
           *              working on a common directory               *
           ************************************************************
-------------------------------------------------------------------------------
                                 ORCA SCF
-------------------------------------------------------------------------------

------------
SCF SETTINGS
------------
Hamiltonian:
 Density Functional     Method          .... DFT(GTOs)
  Functional kind                       .... Exchange
  Functional name                       .... Re-regularized SCAN exchange by Furness et al
  Functional family                     .... MGGA
  Functional refs                              
    [ 0] J. W. Furness, A. D. Kaplan, J. Ning, J. P. Perdew, and J. Sun, J. Phys. Chem. Lett. 11, 8208 (2020)
    [ 1] J. W. Furness, A. D. Kaplan, J. Ning, J. P. Perdew, and J. Sun, J. Phys. Chem. Lett. 11, 9248 (2020)
  Functional external parameters         .... 8
 Parameter  0 :         c1 parameter
 Parameter  1 :         c2 parameter
 Parameter  2 :          d parameter
 Parameter  3 :         k1 parameter
 Parameter  4 :       taur parameter
 Parameter  5 :     alphar parameter
 Parameter  6 :        eta parameter
 Parameter  7 :        dp2 parameter
  Functional kind                       .... Correlation
  Functional name                       .... Re-regularized SCAN correlation by Furness et al
  Functional family                     .... MGGA
  Functional refs                              
    [ 0] J. W. Furness, A. D. Kaplan, J. Ning, J. P. Perdew, and J. Sun, J. Phys. Chem. Lett. 11, 8208 (2020)
    [ 1] J. W. Furness, A. D. Kaplan, J. Ning, J. P. Perdew, and J. Sun, J. Phys. Chem. Lett. 11, 9248 (2020)
  Functional external parameters         .... 0
 Gradients option       PostSCFGGA      .... off
   Density functional embedding theory  .... OFF
   NL short-range parameter             .... 12.300000
 RI-approximation to the Coulomb term is turned on
   Number of AuxJ basis functions       .... 1335


General Settings:
 Integral files         IntName         .... scan
 Hartree-Fock type      HFTyp           .... UHF
 Total Charge           Charge          ....    0
 Multiplicity           Mult            ....    5
 Number of Electrons    NEL             ....  290
 Basis Dimension        Dim             ....  605
 Nuclear Repulsion      ENuc            ....   5649.1085489308 Eh

Convergence Acceleration:
 DIIS                   CNVDIIS         .... off
 Trust-Rad. Augm. Hess. CNVTRAH         .... auto
   Auto Start mean grad. ratio tolernc. ....  1.125000
   Auto Start start iteration           ....   200
   Auto Start num. interpolation iter.  ....    10
   Max. Number of Micro iterations      ....    16
   Max. Number of Macro iterations      .... Maxiter - #DIIS iter
   Number of Davidson start vectors     ....     2
   Converg. threshold I  (grad. norm)   ....   5.000e-05
   Converg. threshold II (energy diff.) ....   1.000e-06
   Grad. Scal. Fac. for Micro threshold ....   0.100
   Minimum threshold for Micro iter.    ....   0.010
   NR start threshold (gradient norm)   ....   0.001
   Initial trust radius                 ....   0.400
   Minimum AH scaling param. (alpha)    ....   1.000
   Maximum AH scaling param. (alpha)    .... 1000.000
   Orbital update algorithm             .... Taylor
   White noise on init. David. guess    .... on
   Maximum white noise                  ....   0.010
   Quad. conv. algorithm                .... NR
 SOSCF                  CNVSOSCF        .... off
 Level Shifting         CNVShift        .... off
 Zerner damping         CNVZerner       .... off
 Static damping         CNVDamp         .... off
 Fernandez-Rico         CNVRico         .... off

SCF Procedure:
 Maximum # iterations   MaxIter         ....   400
 SCF integral mode      SCFMode         .... Direct
   Integral package                     .... SHARK and LIBINT hybrid scheme
 Reset frequency        DirectResetFreq ....    20
 Integral Threshold     Thresh          ....  1.000e-10 Eh
 Primitive CutOff       TCut            ....  1.000e-11 Eh

Convergence Tolerance:
 Convergence Check Mode ConvCheckMode   .... All-Criteria
 Convergence forced     ConvForced      .... 0
 Energy Change          TolE            ....  1.000e-06 Eh
 Max Density Change     TolMaxP         ....  1.000e-05
 RMS Density Change     TolRMSP         ....  1.000e-06


Diagonalization of the overlap matrix:
Smallest eigenvalue                        ... 8.378e-05
Time for diagonalization                   ...    0.124 sec
Threshold for overlap eigenvalues          ... 1.000e-08
Number of eigenvalues below threshold      ... 0
Time for construction of square roots      ...    0.225 sec
Total time needed                          ...    0.569 sec

Time for model grid setup =    3.145 sec

------------------------------
INITIAL GUESS: MODEL POTENTIAL
------------------------------
Loading Hartree-Fock densities                     ... done
  calling /media/Programs/ORCA501/orca scan_atom79.inp > scan_atom79.out in order to generate an atomic fitting density for atom 0 (Au with ECP) on-the-fly... 
    atom 0 (Au), assumed electronic state with S=2: 1s2 2s2 2p6 3s2 3p6 4s2 3d10 4p6 5s2 4d10 5p6 6s1 4f14 5d10           ... done
Calculating cut-offs                               ... done
Initializing the effective Hamiltonian             ... done
Setting up the integral package (SHARK)            ... done
Starting the Coulomb interaction                   ... done (   2.1 sec)
Reading the grid                                   ... done
Mapping shells                                     ... done
Starting the XC term evaluation                    ... done (   1.2 sec)
  promolecular density results
     # of electrons  =   1130.014324625
     EX              =  -5168.790139793
     EC              =    -68.863109104
     EX+EC           =  -5237.653248897
Transforming the Hamiltonian                       ... done (   1.0 sec)
Diagonalizing the Hamiltonian                      ... done (   1.0 sec)
Back transforming the eigenvectors                 ... done (   0.1 sec)
Now organizing SCF variables                       ... done
                      ------------------
                      INITIAL GUESS DONE (  10.7 sec)
                      ------------------
-------------------
DFT GRID GENERATION
-------------------

General Integration Accuracy     IntAcc      ... 4.388
Radial Grid Type                 RadialGrid  ... OptM3 with GC (2021)
Angular Grid (max. ang.)         AngularGrid ... 4 (Lebedev-302)
Angular grid pruning method      GridPruning ... 4 (adaptive)
Weight generation scheme         WeightScheme... Becke
Basis function cutoff            BFCut       ... 1.0000e-10
Integration weight cutoff        WCut        ... 1.0000e-14
Angular grids for H and He will be reduced by one unit
Partially contracted basis set               ... off
Rotationally invariant grid construction     ... off

Total number of grid points                  ...   165645
Total number of batches                      ...     2595
Average number of points per batch           ...       63
Average number of grid points per atom       ...    11043
Time for grid setup =    6.021 sec

--------------
SCF ITERATIONS
--------------
ITER       Energy         Delta-E        Max-DP      RMS-DP      [F,P]   Gradient Norm
               ***  Starting incremental Fock matrix formation  ***
                             ****Resetting KDIIS****
                             ****Turning on KDIIS(Cayley)****
  0  -2944.0761328313   0.000000000000 0.33901688  0.00188952  0.4793710   0.225160407
  1  -2945.2399044049  -1.163771573578 1.29734107  0.00325106  0.3473012   0.173364611
  2  -2945.7970560144  -0.557151609526 0.25479845  0.00155981  0.2747586   0.129673079
  3  -2946.0869431310  -0.289887116530 0.65380721  0.00205996  0.1608461   0.076157338
  4  -2946.1770852636  -0.090142132657 0.11453818  0.00066060  0.0584450   0.024091953
  5  -2946.2316032800  -0.054518016414 0.30416133  0.00073472  0.0388728   0.006398263
  6  -2946.2527010516  -0.021097771588 0.40575506  0.00109637  0.0317714   0.005949326
  7  -2946.2687076654  -0.016006613819 0.17724943  0.00047782  0.0220073   0.011153051
  8  -2946.2836034839  -0.014895818498 0.10616399  0.00035560  0.0092725   0.006008520
  9  -2946.2900663749  -0.006462890939 0.04747018  0.00020609  0.0107752   0.004119669
 10  -2946.2915737128  -0.001507337876 0.08662898  0.00019002  0.0051357   0.003255170
 11  -2946.2940719465  -0.002498233701 0.03170923  0.00008754  0.0042158   0.001391494
 12  -2946.2946044806  -0.000532534106 0.03748846  0.00011271  0.0044533   0.001652760
 13  -2946.2957543356  -0.001149855017 0.03110207  0.00008617  0.0035458   0.001378691
 14  -2946.2956912855   0.000063050073 0.03215922  0.00008473  0.0038421   0.001232979
 15  -2946.2961284125  -0.000437126970 0.01889403  0.00005393  0.0053682   0.001486197
 16  -2946.2965267461  -0.000398333614 0.00294172  0.00003483  0.0025717   0.000884381
 17  -2946.2966054841  -0.000078737991 0.02306725  0.00004982  0.0027310   0.000711767
 18  -2946.2968785274  -0.000273043310 0.01252847  0.00003603  0.0027755   0.000669372
 19  -2946.2970685732  -0.000190045841 0.00803375  0.00002726  0.0028442   0.000481592
               *** Restarting incremental Fock matrix formation ***
                             ****Resetting KDIIS****
 20  -2946.2971072141  -0.000038640900 0.00344200  0.00000850  0.0026540   0.000569162
 21  -2946.2971410923  -0.000033878153 0.00247580  0.00000721  0.0026710   0.000405003
 22  -2946.2971886751  -0.000047582833 0.00318742  0.00001244  0.0027137   0.000359625
 23  -2946.2972745871  -0.000085911976 0.02727091  0.00013068  0.0027149   0.000319678
 24  -2946.2980735812  -0.000798994145 0.01292733  0.00005013  0.0026156   0.000401353
 25  -2946.2983387797  -0.000265198457 0.01194560  0.00004668  0.0025609   0.000244525
 26  -2946.2985581691  -0.000219389430 0.00993714  0.00003239  0.0024843   0.000252551
 27  -2946.2986963915  -0.000138222352 0.02219196  0.00020198  0.0023954   0.000284764
 28  -2946.2994568393  -0.000760447862 0.01699433  0.00011619  0.0018149   0.000450120
 29  -2946.2997447278  -0.000287888477 0.01011295  0.00003629  0.0012135   0.000320869
 30  -2946.2997007383   0.000043989508 0.00950287  0.00006667  0.0015261   0.000285065
 31  -2946.2998326255  -0.000131887235 0.00282214  0.00001122  0.0011479   0.000214589
 32  -2946.2998481646  -0.000015539041 0.00805055  0.00001853  0.0011295   0.000178313
 33  -2946.2998593113  -0.000011146709 0.00486854  0.00001504  0.0011805   0.000218039
 34  -2946.2998817908  -0.000022479498 0.00305316  0.00000683  0.0010891   0.000155270
 35  -2946.2998923996  -0.000010608844 0.00486705  0.00001113  0.0011994   0.000209852
 36  -2946.2998994514  -0.000007051803 0.00118480  0.00001045  0.0010866   0.000128542
 37  -2946.2999189715  -0.000019520036 0.00078449  0.00000477  0.0011100   0.000133763
 38  -2946.2999239695  -0.000004997999 0.00275345  0.00001144  0.0010960   0.000124495
 39  -2946.2999446277  -0.000020658231 0.00450072  0.00000955  0.0010446   0.000142920
               *** Restarting incremental Fock matrix formation ***
                             ****Resetting KDIIS****
 40  -2946.2999485332  -0.000003905542 0.00063520  0.00000173  0.0010848   0.000128881
 41  -2946.2999500136  -0.000001480322 0.00102266  0.00000244  0.0010693   0.000109139
 42  -2946.2999540775  -0.000004063936 0.00168272  0.00000497  0.0010697   0.000104826
 43  -2946.2999623142  -0.000008236686 0.00990363  0.00013638  0.0010513   0.000102225
 44  -2946.3001814217  -0.000219107460 0.00797144  0.00007744  0.0007872   0.000197574
 45  -2946.3002689134  -0.000087491763 0.01154418  0.00002640  0.0005656   0.000092783
 46  -2946.3002713723  -0.000002458860 0.00180449  0.00002186  0.0006161   0.000114968
 47  -2946.3002924892  -0.000021116959 0.00211223  0.00002474  0.0005399   0.000087215
 48  -2946.3003140726  -0.000021583363 0.00308399  0.00002972  0.0004724   0.000078352
 49  -2946.3003405275  -0.000026454916 0.00615544  0.00007572  0.0003585   0.000101877
 50  -2946.3003945515  -0.000054024020 0.00357088  0.00003133  0.0003791   0.000060191
 51  -2946.3004135607  -0.000019009215 0.00301277  0.00003948  0.0003708   0.000091132
 52  -2946.3004278789  -0.000014318166 0.00085102  0.00001223  0.0003495   0.000060255
 53  -2946.3004343834  -0.000006504457 0.00177201  0.00000556  0.0003494   0.000054807
 54  -2946.3004382018  -0.000003818403 0.00352205  0.00004380  0.0003359   0.000082337
 55  -2946.3004477209  -0.000009519084 0.00089776  0.00000782  0.0003021   0.000043701
 56  -2946.3004510152  -0.000003294300 0.00228128  0.00003407  0.0002951   0.000048353
 57  -2946.3004584519  -0.000007436751 0.00158287  0.00000675  0.0002895   0.000044553
 58  -2946.3004612997  -0.000002847790 0.00059320  0.00000645  0.0002931   0.000063364
 59  -2946.3004637397  -0.000002439957 0.00165234  0.00002023  0.0002953   0.000053478
               *** Restarting incremental Fock matrix formation ***
                             ****Resetting KDIIS****
                           ***RMSP convergence achieved***
 60  -2946.3004697589  -0.000006019224 0.00050599  0.00000092  0.0002729   0.000043272
                          ***Energy convergence achieved***
 61  -2946.3004703279  -0.000000569002 0.00145084  0.00000227  0.0002722   0.000032312
 62  -2946.3004704924  -0.000000164524 0.00208162  0.00000334  0.0002721   0.000029554
 63  -2946.3004712141  -0.000000721664 0.00448308  0.00002017  0.0002678   0.000026389
 64  -2946.3004796827  -0.000008468657 0.00302304  0.00002175  0.0001940   0.000048950
 65  -2946.3004862371  -0.000006554415 0.00663664  0.00001643  0.0001282   0.000029294
                          ***Energy convergence achieved***
 66  -2946.3004872317  -0.000000994542 0.00075798  0.00000743  0.0001048   0.000033492
 67  -2946.3004889569  -0.000001725175 0.00046703  0.00000136  0.0000787   0.000011253
                          ***Energy convergence achieved***
 68  -2946.3004893872  -0.000000430301 0.00053774  0.00000244  0.0000720   0.000010505
 69  -2946.3004898657  -0.000000478500 0.00083764  0.00000207  0.0000638   0.000007686
 70  -2946.3004902080  -0.000000342289 0.00046757  0.00000122  0.0000583   0.000008975
 71  -2946.3004907132  -0.000000505257 0.00064911  0.00000182  0.0000513   0.000009587
 72  -2946.3004908296  -0.000000116347 0.00104569  0.00000170  0.0000491   0.000006650
 73  -2946.3004910384  -0.000000208840 0.00110525  0.00000180  0.0000489   0.000007547
 74  -2946.3004912525  -0.000000214074 0.00095346  0.00000141  0.0000517   0.000005935
 75  -2946.3004914060  -0.000000153485 0.00097525  0.00000175  0.0000512   0.000006589
 76  -2946.3004915677  -0.000000161723 0.00071153  0.00000137  0.0000534   0.000006418
 77  -2946.3004916497  -0.000000082034 0.00114618  0.00000167  0.0000483   0.000007211
 78  -2946.3004917365  -0.000000086828 0.00086577  0.00000266  0.0000519   0.000006712
 79  -2946.3004920335  -0.000000296980 0.00301371  0.00000484  0.0000519   0.000007394
               *** Restarting incremental Fock matrix formation ***
                             ****Resetting KDIIS****
                           ***RMSP convergence achieved***
 80  -2946.3004915323   0.000000501190 0.00049816  0.00000074  0.0000497   0.000006127
 81  -2946.3004916988  -0.000000166480 0.00087859  0.00000136  0.0000498   0.000005607
 82  -2946.3004917763  -0.000000077506 0.00153704  0.00000238  0.0000495   0.000005336
 83  -2946.3004917857  -0.000000009355 0.00273365  0.00000436  0.0000496   0.000005080
 84  -2946.3004917631   0.000000022586 0.00050201  0.00000123  0.0000454   0.000005362
 85  -2946.3004917332   0.000000029856 0.00100401  0.00000305  0.0000468   0.000005183
 86  -2946.3004916842   0.000000049023 0.00158744  0.00000606  0.0000425   0.000005381
 87  -2946.3004916568   0.000000027361 0.00075383  0.00000438  0.0000359   0.000006148
 88  -2946.3004914410   0.000000215808 0.00230679  0.00000397  0.0000335   0.000004543
 89  -2946.3004915052  -0.000000064199 0.00044328  0.00000150  0.0000340   0.000003877
 90  -2946.3004915005   0.000000004731 0.00029549  0.00000114  0.0000328   0.000004234
                           ***RMSP convergence achieved***
 91  -2946.3004914378   0.000000062668 0.00014422  0.00000067  0.0000334   0.000004104
 92  -2946.3004915862  -0.000000148358 0.00053542  0.00000171  0.0000326   0.000003907
 93  -2946.3004916451  -0.000000058894 0.00031344  0.00000138  0.0000318   0.000003918
                           ***RMSP convergence achieved***

            ***Energy convergence in two consecutive cycles with***
                    ***'reasonable' density convergence***
                       *** signaling convergence ***

                    *** KDIIS BlockDiag ( 5.864 sec) ***

               *****************************************************
               *                     SUCCESS                       *
               *           SCF CONVERGED AFTER  94 CYCLES          *
               *****************************************************


----------------
TOTAL SCF ENERGY
----------------

Total Energy       :        -2946.30049168 Eh          -80172.91229 eV

Components:
Nuclear Repulsion  :         5649.10854893 Eh          153720.05859 eV
Electronic Energy  :        -8595.40904061 Eh         -233892.97088 eV
One Electron Energy:       -16068.19908761 Eh         -437237.92592 eV
Two Electron Energy:         7472.79004700 Eh          203344.95504 eV

Virial components:
Potential Energy   :        -4631.45455951 Eh         -126028.28572 eV
Kinetic Energy     :         1685.15406783 Eh           45855.37343 eV
Virial Ratio       :            2.74838642


DFT components:
N(Alpha)           :      146.999988861946 electrons
N(Beta)            :      142.999993467608 electrons
N(Total)           :      289.999982329554 electrons
E(X)               :     -217.676101673950 Eh       
E(C)               :      -12.017688385346 Eh       
E(XC)              :     -229.693790059296 Eh       
DFET-embed. en.    :        0.000000000000 Eh       

---------------
SCF CONVERGENCE
---------------

  Last Energy change         ...   -3.7106e-08  Tolerance :   1.0000e-06
  Last MAX-Density change    ...    6.6158e-05  Tolerance :   1.0000e-05
  Last RMS-Density change    ...    2.9962e-07  Tolerance :   1.0000e-06

             **** THE GBW FILE WAS UPDATED (scan.gbw) ****
             **** DENSITY scan.scfp WAS UPDATED ****
             **** ENERGY FILE WAS UPDATED (scan.en.tmp) ****
----------------------
UHF SPIN CONTAMINATION
----------------------

Warning: in a DFT calculation there is little theoretical justification to 
         calculate <S**2> as in Hartree-Fock theory. We will do it anyways
         but you should keep in mind that the values have only limited relevance

Expectation value of <S**2>     :     6.582331
Ideal value S*(S+1) for S=2.0   :     6.000000
Deviation                       :     0.582331

             **** THE GBW FILE WAS UPDATED (scan.gbw) ****
             **** DENSITY scan.scfp WAS UPDATED ****
----------------
ORBITAL ENERGIES
----------------
                 SPIN UP ORBITALS
  NO   OCC          E(Eh)            E(eV) 
   0   1.0000    -215.295925     -5858.5000 
   1   1.0000     -24.596465      -669.3038 
   2   1.0000     -20.865580      -567.7813 
   3   1.0000     -20.861353      -567.6663 
   4   1.0000     -20.860978      -567.6561 
   5   1.0000      -4.128178      -112.3334 
   6   1.0000      -4.123230      -112.1988 
   7   1.0000      -4.122882      -112.1893 
   8   1.0000      -4.122281      -112.1730 
   9   1.0000      -4.121598      -112.1544 
  10   1.0000      -4.121564      -112.1535 
  11   1.0000      -4.121431      -112.1498 
  12   1.0000      -4.120894      -112.1352 
  13   1.0000      -4.112899      -111.9177 
  14   1.0000      -4.112682      -111.9118 
  15   1.0000      -4.111883      -111.8900 
  16   1.0000      -4.109619      -111.8284 
  17   1.0000      -4.109410      -111.8227 
  18   1.0000      -4.103805      -111.6702 
  19   1.0000      -2.916397       -79.3592 
  20   1.0000      -2.317647       -63.0664 
  21   1.0000      -2.313907       -62.9646 
  22   1.0000      -2.311969       -62.9119 
  23   1.0000      -2.311629       -62.9026 
  24   1.0000      -2.311288       -62.8934 
  25   1.0000      -2.310749       -62.8787 
  26   1.0000      -2.310468       -62.8710 
  27   1.0000      -2.310272       -62.8657 
  28   1.0000      -2.310143       -62.8622 
  29   1.0000      -2.308601       -62.8202 
  30   1.0000      -2.308290       -62.8118 
  31   1.0000      -2.308048       -62.8052 
  32   1.0000      -2.307681       -62.7952 
  33   1.0000      -2.307510       -62.7906 
  34   1.0000      -2.307361       -62.7865 
  35   1.0000      -2.307100       -62.7794 
  36   1.0000      -2.306873       -62.7732 
  37   1.0000      -2.306575       -62.7651 
  38   1.0000      -2.306438       -62.7614 
  39   1.0000      -2.305607       -62.7387 
  40   1.0000      -2.305025       -62.7229 
  41   1.0000      -2.304155       -62.6992 
  42   1.0000      -2.303965       -62.6941 
  43   1.0000      -2.303349       -62.6773 
  44   1.0000      -2.300180       -62.5911 
  45   1.0000      -2.299897       -62.5834 
  46   1.0000      -2.299057       -62.5605 
  47   1.0000      -2.297681       -62.5231 
  48   1.0000      -2.297432       -62.5163 
  49   1.0000      -2.297018       -62.5050 
  50   1.0000      -2.296906       -62.5020 
  51   1.0000      -2.296838       -62.5001 
  52   1.0000      -2.296379       -62.4876 
  53   1.0000      -2.295256       -62.4571 
  54   1.0000      -2.295191       -62.4553 
  55   1.0000      -2.295031       -62.4510 
  56   1.0000      -2.294922       -62.4480 
  57   1.0000      -2.294735       -62.4429 
  58   1.0000      -2.294537       -62.4375 
  59   1.0000      -2.291308       -62.3497 
  60   1.0000      -2.288816       -62.2819 
  61   1.0000      -2.287880       -62.2564 
  62   1.0000      -1.865526       -50.7636 
  63   1.0000      -1.862664       -50.6857 
  64   1.0000      -1.862271       -50.6750 
  65   1.0000      -0.434979       -11.8364 
  66   1.0000      -0.393658       -10.7120 
  67   1.0000      -0.390361       -10.6223 
  68   1.0000      -0.385182       -10.4813 
  69   1.0000      -0.381133       -10.3712 
  70   1.0000      -0.379092       -10.3156 
  71   1.0000      -0.374725       -10.1968 
  72   1.0000      -0.371153       -10.0996 
  73   1.0000      -0.370210       -10.0739 
  74   1.0000      -0.369134       -10.0446 
  75   1.0000      -0.362461        -9.8631 
  76   1.0000      -0.361959        -9.8494 
  77   1.0000      -0.359190        -9.7741 
  78   1.0000      -0.356014        -9.6876 
  79   1.0000      -0.355685        -9.6787 
  80   1.0000      -0.354165        -9.6373 
  81   1.0000      -0.353371        -9.6157 
  82   1.0000      -0.349050        -9.4981 
  83   1.0000      -0.348304        -9.4778 
  84   1.0000      -0.348128        -9.4730 
  85   1.0000      -0.342677        -9.3247 
  86   1.0000      -0.341264        -9.2863 
  87   1.0000      -0.340838        -9.2747 
  88   1.0000      -0.339122        -9.2280 
  89   1.0000      -0.338793        -9.2190 
  90   1.0000      -0.334750        -9.1090 
  91   1.0000      -0.334588        -9.1046 
  92   1.0000      -0.332279        -9.0418 
  93   1.0000      -0.331670        -9.0252 
  94   1.0000      -0.330572        -8.9953 
  95   1.0000      -0.327781        -8.9194 
  96   1.0000      -0.325708        -8.8630 
  97   1.0000      -0.315531        -8.5860 
  98   1.0000      -0.313230        -8.5234 
  99   1.0000      -0.312744        -8.5102 
 100   1.0000      -0.307823        -8.3763 
 101   1.0000      -0.306384        -8.3371 
 102   1.0000      -0.302434        -8.2296 
 103   1.0000      -0.299712        -8.1556 
 104   1.0000      -0.296022        -8.0552 
 105   1.0000      -0.294221        -8.0062 
 106   1.0000      -0.291167        -7.9230 
 107   1.0000      -0.288586        -7.8528 
 108   1.0000      -0.287246        -7.8163 
 109   1.0000      -0.285838        -7.7780 
 110   1.0000      -0.284834        -7.7507 
 111   1.0000      -0.281820        -7.6687 
 112   1.0000      -0.281248        -7.6532 
 113   1.0000      -0.280812        -7.6413 
 114   1.0000      -0.279735        -7.6120 
 115   1.0000      -0.277057        -7.5391 
 116   1.0000      -0.276628        -7.5274 
 117   1.0000      -0.275063        -7.4848 
 118   1.0000      -0.274355        -7.4656 
 119   1.0000      -0.273903        -7.4533 
 120   1.0000      -0.273070        -7.4306 
 121   1.0000      -0.270820        -7.3694 
 122   1.0000      -0.270527        -7.3614 
 123   1.0000      -0.267763        -7.2862 
 124   1.0000      -0.266571        -7.2538 
 125   1.0000      -0.266268        -7.2455 
 126   1.0000      -0.264575        -7.1994 
 127   1.0000      -0.262875        -7.1532 
 128   1.0000      -0.260960        -7.1011 
 129   1.0000      -0.259928        -7.0730 
 130   1.0000      -0.258561        -7.0358 
 131   1.0000      -0.255936        -6.9644 
 132   1.0000      -0.253506        -6.8983 
 133   1.0000      -0.253095        -6.8871 
 134   1.0000      -0.252115        -6.8604 
 135   1.0000      -0.249129        -6.7791 
 136   1.0000      -0.248113        -6.7515 
 137   1.0000      -0.247152        -6.7253 
 138   1.0000      -0.239102        -6.5063 
 139   1.0000      -0.237407        -6.4602 
 140   1.0000      -0.229056        -6.2329 
 141   1.0000      -0.224498        -6.1089 
 142   1.0000      -0.216405        -5.8887 
 143   1.0000      -0.215823        -5.8729 
 144   1.0000      -0.202639        -5.5141 
 145   1.0000      -0.201044        -5.4707 
 146   1.0000      -0.184230        -5.0131 
 147   0.0000      -0.171873        -4.6769 
 148   0.0000      -0.168243        -4.5781 
 149   0.0000      -0.143054        -3.8927 
 150   0.0000      -0.122687        -3.3385 
 151   0.0000      -0.121180        -3.2975 
 152   0.0000      -0.114953        -3.1280 
 153   0.0000      -0.105363        -2.8671 
 154   0.0000      -0.089387        -2.4323 
 155   0.0000      -0.074744        -2.0339 
 156   0.0000      -0.066481        -1.8090 
 157   0.0000      -0.065860        -1.7922 
 158   0.0000      -0.060902        -1.6572 
 159   0.0000      -0.055335        -1.5057 
 160   0.0000      -0.027938        -0.7602 
 161   0.0000      -0.017815        -0.4848 
 162   0.0000      -0.012214        -0.3324 
 163   0.0000       0.006987         0.1901 
 164   0.0000       0.008986         0.2445 
 165   0.0000       0.016233         0.4417 
 166   0.0000       0.016918         0.4604 
 167   0.0000       0.024236         0.6595 
 168   0.0000       0.030799         0.8381 
 169   0.0000       0.031468         0.8563 
 170   0.0000       0.048618         1.3230 
 171   0.0000       0.049502         1.3470 
 172   0.0000       0.049735         1.3534 
 173   0.0000       0.058798         1.6000 
 174   0.0000       0.062248         1.6939 
 175   0.0000       0.069958         1.9037 
 176   0.0000       0.073816         2.0086 
 177   0.0000       0.076466         2.0807 
 178   0.0000       0.080952         2.2028 
 179   0.0000       0.084929         2.3110 
 180   0.0000       0.087846         2.3904 
 181   0.0000       0.089739         2.4419 
 182   0.0000       0.092564         2.5188 
 183   0.0000       0.093940         2.5562 
 184   0.0000       0.097207         2.6451 
 185   0.0000       0.105028         2.8580 
 186   0.0000       0.114213         3.1079 
 187   0.0000       0.122695         3.3387 
 188   0.0000       0.132115         3.5950 
 189   0.0000       0.135690         3.6923 
 190   0.0000       0.136944         3.7264 
 191   0.0000       0.137134         3.7316 
 192   0.0000       0.138442         3.7672 
 193   0.0000       0.142885         3.8881 
 194   0.0000       0.145917         3.9706 
 195   0.0000       0.149596         4.0707 
 196   0.0000       0.152139         4.1399 
 197   0.0000       0.153053         4.1648 
 198   0.0000       0.156920         4.2700 
 199   0.0000       0.167599         4.5606 
 200   0.0000       0.167895         4.5686 
 201   0.0000       0.174396         4.7455 
 202   0.0000       0.178990         4.8706 
 203   0.0000       0.180344         4.9074 
 204   0.0000       0.188995         5.1428 
 205   0.0000       0.190309         5.1786 
 206   0.0000       0.200426         5.4539 
 207   0.0000       0.202255         5.5036 
 208   0.0000       0.213621         5.8129 
 209   0.0000       0.226999         6.1770 
 210   0.0000       0.235583         6.4105 
 211   0.0000       0.238444         6.4884 
 212   0.0000       0.245373         6.6769 
 213   0.0000       0.249499         6.7892 
 214   0.0000       0.250031         6.8037 
 215   0.0000       0.253476         6.8974 
 216   0.0000       0.262829         7.1520 
 217   0.0000       0.264612         7.2005 
 218   0.0000       0.274784         7.4773 
 219   0.0000       0.281572         7.6620 
 220   0.0000       0.292775         7.9668 
 221   0.0000       0.293375         7.9831 
 222   0.0000       0.298505         8.1227 
 223   0.0000       0.299668         8.1544 
 224   0.0000       0.301306         8.1990 
 225   0.0000       0.302836         8.2406 
 226   0.0000       0.305052         8.3009 
 227   0.0000       0.311942         8.4884 
 228   0.0000       0.317720         8.6456 
 229   0.0000       0.323945         8.8150 
 230   0.0000       0.326210         8.8766 
 231   0.0000       0.333511         9.0753 
 232   0.0000       0.337692         9.1891 
 233   0.0000       0.338333         9.2065 
 234   0.0000       0.344609         9.3773 
 235   0.0000       0.348053         9.4710 
 236   0.0000       0.349661         9.5148 
 237   0.0000       0.354308         9.6412 
 238   0.0000       0.356862         9.7107 
 239   0.0000       0.358750         9.7621 
 240   0.0000       0.361558         9.8385 
 241   0.0000       0.375093        10.2068 
 242   0.0000       0.378314        10.2944 
 243   0.0000       0.383996        10.4491 
 244   0.0000       0.387428        10.5425 
 245   0.0000       0.394814        10.7434 
 246   0.0000       0.398725        10.8499 
 247   0.0000       0.399611        10.8740 
 248   0.0000       0.415787        11.3141 
 249   0.0000       0.416390        11.3306 
 250   0.0000       0.418481        11.3874 
 251   0.0000       0.421297        11.4641 
 252   0.0000       0.428323        11.6553 
 253   0.0000       0.437968        11.9177 
 254   0.0000       0.438314        11.9271 
 255   0.0000       0.443507        12.0684 
 256   0.0000       0.450801        12.2669 
 257   0.0000       0.456316        12.4170 
 258   0.0000       0.461200        12.5499 
 259   0.0000       0.475184        12.9304 
 260   0.0000       0.483626        13.1601 
 261   0.0000       0.483807        13.1651 
 262   0.0000       0.491975        13.3873 
 263   0.0000       0.493034        13.4161 
 264   0.0000       0.495837        13.4924 
 265   0.0000       0.498952        13.5772 
 266   0.0000       0.503244        13.6940 
 267   0.0000       0.504363        13.7244 
 268   0.0000       0.515598        14.0301 
 269   0.0000       0.516194        14.0464 
 270   0.0000       0.517564        14.0836 
 271   0.0000       0.520812        14.1720 
 272   0.0000       0.527657        14.3583 
 273   0.0000       0.531761        14.4699 
 274   0.0000       0.532043        14.4776 
 275   0.0000       0.537071        14.6144 
 276   0.0000       0.537784        14.6339 
 277   0.0000       0.543042        14.7769 
 278   0.0000       0.547453        14.8970 
 279   0.0000       0.548612        14.9285 
 280   0.0000       0.551889        15.0177 
 281   0.0000       0.555507        15.1161 
 282   0.0000       0.556519        15.1437 
 283   0.0000       0.559240        15.2177 
 284   0.0000       0.560783        15.2597 
 285   0.0000       0.567348        15.4383 
 286   0.0000       0.569692        15.5021 
 287   0.0000       0.581649        15.8275 
 288   0.0000       0.599188        16.3047 
 289   0.0000       0.603167        16.4130 
 290   0.0000       0.614434        16.7196 
 291   0.0000       0.636288        17.3143 
 292   0.0000       0.641966        17.4688 
 293   0.0000       0.643250        17.5037 
 294   0.0000       0.666981        18.1495 
 295   0.0000       0.684265        18.6198 
 296   0.0000       0.704092        19.1593 
 297   0.0000       0.715844        19.4791 
 298   0.0000       0.719449        19.5772 
 299   0.0000       0.727191        19.7879 
 300   0.0000       0.737659        20.0727 
 301   0.0000       0.756772        20.5928 
 302   0.0000       0.764037        20.7905 
 303   0.0000       0.769664        20.9436 
 304   0.0000       0.774849        21.0847 
 305   0.0000       0.778445        21.1826 
 306   0.0000       0.786937        21.4136 
 307   0.0000       0.797448        21.6997 
 308   0.0000       0.826726        22.4964 
 309   0.0000       0.835151        22.7256 
 310   0.0000       0.836199        22.7541 
 311   0.0000       0.843634        22.9564 
 312   0.0000       0.846830        23.0434 
 313   0.0000       0.860786        23.4232 
 314   0.0000       0.879873        23.9426 
 315   0.0000       0.880528        23.9604 
 316   0.0000       0.883670        24.0459 
 317   0.0000       0.885915        24.1070 
 318   0.0000       0.888900        24.1882 
 319   0.0000       0.897969        24.4350 
 320   0.0000       0.901494        24.5309 
 321   0.0000       0.922970        25.1153 
 322   0.0000       0.929247        25.2861 
 323   0.0000       0.935889        25.4668 
 324   0.0000       0.952064        25.9070 
 325   0.0000       0.964847        26.2548 
 326   0.0000       0.969029        26.3686 
 327   0.0000       1.000814        27.2335 
 328   0.0000       1.023824        27.8597 
 329   0.0000       1.032512        28.0961 
 330   0.0000       1.047889        28.5145 
 331   0.0000       1.126244        30.6467 
 332   0.0000       1.143741        31.1228 
 333   0.0000       1.200880        32.6776 
 334   0.0000       1.207703        32.8633 
 335   0.0000       1.220394        33.2086 
 336   0.0000       1.238064        33.6894 
 337   0.0000       1.247047        33.9339 
 338   0.0000       1.278946        34.8019 
 339   0.0000       1.299982        35.3743 
 340   0.0000       1.303256        35.4634 
 341   0.0000       1.317620        35.8543 
 342   0.0000       1.320049        35.9204 
 343   0.0000       1.323290        36.0086 
 344   0.0000       1.325567        36.0705 
 345   0.0000       1.337319        36.3903 
 346   0.0000       1.344752        36.5926 
 347   0.0000       1.345686        36.6180 
 348   0.0000       1.361456        37.0471 
 349   0.0000       1.371034        37.3077 
 350   0.0000       1.376503        37.4566 
 351   0.0000       1.380505        37.5654 
 352   0.0000       1.390315        37.8324 
 353   0.0000       1.394698        37.9517 
 354   0.0000       1.403199        38.1830 
 355   0.0000       1.418542        38.6005 
 356   0.0000       1.419967        38.6393 
 357   0.0000       1.424717        38.7685 
 358   0.0000       1.429523        38.8993 
 359   0.0000       1.437891        39.1270 
 360   0.0000       1.441454        39.2239 
 361   0.0000       1.445813        39.3426 
 362   0.0000       1.447894        39.3992 
 363   0.0000       1.458714        39.6936 
 364   0.0000       1.469596        39.9897 
 365   0.0000       1.476291        40.1719 
 366   0.0000       1.482448        40.3395 
 367   0.0000       1.483699        40.3735 
 368   0.0000       1.485046        40.4102 
 369   0.0000       1.487945        40.4890 
 370   0.0000       1.489427        40.5294 
 371   0.0000       1.489952        40.5437 
 372   0.0000       1.490107        40.5479 
 373   0.0000       1.497787        40.7568 
 374   0.0000       1.500165        40.8216 
 375   0.0000       1.503420        40.9101 
 376   0.0000       1.504696        40.9448 
 377   0.0000       1.512345        41.1530 
 378   0.0000       1.514299        41.2062 
 379   0.0000       1.520435        41.3731 
 380   0.0000       1.523604        41.4594 
 381   0.0000       1.525622        41.5143 
 382   0.0000       1.527294        41.5598 
 383   0.0000       1.528533        41.5935 
 384   0.0000       1.532593        41.7040 
 385   0.0000       1.533487        41.7283 
 386   0.0000       1.540709        41.9248 
 387   0.0000       1.540882        41.9295 
 388   0.0000       1.545844        42.0646 
 389   0.0000       1.545983        42.0683 
 390   0.0000       1.548694        42.1421 
 391   0.0000       1.551618        42.2217 
 392   0.0000       1.552832        42.2547 
 393   0.0000       1.554231        42.2928 
 394   0.0000       1.555909        42.3384 
 395   0.0000       1.558747        42.4157 
 396   0.0000       1.559204        42.4281 
 397   0.0000       1.559826        42.4450 
 398   0.0000       1.560367        42.4597 
 399   0.0000       1.563265        42.5386 
 400   0.0000       1.565923        42.6109 
 401   0.0000       1.567757        42.6608 
 402   0.0000       1.567889        42.6644 
 403   0.0000       1.570105        42.7247 
 404   0.0000       1.571406        42.7601 
 405   0.0000       1.572209        42.7820 
 406   0.0000       1.572646        42.7939 
 407   0.0000       1.574129        42.8342 
 408   0.0000       1.575777        42.8791 
 409   0.0000       1.576238        42.8916 
 410   0.0000       1.576338        42.8943 
 411   0.0000       1.579459        42.9793 
 412   0.0000       1.580510        43.0079 
 413   0.0000       1.583246        43.0823 
 414   0.0000       1.587095        43.1871 
 415   0.0000       1.588831        43.2343 
 416   0.0000       1.589764        43.2597 
 417   0.0000       1.590900        43.2906 
 418   0.0000       1.592152        43.3246 
 419   0.0000       1.592871        43.3442 
 420   0.0000       1.593709        43.3670 
 421   0.0000       1.593981        43.3744 
 422   0.0000       1.596706        43.4486 
 423   0.0000       1.600242        43.5448 
 424   0.0000       1.605990        43.7012 
 425   0.0000       1.606107        43.7044 
 426   0.0000       1.612208        43.8704 
 427   0.0000       1.613783        43.9133 
 428   0.0000       1.614475        43.9321 
 429   0.0000       1.615378        43.9567 
 430   0.0000       1.617646        44.0184 
 431   0.0000       1.620114        44.0856 
 432   0.0000       1.624639        44.2087 
 433   0.0000       1.630429        44.3662 
 434   0.0000       1.631864        44.4053 
 435   0.0000       1.633442        44.4482 
 436   0.0000       1.634155        44.4676 
 437   0.0000       1.635863        44.5141 
 438   0.0000       1.636454        44.5302 
 439   0.0000       1.638620        44.5891 
 440   0.0000       1.640991        44.6536 
 441   0.0000       1.645587        44.7787 
 442   0.0000       1.649922        44.8967 
 443   0.0000       1.650745        44.9191 
 444   0.0000       1.653060        44.9820 
 445   0.0000       1.654694        45.0265 
 446   0.0000       1.656324        45.0709 
 447   0.0000       1.658282        45.1242 
 448   0.0000       1.659170        45.1483 
 449   0.0000       1.664302        45.2880 
 450   0.0000       1.665425        45.3185 
 451   0.0000       1.668729        45.4084 
 452   0.0000       1.671251        45.4770 
 453   0.0000       1.671975        45.4967 
 454   0.0000       1.672825        45.5199 
 455   0.0000       1.676354        45.6159 
 456   0.0000       1.679326        45.6968 
 457   0.0000       1.681908        45.7671 
 458   0.0000       1.685547        45.8661 
 459   0.0000       1.689082        45.9622 
 460   0.0000       1.692042        46.0428 
 461   0.0000       1.694303        46.1043 
 462   0.0000       1.696190        46.1557 
 463   0.0000       1.702366        46.3237 
 464   0.0000       1.702676        46.3322 
 465   0.0000       1.706531        46.4371 
 466   0.0000       1.713253        46.6200 
 467   0.0000       1.722011        46.8583 
 468   0.0000       1.724168        46.9170 
 469   0.0000       1.726437        46.9787 
 470   0.0000       1.743107        47.4323 
 471   0.0000       1.754203        47.7343 
 472   0.0000       1.757130        47.8139 
 473   0.0000       1.766693        48.0742 
 474   0.0000       1.773707        48.2650 
 475   0.0000       1.775051        48.3016 
 476   0.0000       1.780814        48.4584 
 477   0.0000       1.804421        49.1008 
 478   0.0000       1.805542        49.1313 
 479   0.0000       1.817529        49.4575 
 480   0.0000       1.825112        49.6638 
 481   0.0000       1.827392        49.7259 
 482   0.0000       1.840809        50.0910 
 483   0.0000       1.847136        50.2631 
 484   0.0000       1.855275        50.4846 
 485   0.0000       1.859330        50.5949 
 486   0.0000       1.869549        50.8730 
 487   0.0000       1.873772        50.9879 
 488   0.0000       1.877289        51.0836 
 489   0.0000       1.892133        51.4876 
 490   0.0000       1.893384        51.5216 
 491   0.0000       1.901401        51.7398 
 492   0.0000       1.905984        51.8645 
 493   0.0000       1.926954        52.4351 
 494   0.0000       1.930370        52.5280 
 495   0.0000       1.934898        52.6512 
 496   0.0000       1.935477        52.6670 
 497   0.0000       1.946095        52.9559 
 498   0.0000       1.957373        53.2628 
 499   0.0000       1.969611        53.5958 
 500   0.0000       1.984855        54.0106 
 501   0.0000       1.990266        54.1579 
 502   0.0000       2.005145        54.5628 
 503   0.0000       2.007573        54.6288 
 504   0.0000       2.058181        56.0060 
 505   0.0000       2.215861        60.2966 
 506   0.0000       2.232333        60.7449 
 507   0.0000       2.242361        61.0178 
 508   0.0000       2.265424        61.6453 
 509   0.0000       2.360545        64.2337 
 510   0.0000       2.385210        64.9049 
 511   0.0000       2.389013        65.0083 
 512   0.0000       2.470756        67.2327 
 513   0.0000       2.485350        67.6298 
 514   0.0000       2.488773        67.7230 
 515   0.0000       2.515166        68.4412 
 516   0.0000       2.537318        69.0439 
 517   0.0000       2.554178        69.5027 
 518   0.0000       2.572519        70.0018 
 519   0.0000       2.582407        70.2709 
 520   0.0000       2.587843        70.4188 
 521   0.0000       2.596014        70.6411 
 522   0.0000       2.626313        71.4656 
 523   0.0000       2.646848        72.0244 
 524   0.0000       2.657022        72.3012 
 525   0.0000       2.711092        73.7726 
 526   0.0000       2.729512        74.2738 
 527   0.0000       2.924122        79.5694 
 528   0.0000       2.931697        79.7755 
 529   0.0000       2.943891        80.1074 
 530   0.0000       2.952869        80.3517 
 531   0.0000       2.973672        80.9177 
 532   0.0000       2.979650        81.0804 
 533   0.0000       3.004583        81.7589 
 534   0.0000       3.089145        84.0599 
 535   0.0000      24.048694       654.3982 
 536   0.0000      24.272040       660.4758 
 537   0.0000      24.326524       661.9584 
 538   0.0000      24.397652       663.8939 
 539   0.0000      24.470401       665.8735 
 540   0.0000      24.561091       668.3413 
 541   0.0000      24.952188       678.9835 
 542   0.0000      25.233403       686.6358 
 543   0.0000      25.414346       691.5595 
 544   0.0000      25.443433       692.3510 
 545   0.0000      25.636150       697.5951 
 546   0.0000      25.674012       698.6254 
 547   0.0000      25.776102       701.4034 
 548   0.0000      25.947396       706.0646 
 549   0.0000      26.073387       709.4929 
 550   0.0000      26.280558       715.1303 
 551   0.0000      26.416358       718.8256 
 552   0.0000      26.461080       720.0426 
 553   0.0000      26.593387       723.6429 
 554   0.0000      26.599297       723.8037 
 555   0.0000      26.679995       725.9996 
 556   0.0000      26.943230       733.1626 
 557   0.0000      26.961243       733.6527 
 558   0.0000      27.105961       737.5907 
 559   0.0000      27.139195       738.4950 
 560   0.0000      27.186428       739.7803 
 561   0.0000      27.254062       741.6207 
 562   0.0000      27.429658       746.3989 
 563   0.0000      27.522710       748.9310 
 564   0.0000      27.639336       752.1046 
 565   0.0000      27.844315       757.6823 
 566   0.0000      27.857157       758.0318 
 567   0.0000      27.904987       759.3333 
 568   0.0000      28.016230       762.3604 
 569   0.0000      28.066607       763.7312 
 570   0.0000      28.070963       763.8497 
 571   0.0000      28.431231       773.6531 
 572   0.0000      28.626292       778.9610 
 573   0.0000      29.844838       812.1193 
 574   0.0000      30.124194       819.7210 
 575   0.0000      30.338033       825.5399 
 576   0.0000      30.723821       836.0377 
 577   0.0000      44.399891      1208.1825 
 578   0.0000      44.512922      1211.2582 
 579   0.0000      44.535731      1211.8789 
 580   0.0000      44.549156      1212.2442 
 581   0.0000      44.603745      1213.7296 
 582   0.0000      44.613155      1213.9857 
 583   0.0000      44.634969      1214.5793 
 584   0.0000      44.642310      1214.7790 
 585   0.0000      44.655512      1215.1383 
 586   0.0000      44.672091      1215.5894 
 587   0.0000      44.675578      1215.6843 
 588   0.0000      44.681293      1215.8398 
 589   0.0000      44.716735      1216.8042 
 590   0.0000      44.752336      1217.7730 
 591   0.0000     205.256503      5585.3134 
 592   0.0000     205.305682      5586.6516 
 593   0.0000     205.311739      5586.8165 
 594   0.0000     205.316331      5586.9414 
 595   0.0000     205.342584      5587.6558 
 596   0.0000     205.346793      5587.7703 
 597   0.0000     205.352771      5587.9330 
 598   0.0000     205.356995      5588.0479 
 599   0.0000     205.363011      5588.2116 
 600   0.0000     205.367509      5588.3340 
 601   0.0000     205.370004      5588.4019 
 602   0.0000     205.372201      5588.4617 
 603   0.0000     205.390508      5588.9599 
 604   0.0000     205.397365      5589.1464 

                 SPIN DOWN ORBITALS
  NO   OCC          E(Eh)            E(eV) 
   0   1.0000    -215.295332     -5858.4838 
   1   1.0000     -24.534833      -667.6268 
   2   1.0000     -20.821958      -566.5943 
   3   1.0000     -20.811883      -566.3201 
   4   1.0000     -20.811731      -566.3160 
   5   1.0000      -4.126898      -112.2986 
   6   1.0000      -4.122558      -112.1805 
   7   1.0000      -4.122266      -112.1725 
   8   1.0000      -4.121713      -112.1575 
   9   1.0000      -4.121176      -112.1429 
  10   1.0000      -4.121022      -112.1387 
  11   1.0000      -4.120303      -112.1191 
  12   1.0000      -4.119854      -112.1069 
  13   1.0000      -4.111986      -111.8928 
  14   1.0000      -4.111780      -111.8872 
  15   1.0000      -4.111521      -111.8802 
  16   1.0000      -4.108840      -111.8072 
  17   1.0000      -4.108643      -111.8019 
  18   1.0000      -4.103832      -111.6709 
  19   1.0000      -2.756201       -75.0001 
  20   1.0000      -2.315551       -63.0093 
  21   1.0000      -2.312821       -62.9350 
  22   1.0000      -2.311045       -62.8867 
  23   1.0000      -2.310748       -62.8787 
  24   1.0000      -2.310438       -62.8702 
  25   1.0000      -2.309941       -62.8567 
  26   1.0000      -2.309698       -62.8501 
  27   1.0000      -2.309590       -62.8471 
  28   1.0000      -2.308790       -62.8254 
  29   1.0000      -2.307444       -62.7887 
  30   1.0000      -2.307309       -62.7851 
  31   1.0000      -2.307060       -62.7783 
  32   1.0000      -2.306800       -62.7712 
  33   1.0000      -2.306736       -62.7695 
  34   1.0000      -2.306560       -62.7647 
  35   1.0000      -2.306437       -62.7613 
  36   1.0000      -2.306290       -62.7573 
  37   1.0000      -2.305356       -62.7319 
  38   1.0000      -2.305001       -62.7223 
  39   1.0000      -2.304987       -62.7219 
  40   1.0000      -2.304146       -62.6990 
  41   1.0000      -2.303301       -62.6760 
  42   1.0000      -2.303168       -62.6724 
  43   1.0000      -2.302517       -62.6547 
  44   1.0000      -2.298960       -62.5579 
  45   1.0000      -2.298777       -62.5529 
  46   1.0000      -2.298692       -62.5506 
  47   1.0000      -2.296700       -62.4964 
  48   1.0000      -2.296569       -62.4928 
  49   1.0000      -2.296476       -62.4903 
  50   1.0000      -2.296375       -62.4875 
  51   1.0000      -2.296267       -62.4846 
  52   1.0000      -2.296077       -62.4794 
  53   1.0000      -2.294558       -62.4381 
  54   1.0000      -2.294348       -62.4324 
  55   1.0000      -2.294298       -62.4310 
  56   1.0000      -2.294095       -62.4255 
  57   1.0000      -2.293779       -62.4169 
  58   1.0000      -2.293531       -62.4101 
  59   1.0000      -2.291316       -62.3499 
  60   1.0000      -2.288923       -62.2848 
  61   1.0000      -2.288013       -62.2600 
  62   1.0000      -1.718164       -46.7536 
  63   1.0000      -1.696155       -46.1547 
  64   1.0000      -1.696027       -46.1512 
  65   1.0000      -0.427185       -11.6243 
  66   1.0000      -0.391804       -10.6615 
  67   1.0000      -0.387163       -10.5352 
  68   1.0000      -0.382622       -10.4117 
  69   1.0000      -0.375078       -10.2064 
  70   1.0000      -0.373879       -10.1738 
  71   1.0000      -0.369965       -10.0673 
  72   1.0000      -0.367609       -10.0031 
  73   1.0000      -0.366776        -9.9805 
  74   1.0000      -0.364377        -9.9152 
  75   1.0000      -0.361848        -9.8464 
  76   1.0000      -0.358836        -9.7644 
  77   1.0000      -0.356471        -9.7001 
  78   1.0000      -0.354891        -9.6571 
  79   1.0000      -0.353820        -9.6279 
  80   1.0000      -0.352909        -9.6031 
  81   1.0000      -0.352735        -9.5984 
  82   1.0000      -0.347804        -9.4642 
  83   1.0000      -0.346818        -9.4374 
  84   1.0000      -0.346681        -9.4337 
  85   1.0000      -0.341621        -9.2960 
  86   1.0000      -0.340401        -9.2628 
  87   1.0000      -0.339984        -9.2514 
  88   1.0000      -0.337457        -9.1827 
  89   1.0000      -0.336148        -9.1470 
  90   1.0000      -0.333578        -9.0771 
  91   1.0000      -0.332873        -9.0579 
  92   1.0000      -0.330154        -8.9839 
  93   1.0000      -0.328828        -8.9479 
  94   1.0000      -0.327187        -8.9032 
  95   1.0000      -0.326323        -8.8797 
  96   1.0000      -0.321638        -8.7522 
  97   1.0000      -0.313117        -8.5204 
  98   1.0000      -0.311050        -8.4641 
  99   1.0000      -0.310060        -8.4372 
 100   1.0000      -0.306276        -8.3342 
 101   1.0000      -0.301824        -8.2130 
 102   1.0000      -0.300986        -8.1903 
 103   1.0000      -0.298939        -8.1345 
 104   1.0000      -0.294231        -8.0064 
 105   1.0000      -0.293959        -7.9990 
 106   1.0000      -0.290518        -7.9054 
 107   1.0000      -0.288028        -7.8376 
 108   1.0000      -0.286064        -7.7842 
 109   1.0000      -0.285493        -7.7686 
 110   1.0000      -0.284148        -7.7321 
 111   1.0000      -0.280886        -7.6433 
 112   1.0000      -0.280507        -7.6330 
 113   1.0000      -0.279689        -7.6107 
 114   1.0000      -0.278074        -7.5668 
 115   1.0000      -0.275848        -7.5062 
 116   1.0000      -0.275468        -7.4959 
 117   1.0000      -0.274680        -7.4744 
 118   1.0000      -0.273794        -7.4503 
 119   1.0000      -0.272345        -7.4109 
 120   1.0000      -0.272091        -7.4040 
 121   1.0000      -0.270116        -7.3502 
 122   1.0000      -0.268808        -7.3146 
 123   1.0000      -0.266559        -7.2534 
 124   1.0000      -0.265320        -7.2197 
 125   1.0000      -0.264529        -7.1982 
 126   1.0000      -0.263321        -7.1653 
 127   1.0000      -0.262007        -7.1296 
 128   1.0000      -0.259291        -7.0557 
 129   1.0000      -0.258305        -7.0288 
 130   1.0000      -0.257022        -6.9939 
 131   1.0000      -0.254610        -6.9283 
 132   1.0000      -0.252365        -6.8672 
 133   1.0000      -0.250789        -6.8243 
 134   1.0000      -0.250438        -6.8148 
 135   1.0000      -0.247927        -6.7464 
 136   1.0000      -0.246096        -6.6966 
 137   1.0000      -0.245817        -6.6890 
 138   1.0000      -0.236568        -6.4374 
 139   1.0000      -0.214016        -5.8237 
 140   1.0000      -0.210451        -5.7267 
 141   1.0000      -0.201130        -5.4730 
 142   1.0000      -0.200923        -5.4674 
 143   0.0000      -0.193038        -5.2528 
[...]
      f+1     :     0.001175
      f-1     :     0.000920
      f+2     :     0.000576
      f-2     :     0.000804
      f+3     :     0.001155
      f-3     :     0.001540
  5 Aus       :     2.552418  s :     2.552418
      pz      :     2.125144  p :     6.378213
      px      :     2.140370
      py      :     2.112699
      dz2     :     1.992552  d :     9.911109
      dxz     :     1.976625
      dyz     :     1.983208
      dx2y2   :     1.988108
      dxy     :     1.970616
      f0      :     0.000688  f :     0.005470
      f+1     :     0.001064
      f-1     :     0.000752
      f+2     :     0.000596
      f-2     :     0.000644
      f+3     :     0.000801
      f-3     :     0.000924
  6 Aus       :     2.514433  s :     2.514433
      pz      :     2.126889  p :     6.486692
      px      :     2.163803
      py      :     2.196000
      dz2     :     1.984694  d :     9.886992
      dxz     :     1.945849
      dyz     :     1.985932
      dx2y2   :     1.986708
      dxy     :     1.983810
      f0      :     0.000615  f :     0.005585
      f+1     :     0.001025
      f-1     :     0.000832
      f+2     :     0.000732
      f-2     :     0.000672
      f+3     :     0.000769
      f-3     :     0.000941
  7 Aus       :     2.530613  s :     2.530613
      pz      :     2.164358  p :     6.466380
      px      :     2.209566
      py      :     2.092456
      dz2     :     1.967453  d :     9.877297
      dxz     :     1.984775
      dyz     :     1.992639
      dx2y2   :     1.946914
      dxy     :     1.985516
      f0      :     0.000612  f :     0.005958
      f+1     :     0.001081
      f-1     :     0.000824
      f+2     :     0.000809
      f-2     :     0.000602
      f+3     :     0.000918
      f-3     :     0.001112
  8 Aus       :     2.594515  s :     2.594515
      pz      :     2.137459  p :     6.369172
      px      :     2.100951
      py      :     2.130761
      dz2     :     1.962456  d :     9.905811
      dxz     :     1.991219
      dyz     :     1.987509
      dx2y2   :     1.981344
      dxy     :     1.983283
      f0      :     0.000546  f :     0.005054
      f+1     :     0.001005
      f-1     :     0.000612
      f+2     :     0.000707
      f-2     :     0.000623
      f+3     :     0.000754
      f-3     :     0.000807
  9 Aus       :     2.509316  s :     2.509316
      pz      :     2.195698  p :     6.510184
      px      :     2.168885
      py      :     2.145600
      dz2     :     1.978889  d :     9.883083
      dxz     :     1.984517
      dyz     :     1.980837
      dx2y2   :     1.995366
      dxy     :     1.943474
      f0      :     0.000718  f :     0.005970
      f+1     :     0.001127
      f-1     :     0.000816
      f+2     :     0.000768
      f-2     :     0.000675
      f+3     :     0.001036
      f-3     :     0.000832
 10 Aus       :     2.525985  s :     2.525985
      pz      :     2.123103  p :     6.488277
      px      :     2.172596
      py      :     2.192578
      dz2     :     1.972981  d :     9.879507
      dxz     :     1.966112
      dyz     :     1.976381
      dx2y2   :     1.978014
      dxy     :     1.986019
      f0      :     0.000645  f :     0.005907
      f+1     :     0.001059
      f-1     :     0.000915
      f+2     :     0.000975
      f-2     :     0.000651
      f+3     :     0.000809
      f-3     :     0.000854
 11 Aus       :     2.529023  s :     2.529023
      pz      :     2.116228  p :     6.467752
      px      :     2.186862
      py      :     2.164663
      dz2     :     1.976579  d :     9.877652
      dxz     :     1.944970
      dyz     :     1.990366
      dx2y2   :     1.981849
      dxy     :     1.983889
      f0      :     0.000701  f :     0.005931
      f+1     :     0.001091
      f-1     :     0.000852
      f+2     :     0.000911
      f-2     :     0.000699
      f+3     :     0.000804
      f-3     :     0.000873
 12 Aus       :     2.594884  s :     2.594884
      pz      :     2.115101  p :     6.368062
      px      :     2.122518
      py      :     2.130444
      dz2     :     1.992898  d :     9.906135
      dxz     :     1.975761
      dyz     :     1.978102
      dx2y2   :     1.981179
      dxy     :     1.978195
      f0      :     0.000656  f :     0.005045
      f+1     :     0.001083
      f-1     :     0.000693
      f+2     :     0.000595
      f-2     :     0.000595
      f+3     :     0.000687
      f-3     :     0.000737
 13 Aus       :     2.525671  s :     2.525671
      pz      :     2.204750  p :     6.503334
      px      :     2.132095
      py      :     2.166489
      dz2     :     1.967847  d :     9.888464
      dxz     :     1.998740
      dyz     :     1.983273
      dx2y2   :     1.996340
      dxy     :     1.942265
      f0      :     0.000684  f :     0.005866
      f+1     :     0.001157
      f-1     :     0.000890
      f+2     :     0.000745
      f-2     :     0.000736
      f+3     :     0.000844
      f-3     :     0.000811
 14 Crs       :     6.233885  s :     6.233885
      pz      :     4.185081  p :    12.545916
      px      :     4.171867
      py      :     4.188968
      dz2     :     1.297253  d :     6.661784
      dxz     :     1.309887
      dyz     :     1.380675
      dx2y2   :     1.404162
      dxy     :     1.269807
      f0      :     0.000212  f :     0.002025
      f+1     :     0.000456
      f-1     :     0.000299
      f+2     :     0.000237
      f-2     :     0.000221
      f+3     :     0.000298
      f-3     :     0.000303

SPIN
  0 Aus       :    -0.010184  s :    -0.010184
      pz      :    -0.016994  p :    -0.042634
      px      :     0.005894
      py      :    -0.031534
      dz2     :    -0.000637  d :     0.002232
      dxz     :     0.000336
      dyz     :    -0.000175
      dx2y2   :     0.002576
      dxy     :     0.000132
      f0      :    -0.000009  f :     0.000132
      f+1     :     0.000043
      f-1     :     0.000010
      f+2     :     0.000015
      f-2     :    -0.000026
      f+3     :     0.000043
      f-3     :     0.000056
  1 Aus       :     0.012726  s :     0.012726
      pz      :    -0.008575  p :    -0.017175
      px      :     0.001405
      py      :    -0.010005
      dz2     :    -0.008355  d :    -0.021678
      dxz     :    -0.003551
      dyz     :    -0.000137
      dx2y2   :    -0.001362
      dxy     :    -0.008274
      f0      :    -0.000019  f :    -0.000053
      f+1     :    -0.000009
      f-1     :    -0.000000
      f+2     :     0.000001
      f-2     :     0.000003
      f+3     :    -0.000015
      f-3     :    -0.000014
  2 Aus       :    -0.011973  s :    -0.011973
      pz      :    -0.010368  p :    -0.042418
      px      :    -0.020701
      py      :    -0.011349
      dz2     :    -0.004519  d :     0.002891
      dxz     :    -0.000935
      dyz     :     0.006053
      dx2y2   :     0.004117
      dxy     :    -0.001825
      f0      :    -0.000002  f :     0.000138
      f+1     :     0.000005
      f-1     :     0.000064
      f+2     :     0.000052
      f-2     :     0.000009
      f+3     :    -0.000002
      f-3     :     0.000012
  3 Aus       :    -0.080999  s :    -0.080999
      pz      :    -0.018838  p :    -0.045675
      px      :    -0.019578
      py      :    -0.007259
      dz2     :    -0.000963  d :     0.010536
      dxz     :    -0.002924
      dyz     :     0.007510
      dx2y2   :     0.003520
      dxy     :     0.003393
      f0      :     0.000065  f :     0.000649
      f+1     :     0.000031
      f-1     :     0.000104
      f+2     :     0.000069
      f-2     :     0.000018
      f+3     :     0.000190
      f-3     :     0.000173
  4 Aus       :    -0.056132  s :    -0.056132
      pz      :    -0.010434  p :    -0.019980
      px      :    -0.000001
      py      :    -0.009545
      dz2     :    -0.000074  d :    -0.014290
      dxz     :     0.002519
      dyz     :     0.003792
      dx2y2   :    -0.000281
      dxy     :    -0.020247
      f0      :     0.000079  f :     0.000516
      f+1     :     0.000155
      f-1     :     0.000129
      f+2     :     0.000065
      f-2     :     0.000062
      f+3     :     0.000008
      f-3     :     0.000016
  5 Aus       :    -0.054337  s :    -0.054337
      pz      :    -0.020240  p :    -0.072454
      px      :    -0.031976
      py      :    -0.020239
      dz2     :    -0.008080  d :    -0.023818
      dxz     :    -0.005968
      dyz     :     0.000828
      dx2y2   :    -0.005301
      dxy     :    -0.005298
      f0      :    -0.000004  f :    -0.000006
      f+1     :     0.000009
      f-1     :     0.000003
      f+2     :    -0.000003
      f-2     :    -0.000002
      f+3     :    -0.000007
      f-3     :    -0.000003
  6 Aus       :    -0.080246  s :    -0.080246
      pz      :    -0.008215  p :    -0.045982
      px      :    -0.007367
      py      :    -0.030400
      dz2     :     0.005532  d :     0.010381
      dxz     :     0.000823
      dyz     :     0.004345
      dx2y2   :     0.000055
      dxy     :    -0.000374
      f0      :     0.000093  f :     0.000644
      f+1     :     0.000242
      f-1     :     0.000047
      f+2     :     0.000131
      f-2     :     0.000093
      f+3     :     0.000015
      f-3     :     0.000022
  7 Aus       :    -0.052181  s :    -0.052181
      pz      :    -0.030455  p :    -0.048735
      px      :    -0.012361
      py      :    -0.005920
      dz2     :    -0.001540  d :     0.003696
      dxz     :    -0.000489
      dyz     :     0.000576
      dx2y2   :     0.001819
      dxy     :     0.003329
      f0      :     0.000032  f :     0.000426
      f+1     :    -0.000032
      f-1     :     0.000077
      f+2     :     0.000051
      f-2     :     0.000008
      f+3     :     0.000146
      f-3     :     0.000145
  8 Aus       :     0.005895  s :     0.005895
      pz      :    -0.032435  p :    -0.051914
      px      :     0.001485
      py      :    -0.020964
      dz2     :    -0.000657  d :    -0.022902
      dxz     :    -0.015772
      dyz     :    -0.002133
      dx2y2   :    -0.000642
      dxy     :    -0.003698
      f0      :    -0.000018  f :    -0.000020
      f+1     :     0.000022
      f-1     :    -0.000013
      f+2     :    -0.000040
      f-2     :    -0.000008
      f+3     :     0.000014
      f-3     :     0.000023
  9 Aus       :    -0.063560  s :    -0.063560
      pz      :    -0.007222  p :    -0.028033
      px      :    -0.008396
      py      :    -0.012415
      dz2     :    -0.000391  d :    -0.001625
      dxz     :    -0.003446
      dyz     :    -0.000228
      dx2y2   :     0.002630
      dxy     :    -0.000190
      f0      :     0.000052  f :     0.000467
      f+1     :     0.000026
      f-1     :     0.000029
      f+2     :     0.000000
      f-2     :     0.000107
      f+3     :     0.000127
      f-3     :     0.000125
 10 Aus       :    -0.083741  s :    -0.083741
      pz      :    -0.010721  p :    -0.028356
      px      :    -0.005150
      py      :    -0.012485
      dz2     :     0.003452  d :     0.006406
      dxz     :     0.002975
      dyz     :     0.002717
      dx2y2   :    -0.000655
      dxy     :    -0.002084
      f0      :     0.000115  f :     0.000558
      f+1     :     0.000178
      f-1     :     0.000106
      f+2     :     0.000069
      f-2     :     0.000096
      f+3     :    -0.000011
      f-3     :     0.000005
 11 Aus       :    -0.052690  s :    -0.052690
      pz      :    -0.008546  p :    -0.048721
      px      :    -0.014323
      py      :    -0.025852
      dz2     :     0.003672  d :     0.003406
      dxz     :    -0.000616
      dyz     :     0.000692
      dx2y2   :    -0.000474
      dxy     :     0.000131
      f0      :     0.000083  f :     0.000435
      f+1     :     0.000211
      f-1     :     0.000048
      f+2     :     0.000098
      f-2     :     0.000024
      f+3     :    -0.000016
      f-3     :    -0.000012
 12 Aus       :     0.006410  s :     0.006410
      pz      :    -0.013771  p :    -0.052156
      px      :    -0.015368
      py      :    -0.023017
      dz2     :    -0.008392  d :    -0.023398
      dxz     :    -0.005809
      dyz     :     0.002892
      dx2y2   :    -0.010546
      dxy     :    -0.001542
      f0      :    -0.000009  f :    -0.000024
      f+1     :    -0.000011
      f-1     :     0.000023
      f+2     :     0.000005
      f-2     :    -0.000009
      f+3     :    -0.000005
      f-3     :    -0.000018
 13 Aus       :    -0.059953  s :    -0.059953
      pz      :    -0.006756  p :    -0.022754
      px      :    -0.004027
      py      :    -0.011971
      dz2     :    -0.006733  d :    -0.003895
      dxz     :    -0.000546
      dyz     :    -0.005277
      dx2y2   :     0.005557
      dxy     :     0.003104
      f0      :     0.000057  f :     0.000618
      f+1     :     0.000081
      f-1     :     0.000042
      f+2     :    -0.000011
      f-2     :     0.000091
      f+3     :     0.000175
      f-3     :     0.000183
 14 Crs       :     0.020446  s :     0.020446
      pz      :     0.012460  p :     0.039785
      px      :     0.013620
      py      :     0.013704
      dz2     :     0.522681  d :     3.155206
      dxz     :     0.595767
      dyz     :     0.770353
      dx2y2   :     0.728525
      dxy     :     0.537880
      f0      :     0.000012  f :     0.000096
      f+1     :     0.000020
      f-1     :     0.000011
      f+2     :     0.000013
      f-2     :     0.000011
      f+3     :     0.000013
      f-3     :     0.000016


                      *****************************
                      * MAYER POPULATION ANALYSIS *
                      *****************************

  NA   - Mulliken gross atomic population
  ZA   - Total nuclear charge
  QA   - Mulliken gross atomic charge
  VA   - Mayer's total valence
  BVA  - Mayer's bonded valence
  FA   - Mayer's free valence

  ATOM       NA         ZA         QA         VA         BVA        FA
  0 Au    18.6487    19.0000     0.3513     1.6202     1.6182     0.0020
  1 Au    18.6802    19.0000     0.3198     1.4391     1.4373     0.0019
  2 Au    18.6469    19.0000     0.3531     1.6196     1.6176     0.0020
  3 Au    18.5548    19.0000     0.4452     1.7580     1.7408     0.0171
  4 Au    18.7673    19.0000     0.2327     2.0745     2.0636     0.0109
  5 Au    18.5595    19.0000     0.4405     1.5121     1.4987     0.0134
  6 Au    18.5505    19.0000     0.4495     1.7595     1.7429     0.0165
  7 Au    18.5648    19.0000     0.4352     1.8044     1.7990     0.0054
  8 Au    18.5865    19.0000     0.4135     1.4830     1.4808     0.0022
  9 Au    18.5623    19.0000     0.4377     1.7537     1.7397     0.0140
 10 Au    18.6264    19.0000     0.3736     1.7957     1.7759     0.0198
 11 Au    18.5617    19.0000     0.4383     1.8039     1.7984     0.0055
 12 Au    18.5869    19.0000     0.4131     1.4808     1.4786     0.0022
 13 Au    18.5837    19.0000     0.4163     1.7135     1.7051     0.0084
 14 Cr    29.5199    24.0000    -5.5199    10.4984     7.5285     2.9699

  Mayer bond orders larger than 0.100000
B(  0-Au,  1-Au) :   0.2329 B(  0-Au,  3-Au) :   0.2214 B(  0-Au,  4-Au) :   0.1535 
B(  0-Au,  9-Au) :   0.1421 B(  0-Au, 11-Au) :   0.1996 B(  0-Au, 14-Cr) :   0.4863 
B(  1-Au,  2-Au) :   0.2314 B(  1-Au,  4-Au) :   0.3689 B(  1-Au,  9-Au) :   0.1186 
B(  1-Au, 14-Cr) :   0.3839 B(  2-Au,  4-Au) :   0.1538 B(  2-Au,  6-Au) :   0.2216 
B(  2-Au,  7-Au) :   0.2020 B(  2-Au,  9-Au) :   0.1382 B(  2-Au, 14-Cr) :   0.4869 
B(  3-Au,  5-Au) :   0.1612 B(  3-Au, 12-Au) :   0.2213 B(  3-Au, 14-Cr) :   0.6581 
B(  4-Au,  5-Au) :   0.3605 B(  4-Au, 14-Cr) :   0.6048 B(  5-Au,  6-Au) :   0.1629 
B(  5-Au, 13-Au) :   0.1595 B(  5-Au, 14-Cr) :   0.5171 B(  6-Au,  8-Au) :   0.2216 
B(  6-Au, 14-Cr) :   0.6577 B(  7-Au,  8-Au) :   0.2094 B(  7-Au,  9-Au) :   0.2388 
B(  7-Au, 10-Au) :   0.1987 B(  7-Au, 14-Cr) :   0.6497 B(  8-Au, 10-Au) :   0.2276 
B(  8-Au, 13-Au) :   0.2457 B(  8-Au, 14-Cr) :   0.4303 B(  9-Au, 11-Au) :   0.2344 
B(  9-Au, 13-Au) :   0.1377 B(  9-Au, 14-Cr) :   0.5609 B( 10-Au, 11-Au) :   0.1979 
B( 10-Au, 12-Au) :   0.2288 B( 10-Au, 13-Au) :   0.1130 B( 10-Au, 14-Cr) :   0.5582 
B( 11-Au, 12-Au) :   0.2103 B( 11-Au, 14-Cr) :   0.6496 B( 12-Au, 13-Au) :   0.2463 
B( 12-Au, 14-Cr) :   0.4266 B( 13-Au, 14-Cr) :   0.4585 

-------
TIMINGS
-------

Total SCF time: 0 days 0 hours 11 min 20 sec 

Total time                  ....     680.380 sec
Sum of individual times     ....     651.625 sec  ( 95.8%)

Fock matrix formation       ....     397.709 sec  ( 58.5%)
  Split-RI-J                ....      98.993 sec  ( 24.9% of F)
  XC integration            ....     254.376 sec  ( 64.0% of F)
    Basis function eval.    ....      14.214 sec  (  5.6% of XC)
    Density eval.           ....     104.829 sec  ( 41.2% of XC)
    XC-Functional eval.     ....       8.715 sec  (  3.4% of XC)
    XC-Potential eval.      ....     104.852 sec  ( 41.2% of XC)
Diagonalization             ....     242.108 sec  ( 35.6%)
Density matrix formation    ....       4.764 sec  (  0.7%)
Population analysis         ....       2.286 sec  (  0.3%)
Initial guess               ....       0.685 sec  (  0.1%)
Orbital Transformation      ....       0.000 sec  (  0.0%)
Orbital Orthonormalization  ....       0.387 sec  (  0.1%)
DIIS solution               ....       0.000 sec  (  0.0%)
Grid generation             ....       4.072 sec  (  0.6%)

Maximum memory used throughout the entire SCF-calculation: 102.6 MB

-------------------------   --------------------
FINAL SINGLE POINT ENERGY     -2946.314920322573
-------------------------   --------------------


                            ***************************************
                            *     ORCA property calculations      *
                            ***************************************

                                    ---------------------
                                    Active property flags
                                    ---------------------
   (+) Dipole Moment


------------------------------------------------------------------------------
                       ORCA ELECTRIC PROPERTIES CALCULATION
------------------------------------------------------------------------------

Dipole Moment Calculation                       ... on
Quadrupole Moment Calculation                   ... off
Polarizability Calculation                      ... off
GBWName                                         ... scan_job2.gbw
Electron density                                ... scan_job2.scfp
The origin for moment calculation is the CENTER OF MASS  = (16.098775, 15.292501 12.555905)

-------------
DIPOLE MOMENT
-------------
                                X             Y             Z
Electronic contribution:     -4.37128      -0.96114       5.94640
Nuclear contribution   :      4.43620       0.86775      -5.90057
                        -----------------------------------------
Total Dipole Moment    :      0.06492      -0.09339       0.04584
                        -----------------------------------------
Magnitude (a.u.)       :      0.12263
Magnitude (Debye)      :      0.31170



--------------------
Rotational spectrum 
--------------------
 
Rotational constants in cm-1:     0.001200     0.000989     0.000956 
Rotational constants in MHz :    35.960629    29.653927    28.668786 

 Dipole components along the rotational axes: 
x,y,z [a.u.] :     0.060513     0.004833    -0.106548 
x,y,z [Debye]:     0.153812     0.012285    -0.270823 

 

Timings for individual modules:

Sum of individual times         ...      708.964 sec (=  11.816 min)
GTO integral calculation        ...       27.606 sec (=   0.460 min)   3.9 %
SCF iterations                  ...      681.358 sec (=  11.356 min)  96.1 %



                             ****ORCA TERMINATED NORMALLY****
TOTAL RUN TIME: 0 days 0 hours 41 minutes 58 seconds 557 msec
