
                                 *****************
                                 * O   R   C   A *
                                 *****************

                                            #,                                       
                                            ###                                      
                                            ####                                     
                                            #####                                    
                                            ######                                   
                                           ########,                                 
                                     ,,################,,,,,                         
                               ,,#################################,,                 
                          ,,##########################################,,             
                       ,#########################################, ''#####,          
                    ,#############################################,,   '####,        
                  ,##################################################,,,,####,       
                ,###########''''           ''''###############################       
              ,#####''   ,,,,##########,,,,          '''####'''          '####       
            ,##' ,,,,###########################,,,                        '##       
           ' ,,###''''                  '''############,,,                           
         ,,##''                                '''############,,,,        ,,,,,,###''
      ,#''                                            '''#######################'''  
     '                                                          ''''####''''         
             ,#######,   #######,   ,#######,      ##                                
            ,#'     '#,  ##    ##  ,#'     '#,    #''#        ######   ,####,        
            ##       ##  ##   ,#'  ##            #'  '#       #        #'  '#        
            ##       ##  #######   ##           ,######,      #####,   #    #        
            '#,     ,#'  ##    ##  '#,     ,#' ,#      #,         ##   #,  ,#        
             '#######'   ##     ##  '#######'  #'      '#     #####' # '####'        



                  #######################################################
                  #                        -***-                        #
                  #          Department of theory and spectroscopy      #
                  #    Directorship and core code : Frank Neese         #
                  #        Max Planck Institute fuer Kohlenforschung    #
                  #                Kaiser Wilhelm Platz 1               #
                  #                 D-45470 Muelheim/Ruhr               #
                  #                      Germany                        #
                  #                                                     #
                  #                  All rights reserved                #
                  #                        -***-                        #
                  #######################################################


                         Program Version 5.0.3 -  RELEASE  -


 With contributions from (in alphabetic order):
   Daniel Aravena         : Magnetic Suceptibility
   Michael Atanasov       : Ab Initio Ligand Field Theory (pilot matlab implementation)
   Alexander A. Auer      : GIAO ZORA, VPT2 properties, NMR spectrum
   Ute Becker             : Parallelization
   Giovanni Bistoni       : ED, misc. LED, open-shell LED, HFLD
   Martin Brehm           : Molecular dynamics
   Dmytro Bykov           : SCF Hessian
   Vijay G. Chilkuri      : MRCI spin determinant printing, contributions to CSF-ICE
   Dipayan Datta          : RHF DLPNO-CCSD density
   Achintya Kumar Dutta   : EOM-CC, STEOM-CC
   Dmitry Ganyushin       : Spin-Orbit,Spin-Spin,Magnetic field MRCI
   Miquel Garcia          : C-PCM and meta-GGA Hessian, CC/C-PCM, Gaussian charge scheme
   Yang Guo               : DLPNO-NEVPT2, F12-NEVPT2, CIM, IAO-localization
   Andreas Hansen         : Spin unrestricted coupled pair/coupled cluster methods
   Benjamin Helmich-Paris : MC-RPA, TRAH-SCF, COSX integrals
   Lee Huntington         : MR-EOM, pCC
   Robert Izsak           : Overlap fitted RIJCOSX, COSX-SCS-MP3, EOM
   Marcus Kettner         : VPT2
   Christian Kollmar      : KDIIS, OOCD, Brueckner-CCSD(T), CCSD density, CASPT2, CASPT2-K
   Simone Kossmann        : Meta GGA functionals, TD-DFT gradient, OOMP2, MP2 Hessian
   Martin Krupicka        : Initial AUTO-CI
   Lucas Lang             : DCDCAS
   Marvin Lechner         : AUTO-CI (C++ implementation), FIC-MRCC
   Dagmar Lenk            : GEPOL surface, SMD
   Dimitrios Liakos       : Extrapolation schemes; Compound Job, initial MDCI parallelization
   Dimitrios Manganas     : Further ROCIS development; embedding schemes
   Dimitrios Pantazis     : SARC Basis sets
   Anastasios Papadopoulos: AUTO-CI, single reference methods and gradients
   Taras Petrenko         : DFT Hessian,TD-DFT gradient, ASA, ECA, R-Raman, ABS, FL, XAS/XES, NRVS
   Peter Pinski           : DLPNO-MP2, DLPNO-MP2 Gradient
   Christoph Reimann      : Effective Core Potentials
   Marius Retegan         : Local ZFS, SOC
   Christoph Riplinger    : Optimizer, TS searches, QM/MM, DLPNO-CCSD(T), (RO)-DLPNO pert. Triples
   Tobias Risthaus        : Range-separated hybrids, TD-DFT gradient, RPA, STAB
   Michael Roemelt        : Original ROCIS implementation
   Masaaki Saitow         : Open-shell DLPNO-CCSD energy and density
   Barbara Sandhoefer     : DKH picture change effects
   Avijit Sen             : IP-ROCIS
   Kantharuban Sivalingam : CASSCF convergence, NEVPT2, FIC-MRCI
   Bernardo de Souza      : ESD, SOC TD-DFT
   Georgi Stoychev        : AutoAux, RI-MP2 NMR, DLPNO-MP2 response
   Willem Van den Heuvel  : Paramagnetic NMR
   Boris Wezisla          : Elementary symmetry handling
   Frank Wennmohs         : Technical directorship


 We gratefully acknowledge several colleagues who have allowed us to
 interface, adapt or use parts of their codes:
   Stefan Grimme, W. Hujo, H. Kruse, P. Pracht,  : VdW corrections, initial TS optimization,
                  C. Bannwarth, S. Ehlert          DFT functionals, gCP, sTDA/sTD-DF
   Ed Valeev, F. Pavosevic, A. Kumar             : LibInt (2-el integral package), F12 methods
   Garnet Chan, S. Sharma, J. Yang, R. Olivares  : DMRG
   Ulf Ekstrom                                   : XCFun DFT Library
   Mihaly Kallay                                 : mrcc  (arbitrary order and MRCC methods)
   Jiri Pittner, Ondrej Demel                    : Mk-CCSD
   Frank Weinhold                                : gennbo (NPA and NBO analysis)
   Christopher J. Cramer and Donald G. Truhlar   : smd solvation model
   Lars Goerigk                                  : TD-DFT with DH, B97 family of functionals
   V. Asgeirsson, H. Jonsson                     : NEB implementation
   FAccTs GmbH                                   : IRC, NEB, NEB-TS, DLPNO-Multilevel, CI-OPT
                                                   MM, QMMM, 2- and 3-layer-ONIOM, Crystal-QMMM,
                                                   LR-CPCM, SF, NACMEs, symmetry and pop. for TD-DFT,
                                                   nearIR, NL-DFT gradient (VV10), updates on ESD,
                                                   ML-optimized integration grids
   S Lehtola, MJT Oliveira, MAL Marques          : LibXC Library
   Liviu Ungur et al                             : ANISO software


 Your calculation uses the libint2 library for the computation of 2-el integrals
 For citations please refer to: http://libint.valeyev.net

 Your ORCA version has been built with support for libXC version: 5.1.0
 For citations please refer to: https://tddft.org/programs/libxc/

 This ORCA versions uses:
   CBLAS   interface :  Fast vector & matrix operations
   LAPACKE interface :  Fast linear algebra routines
   SCALAPACK package :  Parallel linear algebra routines
   Shared memory     :  Shared parallel matrices
   BLAS/LAPACK       :  OpenBLAS 0.3.15  USE64BITINT DYNAMIC_ARCH NO_AFFINITY Haswell SINGLE_THREADED
        Core in use  :  Haswell
   Copyright (c) 2011-2014, The OpenBLAS Project




***************************************
The coordinates will be read from file: pbe.xyz
***************************************


================================================================================

cite the ECPs for Au [Def2-ECP] as follows:
Ce-Yb(ecp-28): M. Dolg, H. Stoll, H.Preuss, J. Chem. Phys., 1989, 90, 1730-1734.
Y-Cd(ecp-28), Hf-Hg(ecp-46): D. Andrae,U. Haeussermann, M. Dolg, H. Stoll, H. Preuss, Theor. Chim. Acta, 1990, 77, 123-141.
In-Sb(ecp-28), Tl-Bi(ecp-46): B. Metz, H. Stoll, M. Dolg, J. Chem. Phys., 2000, 113, 2563-2569.
Te-Xe(ecp-28), Po-Rn(ecp-46): K. A. Peterson, D. Figgen, E. Goll, H. Stoll, M. Dolg, J. Chem. Phys., 2003, 119, 11113-11123.
Rb(ecp-28), Cs(ecp-46): T. Leininger, A. Nicklass, W. Kuechle, H. Stoll, M. Dolg, A. Bergner, Chem. Phys. Lett., 1996, 255, 274-280.
Sr(ecp-28), Ba(ecp-46): M. Kaupp, P. V. Schleyer, H. Stoll and H. Preuss, J. Chem. Phys., 1991, 94, 1360-1366.
La(ecp-46): M. Dolg, H. Stoll, A. Savin, H. Preuss, Theor. Chim. Acta, 1989, 75, 173-194.
Lu(ecp-28): X. Cao, M. Dolg, J. Chem. Phys., 2001, 115, 7348-7355.

ECP parameters for Au [Def2-ECP] have been obtained from:
TURBOMOLE (7.0.2)

----- Orbital basis set information -----
Your calculation utilizes the basis: def2-TZVP
   F. Weigend and R. Ahlrichs, Phys. Chem. Chem. Phys. 7, 3297 (2005).

----- AuxJ basis set information -----
Your calculation utilizes the auxiliary basis: def2/J
   F. Weigend, Phys. Chem. Chem. Phys. 8, 1057 (2006).

================================================================================
                                        WARNINGS
                       Please study these warnings very carefully!
================================================================================


WARNING: your system is open-shell and RHF/RKS was chosen
  ===> : WILL SWITCH to UHF/UKS


INFO   : the flag for use of the SHARK integral package has been found!



***************************************
The coordinates will be read from file: pbe.xyz
***************************************


================================================================================

cite the ECPs for Au [Def2-ECP] as follows:
Ce-Yb(ecp-28): M. Dolg, H. Stoll, H.Preuss, J. Chem. Phys., 1989, 90, 1730-1734.
Y-Cd(ecp-28), Hf-Hg(ecp-46): D. Andrae,U. Haeussermann, M. Dolg, H. Stoll, H. Preuss, Theor. Chim. Acta, 1990, 77, 123-141.
In-Sb(ecp-28), Tl-Bi(ecp-46): B. Metz, H. Stoll, M. Dolg, J. Chem. Phys., 2000, 113, 2563-2569.
Te-Xe(ecp-28), Po-Rn(ecp-46): K. A. Peterson, D. Figgen, E. Goll, H. Stoll, M. Dolg, J. Chem. Phys., 2003, 119, 11113-11123.
Rb(ecp-28), Cs(ecp-46): T. Leininger, A. Nicklass, W. Kuechle, H. Stoll, M. Dolg, A. Bergner, Chem. Phys. Lett., 1996, 255, 274-280.
Sr(ecp-28), Ba(ecp-46): M. Kaupp, P. V. Schleyer, H. Stoll and H. Preuss, J. Chem. Phys., 1991, 94, 1360-1366.
La(ecp-46): M. Dolg, H. Stoll, A. Savin, H. Preuss, Theor. Chim. Acta, 1989, 75, 173-194.
Lu(ecp-28): X. Cao, M. Dolg, J. Chem. Phys., 2001, 115, 7348-7355.

ECP parameters for Au [Def2-ECP] have been obtained from:
TURBOMOLE (7.0.2)

----- Orbital basis set information -----
Your calculation utilizes the basis: def2-TZVP
   F. Weigend and R. Ahlrichs, Phys. Chem. Chem. Phys. 7, 3297 (2005).

----- AuxJ basis set information -----
Your calculation utilizes the auxiliary basis: def2/J
   F. Weigend, Phys. Chem. Chem. Phys. 8, 1057 (2006).

================================================================================
                                        WARNINGS
                       Please study these warnings very carefully!
================================================================================


INFO   : the flag for use of the SHARK integral package has been found!

================================================================================
                                       INPUT FILE
================================================================================
NAME = pbeSP.inp
|  1> !PBE def2-TZVP VERYSLOWCONV
|  2> 
|  3> %scf
|  4>   AutoTRAHIter 200
|  5>   maxiter 400
|  6> end
|  7> 
|  8> 
|  9> %pal nprocs 6 end 
| 10> 
| 11> *xyzfile 0 5 pbe.xyz
| 12> 
| 13> $new_job
| 14> 
| 15> !PBE def2-TZVP VERYSLOWCONV
| 16> 
| 17> %scf
| 18>   AutoTRAHIter 200
| 19>   maxiter 400
| 20> end
| 21>  
| 22> 
| 23> %pal nprocs 6 end 
| 24> 
| 25> *xyzfile 0 3 pbe.xyz
| 26> 
| 27> 
| 28> 
| 29> 
| 30> 
| 31>                          ****END OF INPUT****
================================================================================


                 $$$$$$$$$$$$$$$$$$$$$$$$$$$$$$$$$$$$$$$$$$$$$$ 
                 $ THERE ARE  2 JOBS TO BE PROCESSED THIS RUN $
                 $$$$$$$$$$$$$$$$$$$$$$$$$$$$$$$$$$$$$$$$$$$$$$ 




                 $$$$$$$$$$$$$$$$  JOB NUMBER  1 $$$$$$$$$$$$$$


                       ****************************
                       * Single Point Calculation *
                       ****************************

---------------------------------
CARTESIAN COORDINATES (ANGSTROEM)
---------------------------------
  Au    10.746341    5.002736    5.049143
  Au     8.340528    7.443499    9.470186
  Au     7.254991    7.519236    6.774852
  Au     7.827527    5.275404    5.484041
  Au     9.614442    3.545775    7.131058
  Au     9.494827    5.009934    9.397671
  Au    11.075911    7.443816    8.825104
  Au     7.379847    9.760691    8.416175
  Au    11.432212    7.484836    5.884043
  Au     9.659249    9.127979    7.071932
  Fe     9.542505    6.227423    7.116707

----------------------------
CARTESIAN COORDINATES (A.U.)
----------------------------
  NO LB      ZA    FRAG     MASS         X           Y           Z
   0 Au   19.0000*   0   196.966   20.307641    9.453801    9.541498
   1 Au   19.0000*   0   196.966   15.761313   14.066174   17.896058
   2 Au   19.0000*   0   196.966   13.709945   14.209296   12.802614
   3 Au   19.0000*   0   196.966   14.791882    9.969069   10.363336
   4 Au   19.0000*   0   196.966   18.168662    6.700544   13.475746
   5 Au   19.0000*   0   196.966   17.942623    9.467404   17.759024
   6 Au   19.0000*   0   196.966   20.930438   14.066774   16.677030
   7 Au   19.0000*   0   196.966   13.945889   18.445033   15.904265
   8 Au   19.0000*   0   196.966   21.603749   14.144291   11.119229
   9 Au   19.0000*   0   196.966   18.253336   17.249381   13.364014
  10 Fe   26.0000    0    55.850   18.032721   11.768124   13.448626
* core charge reduced due to ECP

--------------------------------
INTERNAL COORDINATES (ANGSTROEM)
--------------------------------
 Au     0   0   0     0.000000000000     0.00000000     0.00000000
 Au     1   0   0     5.593825139851     0.00000000     0.00000000
 Au     2   1   0     2.906708444274    55.88315862     0.00000000
 Au     3   2   1     2.651182364601   110.41225120    32.91602023
 Au     1   2   3     2.781779807351    57.45427786   248.66232937
 Au     2   1   3     2.694420387193    53.15811386   138.32427277
 Au     2   1   3     2.810418090693    53.13288963   222.65045723
 Au     2   1   3     2.720887588891   102.54958643   321.80748405
 Au     1   2   3     2.707083056070    57.66598531    94.65126380
 Au     9   1   2     2.693398422926   121.91122424   329.05308424
 Fe     4   3   2     2.552074702289    61.17882884   324.24175537

---------------------------
INTERNAL COORDINATES (A.U.)
---------------------------
 Au     0   0   0     0.000000000000     0.00000000     0.00000000
 Au     1   0   0    10.570797555361     0.00000000     0.00000000
 Au     2   1   0     5.492882910834    55.88315862     0.00000000
 Au     3   2   1     5.010008600177   110.41225120    32.91602023
 Au     1   2   3     5.256802000766    57.45427786   248.66232937
 Au     2   1   3     5.091716621448    53.15811386   138.32427277
 Au     2   1   3     5.310920513228    53.13288963   222.65045723
 Au     2   1   3     5.141732384189   102.54958643   321.80748405
 Au     1   2   3     5.115645597751    57.66598531    94.65126380
 Au     9   1   2     5.089785388866   121.91122424   329.05308424
 Fe     4   3   2     4.822722260634    61.17882884   324.24175537

---------------------
BASIS SET INFORMATION
---------------------
There are 2 groups of distinct atoms

 Group   1 Type Au  : 8s7p6d1f contracted to 6s4p3d1f pattern {311111/4111/411/1}
 Group   2 Type Fe  : 17s11p7d1f contracted to 6s4p4d1f pattern {842111/6311/4111/1}

Atom   0Au   basis set group =>   1
Atom   1Au   basis set group =>   1
Atom   2Au   basis set group =>   1
Atom   3Au   basis set group =>   1
Atom   4Au   basis set group =>   1
Atom   5Au   basis set group =>   1
Atom   6Au   basis set group =>   1
Atom   7Au   basis set group =>   1
Atom   8Au   basis set group =>   1
Atom   9Au   basis set group =>   1
Atom  10Fe   basis set group =>   2
---------------------------------
AUXILIARY/J BASIS SET INFORMATION
---------------------------------
There are 2 groups of distinct atoms

 Group   1 Type Au  : 11s5p5d3f3g contracted to 8s5p5d2f3g pattern {41111111/11111/11111/21/111}
 Group   2 Type Fe  : 19s5p5d3f3g contracted to 8s5p5d2f3g pattern {121111111/11111/11111/21/111}

Atom   0Au   basis set group =>   1
Atom   1Au   basis set group =>   1
Atom   2Au   basis set group =>   1
Atom   3Au   basis set group =>   1
Atom   4Au   basis set group =>   1
Atom   5Au   basis set group =>   1
Atom   6Au   basis set group =>   1
Atom   7Au   basis set group =>   1
Atom   8Au   basis set group =>   1
Atom   9Au   basis set group =>   1
Atom  10Fe   basis set group =>   2
-------------------------
ECP PARAMETER INFORMATION
-------------------------

 Group 1, Type Au ECP Def2-ECP (replacing 60 core electrons, lmax=3)

Atom   0Au   ECP group =>   1
Atom   1Au   ECP group =>   1
Atom   2Au   ECP group =>   1
Atom   3Au   ECP group =>   1
Atom   4Au   ECP group =>   1
Atom   5Au   ECP group =>   1
Atom   6Au   ECP group =>   1
Atom   7Au   ECP group =>   1
Atom   8Au   ECP group =>   1
Atom   9Au   ECP group =>   1



           ************************************************************
           *        Program running with 6 parallel MPI-processes     *
           *              working on a common directory               *
           ************************************************************
------------------------------------------------------------------------------
                           ORCA GTO INTEGRAL CALCULATION
                           -- RI-GTO INTEGRALS CHOSEN --
------------------------------------------------------------------------------
------------------------------------------------------------------------------
                   ___                                                        
                  /   \      - P O W E R E D   B Y -                         
                 /     \                                                     
                 |  |  |   _    _      __       _____    __    __             
                 |  |  |  | |  | |    /  \     |  _  \  |  |  /  |          
                  \  \/   | |  | |   /    \    | | | |  |  | /  /          
                 / \  \   | |__| |  /  /\  \   | |_| |  |  |/  /          
                |  |  |   |  __  | /  /__\  \  |    /   |      \           
                |  |  |   | |  | | |   __   |  |    \   |  |\   \          
                \     /   | |  | | |  |  |  |  | |\  \  |  | \   \       
                 \___/    |_|  |_| |__|  |__|  |_| \__\ |__|  \__/        
                                                                              
                      - O R C A' S   B I G   F R I E N D -                    
                                      &                                       
                       - I N T E G R A L  F E E D E R -                       
                                                                              
 v1 FN, 2020, v2 2021                                                         
------------------------------------------------------------------------------


Reading SHARK input file pbeSP.SHARKINP.tmp ... ok
----------------------
SHARK INTEGRAL PACKAGE
----------------------

Number of atoms                             ...     11
Number of basis functions                   ...    445
Number of shells                            ...    155
Maximum angular momentum                    ...      3
Integral batch strategy                     ... SHARK/LIBINT Hybrid
RI-J (if used) integral strategy            ... SPLIT-RIJ (Revised 2003 algorithm where possible)
Printlevel                                  ...      1
Contraction scheme used                     ... SEGMENTED contraction
Coulomb Range Separation                    ... NOT USED
Exchange Range Separation                   ... NOT USED
Finite Nucleus Model                        ... NOT USED
Auxiliary Coulomb fitting basis             ... AVAILABLE
   # of basis functions in Aux-J            ...    979
   # of shells in Aux-J                     ...    253
   Maximum angular momentum in Aux-J        ...      4
Auxiliary J/K fitting basis                 ... NOT available
Auxiliary Correlation fitting basis         ... NOT available
Auxiliary 'external' fitting basis          ... NOT available
Integral threshold                          ...     1.000000e-10
Primitive cut-off                           ...     1.000000e-11
Primitive pair pre-selection threshold      ...     1.000000e-11

Calculating pre-screening integrals         ... done (  0.1 sec) Dimension = 155
Organizing shell pair data                  ... done (  0.2 sec)
Shell pair information
Total number of shell pairs                 ...     12090
Shell pairs after pre-screening             ...     10000
Total number of primitive shell pairs       ...     33105
Primitive shell pairs kept                  ...     20182
          la=0 lb=0:   1566 shell pairs
          la=1 lb=0:   2279 shell pairs
          la=1 lb=1:    859 shell pairs
          la=2 lb=0:   1984 shell pairs
          la=2 lb=1:   1391 shell pairs
          la=2 lb=2:    577 shell pairs
          la=3 lb=0:    527 shell pairs
          la=3 lb=1:    406 shell pairs
          la=3 lb=2:    352 shell pairs
          la=3 lb=3:     59 shell pairs

Calculating one electron integrals          ... done (  0.0 sec)
Calculating ECP integrals                   ... done (  3.7 sec)
Calculating RI/J V-Matrix + Cholesky decomp.... done (  0.0 sec)
Calculating Nuclear repulsion               ... done (  0.0 sec) ENN=   3230.874309384243 Eh

SHARK setup successfully completed in   4.1 seconds

Maximum memory used throughout the entire GTOINT-calculation: 27.2 MB


           ************************************************************
           *        Program running with 6 parallel MPI-processes     *
           *              working on a common directory               *
           ************************************************************
-------------------------------------------------------------------------------
                                 ORCA SCF
-------------------------------------------------------------------------------

------------
SCF SETTINGS
------------
Hamiltonian:
 Density Functional     Method          .... DFT(GTOs)
 Exchange Functional    Exchange        .... PBE
   PBE kappa parameter   XKappa         ....  0.804000
   PBE mue parameter    XMuePBE         ....  0.219520
 Correlation Functional Correlation     .... PBE
   PBE beta parameter  CBetaPBE         ....  0.066725
 LDA part of GGA corr.  LDAOpt          .... PW91-LDA
 Gradients option       PostSCFGGA      .... off
   Density functional embedding theory  .... OFF
   NL short-range parameter             ....  6.400000
 RI-approximation to the Coulomb term is turned on
   Number of AuxJ basis functions       .... 979


General Settings:
 Integral files         IntName         .... pbeSP
 Hartree-Fock type      HFTyp           .... UHF
 Total Charge           Charge          ....    0
 Multiplicity           Mult            ....    5
 Number of Electrons    NEL             ....  216
 Basis Dimension        Dim             ....  445
 Nuclear Repulsion      ENuc            ....   3230.8743093842 Eh

Convergence Acceleration:
 DIIS                   CNVDIIS         .... on
   Start iteration      DIISMaxIt       ....     0
   Startup error        DIISStart       ....  0.200000
   # of expansion vecs  DIISMaxEq       ....     5
   Bias factor          DIISBfac        ....   1.050
   Max. coefficient     DIISMaxC        ....  10.000
 Trust-Rad. Augm. Hess. CNVTRAH         .... auto
   Auto Start mean grad. ratio tolernc. ....  1.125000
   Auto Start start iteration           ....   200
   Auto Start num. interpolation iter.  ....    10
   Max. Number of Micro iterations      ....    16
   Max. Number of Macro iterations      .... Maxiter - #DIIS iter
   Number of Davidson start vectors     ....     2
   Converg. threshold I  (grad. norm)   ....   5.000e-05
   Converg. threshold II (energy diff.) ....   1.000e-06
   Grad. Scal. Fac. for Micro threshold ....   0.100
   Minimum threshold for Micro iter.    ....   0.010
   NR start threshold (gradient norm)   ....   0.001
   Initial trust radius                 ....   0.400
   Minimum AH scaling param. (alpha)    ....   1.000
   Maximum AH scaling param. (alpha)    .... 1000.000
   Orbital update algorithm             .... Taylor
   White noise on init. David. guess    .... on
   Maximum white noise                  ....   0.010
   Quad. conv. algorithm                .... NR
 SOSCF                  CNVSOSCF        .... off
 Level Shifting         CNVShift        .... on
   Level shift para.    LevelShift      ....    0.2500
   Turn off err/grad.   ShiftErr        ....    0.0000
 Zerner damping         CNVZerner       .... off
 Static damping         CNVDamp         .... on
   Fraction old density DampFac         ....    0.9200
   Max. Damping (<1)    DampMax         ....    0.9800
   Min. Damping (>=0)   DampMin         ....    0.0000
   Turn off err/grad.   DampErr         ....    0.0030
 Fernandez-Rico         CNVRico         .... off

SCF Procedure:
 Maximum # iterations   MaxIter         ....   400
 SCF integral mode      SCFMode         .... Direct
   Integral package                     .... SHARK and LIBINT hybrid scheme
 Reset frequency        DirectResetFreq ....    20
 Integral Threshold     Thresh          ....  1.000e-10 Eh
 Primitive CutOff       TCut            ....  1.000e-11 Eh

Convergence Tolerance:
 Convergence Check Mode ConvCheckMode   .... Total+1el-Energy
 Convergence forced     ConvForced      .... 0
 Energy Change          TolE            ....  1.000e-06 Eh
 1-El. energy change                    ....  1.000e-03 Eh
 DIIS Error             TolErr          ....  1.000e-06


Diagonalization of the overlap matrix:
Smallest eigenvalue                        ... 6.104e-04
Time for diagonalization                   ...    0.022 sec
Threshold for overlap eigenvalues          ... 1.000e-08
Number of eigenvalues below threshold      ... 0
Time for construction of square roots      ...    0.012 sec
Total time needed                          ...    0.035 sec

Time for model grid setup =    0.251 sec

------------------------------
INITIAL GUESS: MODEL POTENTIAL
------------------------------
Loading Hartree-Fock densities                     ... done
  calling /media/Programs/ORCA501/orca pbeSP_atom79.inp > pbeSP_atom79.out in order to generate an atomic fitting density for atom 0 (Au with ECP) on-the-fly... 
    atom 0 (Au), assumed electronic state with S=2: 1s2 2s2 2p6 3s2 3p6 4s2 3d10 4p6 5s2 4d10 5p6 6s1 4f14 5d10           ... done
Calculating cut-offs                               ... done
Initializing the effective Hamiltonian             ... done
Setting up the integral package (SHARK)            ... done
Starting the Coulomb interaction                   ... done (   0.2 sec)
Reading the grid                                   ... done
Mapping shells                                     ... done
Starting the XC term evaluation                    ... done (   0.2 sec)
  promolecular density results
     # of electrons  =    816.011818832
     EX              =  -3712.289826636
     EC              =    -49.561681872
     EX+EC           =  -3761.851508508
Transforming the Hamiltonian                       ... done (   0.0 sec)
Diagonalizing the Hamiltonian                      ... done (   0.0 sec)
Back transforming the eigenvectors                 ... done (   0.0 sec)
Now organizing SCF variables                       ... done
                      ------------------
                      INITIAL GUESS DONE (   1.1 sec)
                      ------------------
-------------------
DFT GRID GENERATION
-------------------

General Integration Accuracy     IntAcc      ... 4.388
Radial Grid Type                 RadialGrid  ... OptM3 with GC (2021)
Angular Grid (max. ang.)         AngularGrid ... 4 (Lebedev-302)
Angular grid pruning method      GridPruning ... 4 (adaptive)
Weight generation scheme         WeightScheme... Becke
Basis function cutoff            BFCut       ... 1.0000e-10
Integration weight cutoff        WCut        ... 1.0000e-14
Angular grids for H and He will be reduced by one unit
Partially contracted basis set               ... off
Rotationally invariant grid construction     ... off

Total number of grid points                  ...   123327
Total number of batches                      ...     1933
Average number of points per batch           ...       63
Average number of grid points per atom       ...    11212
Time for grid setup =    0.892 sec

--------------
SCF ITERATIONS
--------------
ITER       Energy         Delta-E        Max-DP      RMS-DP      [F,P]     Damp
               ***  Starting incremental Fock matrix formation  ***
  0  -2619.2396037010   0.000000000000 0.15261109  0.00096493  0.4508333 0.9200
  1  -2620.2391890140  -0.999585313027 0.11305461  0.00083602  0.2705418 0.9200
                               ***Turning on DIIS***
  2  -2620.7287070997  -0.489518085692 0.06450636  0.00063895  0.2409959 0.9200
  3  -2620.8742965248  -0.145589425093 0.03952920  0.00047719  0.2208386 0.9200
  4  -2620.8674531595   0.006843365298 0.02891995  0.00038559  0.2026127 0.9200
  5  -2620.8588086229   0.008644536554 0.02331202  0.00032767  0.1859057 0.9200
  6  -2620.9331334030  -0.074324780074 0.02364448  0.00030763  0.1705130 0.9200
  7  -2621.0237451738  -0.090611770813 0.02144717  0.00028648  0.1565165 0.9200
  8  -2621.0838323927  -0.060087218914 0.02207975  0.00026614  0.1438999 0.9200
  9  -2621.1291257366  -0.045293343822 0.02222797  0.00025444  0.1322836 0.9200
 10  -2621.1625648930  -0.033439156418 0.01885056  0.00022741  0.1215963 0.9200
 11  -2621.1892835138  -0.026718620821 0.01438148  0.00020528  0.1118656 0.9200
 12  -2621.2287333920  -0.039449878167 0.01500996  0.00020564  0.1028290 0.9200
 13  -2621.2695213554  -0.040787963482 0.01427112  0.00018573  0.0944170 0.9200
 14  -2621.3009412927  -0.031419937258 0.01309749  0.00017411  0.0867829 0.9200
 15  -2621.3299344366  -0.028993143915 0.01249636  0.00016608  0.0797615 0.9200
 16  -2621.3549740595  -0.025039622872 0.01122666  0.00015262  0.0733342 0.9200
 17  -2621.3777869668  -0.022812907302 0.01421061  0.00014380  0.0674598 0.9200
 18  -2621.4022371428  -0.024450175993 0.01646360  0.00014179  0.0619898 0.9200
 19  -2621.4243583898  -0.022121247015 0.01686854  0.00013455  0.0569574 0.9200
               *** Restarting incremental Fock matrix formation ***
                                   *** Resetting DIIS ***
 20  -2621.4444192457  -0.020060855874 0.01736254  0.00013095  0.0523681 0.9200
 21  -2621.4632423719  -0.018823126199 0.01729946  0.00012716  0.0480890 0.9200
 22  -2621.4809140587  -0.017671686860 0.01712330  0.00012340  0.0441744 0.9200
 23  -2621.4972860457  -0.016371986971 0.01685401  0.00012087  0.0405902 0.9200
 24  -2621.5124189786  -0.015132932865 0.01635901  0.00011939  0.0373073 0.9200
 25  -2621.5265504779  -0.014131499331 0.01580948  0.00011839  0.0343091 0.9200
 26  -2621.5397811634  -0.013230685497 0.01510310  0.00011760  0.0315607 0.9200
 27  -2621.5521304368  -0.012349273409 0.01421407  0.00011639  0.0290337 0.9200
 28  -2621.5636120176  -0.011481580846 0.01463808  0.00011499  0.0267001 0.9200
 29  -2621.5742971150  -0.010685097313 0.01520864  0.00011369  0.0245485 0.9200
 30  -2621.5842966989  -0.009999583959 0.01558752  0.00011218  0.0225738 0.9200
 31  -2621.5936298116  -0.009333112647 0.01577639  0.00011008  0.0207619 0.9200
 32  -2621.6023135337  -0.008683722147 0.01579202  0.00010769  0.0190952 0.9200
 33  -2621.6103905004  -0.008076966681 0.01566991  0.00010531  0.0175604 0.9200
 34  -2621.6179220089  -0.007531508477 0.01542384  0.00010294  0.0161493 0.9200
 35  -2621.6249474522  -0.007025443313 0.01504117  0.00010019  0.0148528 0.9200
 36  -2621.6314802177  -0.006532765542 0.01455092  0.00009713  0.0136601 0.9200
 37  -2621.6375484240  -0.006068206274 0.01400224  0.00009410  0.0125619 0.9200
 38  -2621.6431911862  -0.005642762165 0.01341632  0.00009122  0.0115526 0.9200
 39  -2621.6484462908  -0.005255104670 0.01277942  0.00008824  0.0106258 0.9200
               *** Restarting incremental Fock matrix formation ***
                                   *** Resetting DIIS ***
 40  -2621.6533322982  -0.004886007409 0.01216929  0.00008540  0.0097733 0.9200
 41  -2621.6578831716  -0.004550873360 0.01147220  0.00008228  0.0089786 0.9200
 42  -2621.6621073672  -0.004224195617 0.01085428  0.00007897  0.0082503 0.9200
 43  -2621.6660259115  -0.003918544232 0.01045268  0.00007591  0.0075806 0.9200
 44  -2621.6696634302  -0.003637518718 0.01006762  0.00007321  0.0069716 0.9200
 45  -2621.6730439564  -0.003380526226 0.00969078  0.00007083  0.0064164 0.9200
 46  -2621.6761878642  -0.003143907831 0.00927903  0.00006854  0.0058998 0.9200
 47  -2621.6791122228  -0.002924358529 0.00885737  0.00006641  0.0054215 0.9200
 48  -2621.6818329552  -0.002720732404 0.00845695  0.00006453  0.0049851 0.9200
 49  -2621.6843692527  -0.002536297506 0.00805644  0.00006287  0.0045853 0.9200
 50  -2621.6867343915  -0.002365138833 0.00767906  0.00006136  0.0042199 0.9200
 51  -2621.6889403707  -0.002205979156 0.00774349  0.00006005  0.0038817 0.9200
 52  -2621.6910001570  -0.002059786307 0.00777604  0.00005902  0.0035718 0.9200
 53  -2621.6929261079  -0.001925950960 0.00778154  0.00005825  0.0032872 0.9200
 54  -2621.6947301356  -0.001804027633 0.00780084  0.00005767  0.0030269 0.9200
 55  -2621.6964206693  -0.001690533742 0.09798016  0.00071536  0.0027882 0.0000
 56  -2621.7166398088  -0.020219139527 0.00755673  0.00007474  0.0011222 0.0000
 57  -2621.7170221248  -0.000382315938 0.00826128  0.00007567  0.0012118 0.0000
 58  -2621.7173951265  -0.000373001752 0.00837449  0.00007574  0.0011585 0.0000
 59  -2621.7177691961  -0.000374069618 0.00834484  0.00007574  0.0011599 0.0000
               *** Restarting incremental Fock matrix formation ***
                                   *** Resetting DIIS ***
 60  -2621.7181395024  -0.000370306252 0.00774311  0.00007638  0.0011383 0.0000
 61  -2621.7185140434  -0.000374541013 0.00769591  0.00007554  0.0012285 0.0000
 62  -2621.7188867995  -0.000372756067 0.00815999  0.00007595  0.0012046 0.0000
 63  -2621.7192560708  -0.000369271328 0.00799660  0.00007558  0.0011497 0.0000
 64  -2621.7196232231  -0.000367152276 0.00764410  0.00007627  0.0011533 0.0000
 65  -2621.7199864541  -0.000363231072 0.00766425  0.00007444  0.0011777 0.0000
 66  -2621.7203384803  -0.000352026157 0.00738167  0.00007338  0.0011476 0.0000
 67  -2621.7206779036  -0.000339423271 0.00732014  0.00007264  0.0011079 0.0000
 68  -2621.7210098777  -0.000331974115 0.00675913  0.00007062  0.0010934 0.0000
 69  -2621.7213285147  -0.000318637045 0.00661689  0.00006990  0.0011020 0.0000
 70  -2621.7216373095  -0.000308794791 0.00654349  0.00006888  0.0010593 0.0000
 71  -2621.7219354778  -0.000298168326 0.00630361  0.00006822  0.0010376 0.0000
 72  -2621.7222182840  -0.000282806121 0.00592743  0.00006528  0.0010294 0.0000
 73  -2621.7224893891  -0.000271105183 0.00554986  0.00006388  0.0009798 0.0000
 74  -2621.7227388175  -0.000249428369 0.00535403  0.00006130  0.0009706 0.0000
 75  -2621.7229851660  -0.000246348467 0.00506257  0.00006300  0.0009322 0.0000
 76  -2621.7232045177  -0.000219351670 0.00478371  0.00005792  0.0009507 0.0000
 77  -2621.7234276719  -0.000223154241 0.00450098  0.00005617  0.0008782 0.0000
 78  -2621.7236224609  -0.000194789006 0.00425170  0.00005430  0.0008505 0.0000
 79  -2621.7238144171  -0.000191956171 0.00457281  0.00005573  0.0008195 0.0000
               *** Restarting incremental Fock matrix formation ***
                                   *** Resetting DIIS ***
 80  -2621.7239819297  -0.000167512585 0.00429568  0.00005417  0.0008341 0.0000
 81  -2621.7241388328  -0.000156903151 0.00392075  0.00004867  0.0009423 0.0000
 82  -2621.7242988925  -0.000160059676 0.00380866  0.00004596  0.0007908 0.0000
 83  -2621.7244414973  -0.000142604849 0.00364629  0.00004379  0.0006799 0.0000
 84  -2621.7245684901  -0.000126992783 0.00359351  0.00004326  0.0006767 0.0000
 85  -2621.7246857755  -0.000117285392 0.00355991  0.00004097  0.0006581 0.0000
 86  -2621.7247948297  -0.000109054212 0.00350018  0.00004139  0.0006097 0.0000
 87  -2621.7248917037  -0.000096874017 0.00333914  0.00003756  0.0006372 0.0000
 88  -2621.7249886593  -0.000096955604 0.00322940  0.00003740  0.0005800 0.0000
 89  -2621.7250729931  -0.000084333771 0.00307589  0.00003513  0.0006900 0.0000
 90  -2621.7251529672  -0.000079974108 0.00304697  0.00003347  0.0005287 0.0000
 91  -2621.7252249871  -0.000072019873 0.00280633  0.00003154  0.0005242 0.0000
 92  -2621.7252906795  -0.000065692449 0.00285886  0.00003192  0.0004884 0.0000
 93  -2621.7253519490  -0.000061269411 0.00259108  0.00002944  0.0004716 0.0000
 94  -2621.7254063835  -0.000054434537 0.00254447  0.00002803  0.0004745 0.0000
 95  -2621.7254567325  -0.000050349002 0.00240593  0.00002629  0.0004236 0.0000
 96  -2621.7255039622  -0.000047229683 0.00225480  0.00002560  0.0004038 0.0000
 97  -2621.7255446484  -0.000040686265 0.00221631  0.00002415  0.0003851 0.0000
 98  -2621.7255836011  -0.000038952644 0.00214598  0.00002336  0.0003734 0.0000
 99  -2621.7256188964  -0.000035295273 0.00203165  0.00002217  0.0003439 0.0000
               *** Restarting incremental Fock matrix formation ***
                                   *** Resetting DIIS ***
100  -2621.7256500577  -0.000031161382 0.00188658  0.00002267  0.0004420 0.0000
101  -2621.7256617639  -0.000011706138 0.00184188  0.00002034  0.0017836 0.0000
102  -2621.7257026177  -0.000040853850 0.00175158  0.00001898  0.0006467 0.0000
103  -2621.7257302473  -0.000027629540 0.00167766  0.00001841  0.0003424 0.0000
104  -2621.7257529632  -0.000022715951 0.00165258  0.00001785  0.0002799 0.0000
105  -2621.7257731040  -0.000020140767 0.00151415  0.00001672  0.0002792 0.0000
106  -2621.7257916053  -0.000018501356 0.00143021  0.00001573  0.0002481 0.0000
107  -2621.7258078774  -0.000016272086 0.00145187  0.00001661  0.0002759 0.0000
108  -2621.7258230384  -0.000015160946 0.00133694  0.00001468  0.0002439 0.0000
109  -2621.7258377501  -0.000014711698 0.00127782  0.00001394  0.0002259 0.0000
110  -2621.7258503775  -0.000012627412 0.00119550  0.00001355  0.0002109 0.0000
111  -2621.7258619272  -0.000011549687 0.00114337  0.00001263  0.0001965 0.0000
112  -2621.7258722616  -0.000010334420 0.00107628  0.00001189  0.0001958 0.0000
113  -2621.7258819583  -0.000009696713 0.00106693  0.00001210  0.0001807 0.0000
114  -2621.7258901700  -0.000008211736 0.00097685  0.00001101  0.0001979 0.0000
115  -2621.7258984494  -0.000008279369 0.00092973  0.00001069  0.0001662 0.0000
116  -2621.7259054088  -0.000006959368 0.00091662  0.00001012  0.0001579 0.0000
117  -2621.7259122173  -0.000006808509 0.00085707  0.00000961  0.0001534 0.0000
118  -2621.7259179770  -0.000005759681 0.00079984  0.00000898  0.0001421 0.0000
119  -2621.7259234239  -0.000005446970 0.00080541  0.00000896  0.0002059 0.0000
               *** Restarting incremental Fock matrix formation ***
                                   *** Resetting DIIS ***
120  -2621.7259288636  -0.000005439652 0.00073103  0.00000832  0.0001298 0.0000
121  -2621.7259329608  -0.000004097237 0.00069811  0.00000782  0.0002261 0.0000
122  -2621.7259373119  -0.000004351089 0.00066922  0.00000749  0.0001170 0.0000
123  -2621.7259410344  -0.000003722475 0.00064165  0.00000730  0.0001131 0.0000
124  -2621.7259444701  -0.000003435669 0.00061481  0.00000698  0.0001115 0.0000
125  -2621.7259476422  -0.000003172143 0.00059346  0.00000672  0.0001026 0.0000
126  -2621.7259503610  -0.000002718835 0.00055149  0.00000628  0.0001071 0.0000
127  -2621.7259530023  -0.000002641259 0.00052433  0.00000600  0.0001277 0.0000
128  -2621.7259553758  -0.000002373500 0.00049324  0.00000566  0.0000894 0.0000
129  -2621.7259574122  -0.000002036389 0.00047725  0.00000555  0.0000854 0.0000
130  -2621.7259594034  -0.000001991217 0.00046005  0.00000521  0.0000888 0.0000
131  -2621.7259611779  -0.000001774541 0.00042765  0.00000502  0.0000850 0.0000
132  -2621.7259627996  -0.000001621682 0.00039999  0.00000471  0.0000711 0.0000
133  -2621.7259642303  -0.000001430632 0.00039014  0.00000440  0.0000692 0.0000
134  -2621.7259655220  -0.000001291709 0.00036992  0.00000420  0.0000992 0.0000
135  -2621.7259667793  -0.000001257310 0.00033957  0.00000410  0.0000656 0.0000
136  -2621.7259678818  -0.000001102509 0.00033489  0.00000391  0.0000622 0.0000
137  -2621.7259689038  -0.000001021978 0.00030749  0.00000367  0.0000557 0.0000
138  -2621.7259698110  -0.000000907286 0.00031291  0.00000353  0.0000577 0.0000
139  -2621.7259706406  -0.000000829511 0.00033697  0.00000363  0.0000528 0.0000
               *** Restarting incremental Fock matrix formation ***
                                   *** Resetting DIIS ***
140  -2621.7259709274  -0.000000286838 0.00031562  0.00000379  0.0001058 0.0000
141  -2621.7259706347   0.000000292729 0.00027508  0.00000313  0.0004222 0.0000
142  -2621.7259720283  -0.000001393612 0.00025323  0.00000291  0.0002110 0.0000
143  -2621.7259728656  -0.000000837345 0.00023596  0.00000277  0.0001063 0.0000
144  -2621.7259734392  -0.000000573619 0.00022600  0.00000274  0.0000419 0.0000
145  -2621.7259738801  -0.000000440858 0.00021877  0.00000251  0.0000400 0.0000
                 **** Energy Check signals convergence ****

               *****************************************************
               *                     SUCCESS                       *
               *           SCF CONVERGED AFTER 146 CYCLES          *
               *****************************************************


----------------
TOTAL SCF ENERGY
----------------

Total Energy       :        -2621.72597432 Eh          -71340.79066 eV

Components:
Nuclear Repulsion  :         3230.87430938 Eh           87916.55955 eV
Electronic Energy  :        -5852.60028370 Eh         -159257.35021 eV
One Electron Energy:       -10586.44490176 Eh         -288071.81106 eV
Two Electron Energy:         4733.84461806 Eh          128814.46086 eV

Virial components:
Potential Energy   :        -4341.22891431 Eh         -118130.84441 eV
Kinetic Energy     :         1719.50293999 Eh           46790.05376 eV
Virial Ratio       :            2.52469991


DFT components:
N(Alpha)           :      110.000032260210 electrons
N(Beta)            :      106.000033440733 electrons
N(Total)           :      216.000065700944 electrons
E(X)               :     -174.788398016678 Eh       
E(C)               :       -9.402883111920 Eh       
E(XC)              :     -184.191281128598 Eh       
DFET-embed. en.    :        0.000000000000 Eh       

---------------
SCF CONVERGENCE
---------------

  Last Energy change         ...   -4.3870e-07  Tolerance :   1.0000e-06
  Last MAX-Density change    ...    2.0120e-04  Tolerance :   1.0000e-05
  Last RMS-Density change    ...    2.3745e-06  Tolerance :   1.0000e-06
  Last DIIS Error            ...    3.7802e-05  Tolerance :   1.0000e-06

             **** THE GBW FILE WAS UPDATED (pbeSP.gbw) ****
             **** DENSITY pbeSP.scfp WAS UPDATED ****
             **** ENERGY FILE WAS UPDATED (pbeSP.en.tmp) ****
----------------------
UHF SPIN CONTAMINATION
----------------------

Warning: in a DFT calculation there is little theoretical justification to 
         calculate <S**2> as in Hartree-Fock theory. We will do it anyways
         but you should keep in mind that the values have only limited relevance

Expectation value of <S**2>     :     6.314719
Ideal value S*(S+1) for S=2.0   :     6.000000
Deviation                       :     0.314719

             **** THE GBW FILE WAS UPDATED (pbeSP.gbw) ****
             **** DENSITY pbeSP.scfp WAS UPDATED ****
----------------
ORBITAL ENERGIES
----------------
                 SPIN UP ORBITALS
  NO   OCC          E(Eh)            E(eV) 
   0   1.0000    -254.767481     -6932.5756 
   1   1.0000     -29.610810      -805.7511 
   2   1.0000     -25.551637      -695.2954 
   3   1.0000     -25.544152      -695.0917 
   4   1.0000     -25.541015      -695.0063 
   5   1.0000      -4.028283      -109.6151 
   6   1.0000      -4.027046      -109.5815 
   7   1.0000      -4.026535      -109.5676 
   8   1.0000      -4.026268      -109.5603 
   9   1.0000      -4.022725      -109.4639 
  10   1.0000      -4.022600      -109.4605 
  11   1.0000      -4.019044      -109.3638 
  12   1.0000      -4.017650      -109.3258 
  13   1.0000      -4.011613      -109.1615 
  14   1.0000      -4.011331      -109.1539 
  15   1.0000      -3.389631       -92.2365 
  16   1.0000      -2.246748       -61.1371 
  17   1.0000      -2.245928       -61.1148 
  18   1.0000      -2.244781       -61.0836 
  19   1.0000      -2.244203       -61.0679 
  20   1.0000      -2.242218       -61.0139 
  21   1.0000      -2.241865       -61.0042 
  22   1.0000      -2.241230       -60.9870 
  23   1.0000      -2.239889       -60.9505 
  24   1.0000      -2.239349       -60.9358 
  25   1.0000      -2.238603       -60.9155 
  26   1.0000      -2.238464       -60.9117 
  27   1.0000      -2.236485       -60.8579 
  28   1.0000      -2.235191       -60.8226 
  29   1.0000      -2.234699       -60.8093 
  30   1.0000      -2.234399       -60.8011 
  31   1.0000      -2.234101       -60.7930 
  32   1.0000      -2.233876       -60.7869 
  33   1.0000      -2.233241       -60.7696 
  34   1.0000      -2.231395       -60.7193 
  35   1.0000      -2.231305       -60.7169 
  36   1.0000      -2.230582       -60.6972 
  37   1.0000      -2.230481       -60.6945 
  38   1.0000      -2.228898       -60.6514 
  39   1.0000      -2.228574       -60.6426 
  40   1.0000      -2.227449       -60.6120 
  41   1.0000      -2.225686       -60.5640 
  42   1.0000      -2.225071       -60.5473 
  43   1.0000      -2.223909       -60.5157 
  44   1.0000      -2.219807       -60.4040 
  45   1.0000      -2.218898       -60.3793 
  46   1.0000      -2.214784       -60.2673 
  47   1.0000      -2.199508       -59.8516 
  48   1.0000      -2.193754       -59.6951 
  49   1.0000      -0.416432       -11.3317 
  50   1.0000      -0.380336       -10.3495 
  51   1.0000      -0.378504       -10.2996 
  52   1.0000      -0.370163       -10.0727 
  53   1.0000      -0.364237        -9.9114 
  54   1.0000      -0.356646        -9.7048 
  55   1.0000      -0.354529        -9.6472 
  56   1.0000      -0.353241        -9.6122 
  57   1.0000      -0.352107        -9.5813 
  58   1.0000      -0.344362        -9.3706 
  59   1.0000      -0.339546        -9.2395 
  60   1.0000      -0.336725        -9.1627 
  61   1.0000      -0.334752        -9.1091 
  62   1.0000      -0.332132        -9.0378 
  63   1.0000      -0.328756        -8.9459 
  64   1.0000      -0.324961        -8.8426 
  65   1.0000      -0.324086        -8.8188 
  66   1.0000      -0.321685        -8.7535 
  67   1.0000      -0.314992        -8.5714 
  68   1.0000      -0.314756        -8.5649 
  69   1.0000      -0.312926        -8.5152 
  70   1.0000      -0.309333        -8.4174 
  71   1.0000      -0.302578        -8.2336 
  72   1.0000      -0.301055        -8.1921 
  73   1.0000      -0.297900        -8.1063 
  74   1.0000      -0.296255        -8.0615 
  75   1.0000      -0.291144        -7.9224 
  76   1.0000      -0.286019        -7.7830 
  77   1.0000      -0.285222        -7.7613 
  78   1.0000      -0.284889        -7.7522 
  79   1.0000      -0.283165        -7.7053 
  80   1.0000      -0.280613        -7.6359 
  81   1.0000      -0.280135        -7.6229 
  82   1.0000      -0.277196        -7.5429 
  83   1.0000      -0.275176        -7.4879 
  84   1.0000      -0.273944        -7.4544 
  85   1.0000      -0.272254        -7.4084 
  86   1.0000      -0.266918        -7.2632 
  87   1.0000      -0.265698        -7.2300 
  88   1.0000      -0.264550        -7.1988 
  89   1.0000      -0.263827        -7.1791 
  90   1.0000      -0.262915        -7.1543 
  91   1.0000      -0.260549        -7.0899 
  92   1.0000      -0.258665        -7.0386 
  93   1.0000      -0.258199        -7.0259 
  94   1.0000      -0.256730        -6.9860 
  95   1.0000      -0.256067        -6.9679 
  96   1.0000      -0.253368        -6.8945 
  97   1.0000      -0.251955        -6.8561 
  98   1.0000      -0.251310        -6.8385 
  99   1.0000      -0.248322        -6.7572 
 100   1.0000      -0.245261        -6.6739 
 101   1.0000      -0.244740        -6.6597 
 102   1.0000      -0.241256        -6.5649 
 103   1.0000      -0.239993        -6.5305 
 104   1.0000      -0.236117        -6.4251 
 105   1.0000      -0.235113        -6.3978 
 106   1.0000      -0.233813        -6.3624 
 107   1.0000      -0.230308        -6.2670 
 108   1.0000      -0.202692        -5.5155 
 109   1.0000      -0.179570        -4.8864 
 110   0.0000      -0.167273        -4.5517 
 111   0.0000      -0.145154        -3.9498 
 112   0.0000      -0.132891        -3.6161 
 113   0.0000      -0.127768        -3.4768 
 114   0.0000      -0.111132        -3.0241 
 115   0.0000      -0.067565        -1.8385 
 116   0.0000      -0.059661        -1.6235 
 117   0.0000      -0.054387        -1.4799 
 118   0.0000      -0.050705        -1.3798 
 119   0.0000      -0.047801        -1.3007 
 120   0.0000      -0.035189        -0.9575 
 121   0.0000      -0.026476        -0.7204 
 122   0.0000      -0.024484        -0.6663 
 123   0.0000      -0.011475        -0.3123 
 124   0.0000      -0.006695        -0.1822 
 125   0.0000       0.008333         0.2267 
 126   0.0000       0.016739         0.4555 
 127   0.0000       0.035856         0.9757 
 128   0.0000       0.044262         1.2044 
 129   0.0000       0.048200         1.3116 
 130   0.0000       0.051183         1.3928 
 131   0.0000       0.052990         1.4419 
 132   0.0000       0.058100         1.5810 
 133   0.0000       0.058739         1.5984 
 134   0.0000       0.064843         1.7645 
 135   0.0000       0.065425         1.7803 
 136   0.0000       0.072461         1.9718 
 137   0.0000       0.082180         2.2362 
 138   0.0000       0.088963         2.4208 
 139   0.0000       0.097440         2.6515 
 140   0.0000       0.100420         2.7326 
 141   0.0000       0.106290         2.8923 
 142   0.0000       0.123623         3.3640 
 143   0.0000       0.132479         3.6049 
 144   0.0000       0.139660         3.8004 
 145   0.0000       0.142474         3.8769 
 146   0.0000       0.153840         4.1862 
 147   0.0000       0.154192         4.1958 
 148   0.0000       0.160310         4.3622 
 149   0.0000       0.166215         4.5229 
 150   0.0000       0.173428         4.7192 
 151   0.0000       0.177425         4.8280 
 152   0.0000       0.183199         4.9851 
 153   0.0000       0.188425         5.1273 
 154   0.0000       0.204288         5.5590 
 155   0.0000       0.216664         5.8957 
 156   0.0000       0.220695         6.0054 
 157   0.0000       0.224825         6.1178 
 158   0.0000       0.232077         6.3151 
 159   0.0000       0.238117         6.4795 
 160   0.0000       0.247927         6.7464 
 161   0.0000       0.253064         6.8862 
 162   0.0000       0.257153         6.9975 
 163   0.0000       0.259177         7.0526 
 164   0.0000       0.263363         7.1665 
 165   0.0000       0.264919         7.2088 
 166   0.0000       0.269405         7.3309 
 167   0.0000       0.275111         7.4861 
 168   0.0000       0.277211         7.5433 
 169   0.0000       0.290421         7.9027 
 170   0.0000       0.291144         7.9224 
 171   0.0000       0.302927         8.2431 
 172   0.0000       0.311142         8.4666 
 173   0.0000       0.311839         8.4856 
 174   0.0000       0.317249         8.6328 
 175   0.0000       0.317735         8.6460 
 176   0.0000       0.320818         8.7299 
 177   0.0000       0.329674         8.9709 
 178   0.0000       0.333482         9.0745 
 179   0.0000       0.334584         9.1045 
 180   0.0000       0.337243         9.1768 
 181   0.0000       0.344521         9.3749 
 182   0.0000       0.352908         9.6031 
 183   0.0000       0.365018         9.9327 
 184   0.0000       0.368073        10.0158 
 185   0.0000       0.374072        10.1790 
 186   0.0000       0.378232        10.2922 
 187   0.0000       0.390015        10.6128 
 188   0.0000       0.397927        10.8282 
 189   0.0000       0.399132        10.8609 
 190   0.0000       0.406204        11.0534 
 191   0.0000       0.415497        11.3062 
 192   0.0000       0.417636        11.3645 
 193   0.0000       0.424116        11.5408 
 194   0.0000       0.427981        11.6460 
 195   0.0000       0.433548        11.7974 
 196   0.0000       0.444492        12.0953 
 197   0.0000       0.451057        12.2739 
 198   0.0000       0.452367        12.3095 
 199   0.0000       0.460024        12.5179 
 200   0.0000       0.465029        12.6541 
 201   0.0000       0.474249        12.9050 
 202   0.0000       0.482123        13.1192 
 203   0.0000       0.490869        13.3572 
 204   0.0000       0.491694        13.3797 
 205   0.0000       0.496849        13.5199 
 206   0.0000       0.497306        13.5324 
 207   0.0000       0.502534        13.6746 
 208   0.0000       0.509745        13.8709 
 209   0.0000       0.514571        14.0022 
 210   0.0000       0.520920        14.1750 
 211   0.0000       0.528175        14.3724 
 212   0.0000       0.532139        14.4802 
 213   0.0000       0.538287        14.6475 
 214   0.0000       0.585497        15.9322 
 215   0.0000       0.610252        16.6058 
 216   0.0000       0.621378        16.9086 
 217   0.0000       0.632286        17.2054 
 218   0.0000       0.657496        17.8914 
 219   0.0000       0.662063        18.0156 
 220   0.0000       0.666833        18.1455 
 221   0.0000       0.695596        18.9281 
 222   0.0000       0.696248        18.9459 
 223   0.0000       0.711761        19.3680 
 224   0.0000       0.718696        19.5567 
 225   0.0000       0.725642        19.7457 
 226   0.0000       0.738914        20.1069 
 227   0.0000       0.744509        20.2591 
 228   0.0000       0.761755        20.7284 
 229   0.0000       0.773471        21.0472 
 230   0.0000       0.775358        21.0986 
 231   0.0000       0.803355        21.8604 
 232   0.0000       0.820075        22.3154 
 233   0.0000       0.843203        22.9447 
 234   0.0000       0.864953        23.5366 
 235   0.0000       0.872005        23.7285 
 236   0.0000       0.894066        24.3288 
 237   0.0000       0.908610        24.7245 
 238   0.0000       0.917823        24.9752 
 239   0.0000       0.924616        25.1601 
 240   0.0000       0.930094        25.3091 
 241   0.0000       0.949391        25.8342 
 242   0.0000       0.964524        26.2460 
 243   0.0000       0.985737        26.8233 
 244   0.0000       0.988621        26.9018 
 245   0.0000       1.047203        28.4958 
 246   0.0000       1.078311        29.3423 
 247   0.0000       1.096662        29.8417 
 248   0.0000       1.170815        31.8595 
 249   0.0000       1.201137        32.6846 
 250   0.0000       1.243813        33.8459 
 251   0.0000       1.253217        34.1018 
 252   0.0000       1.270444        34.5705 
 253   0.0000       1.276913        34.7466 
 254   0.0000       1.277385        34.7594 
 255   0.0000       1.290715        35.1221 
 256   0.0000       1.293076        35.1864 
 257   0.0000       1.329234        36.1703 
 258   0.0000       1.331058        36.2199 
 259   0.0000       1.334062        36.3017 
 260   0.0000       1.359864        37.0038 
 261   0.0000       1.362924        37.0871 
 262   0.0000       1.365752        37.1640 
 263   0.0000       1.379003        37.5246 
 264   0.0000       1.390020        37.8244 
 265   0.0000       1.392830        37.9008 
 266   0.0000       1.398999        38.0687 
 267   0.0000       1.403399        38.1884 
 268   0.0000       1.405039        38.2331 
 269   0.0000       1.409467        38.3535 
 270   0.0000       1.413988        38.4766 
 271   0.0000       1.424313        38.7575 
 272   0.0000       1.431726        38.9593 
 273   0.0000       1.436190        39.0807 
 274   0.0000       1.437247        39.1095 
 275   0.0000       1.443480        39.2791 
 276   0.0000       1.443995        39.2931 
 277   0.0000       1.453715        39.5576 
 278   0.0000       1.459385        39.7119 
 279   0.0000       1.462929        39.8083 
 280   0.0000       1.463798        39.8320 
 281   0.0000       1.467838        39.9419 
 282   0.0000       1.468942        39.9720 
 283   0.0000       1.472630        40.0723 
 284   0.0000       1.473858        40.1057 
 285   0.0000       1.475933        40.1622 
 286   0.0000       1.482164        40.3317 
 287   0.0000       1.482744        40.3475 
 288   0.0000       1.487421        40.4748 
 289   0.0000       1.488295        40.4986 
 290   0.0000       1.489361        40.5276 
 291   0.0000       1.490701        40.5640 
 292   0.0000       1.493160        40.6310 
 293   0.0000       1.496211        40.7140 
 294   0.0000       1.496466        40.7209 
 295   0.0000       1.498557        40.7778 
 296   0.0000       1.500552        40.8321 
 297   0.0000       1.501226        40.8504 
 298   0.0000       1.504189        40.9311 
 299   0.0000       1.506606        40.9968 
 300   0.0000       1.506733        41.0003 
 301   0.0000       1.509745        41.0823 
 302   0.0000       1.510520        41.1033 
 303   0.0000       1.516756        41.2730 
 304   0.0000       1.517631        41.2969 
 305   0.0000       1.518028        41.3076 
 306   0.0000       1.519410        41.3453 
 307   0.0000       1.520440        41.3733 
 308   0.0000       1.522316        41.4243 
 309   0.0000       1.526380        41.5349 
 310   0.0000       1.526975        41.5511 
 311   0.0000       1.527934        41.5772 
 312   0.0000       1.528751        41.5994 
 313   0.0000       1.531058        41.6622 
 314   0.0000       1.535244        41.7761 
 315   0.0000       1.535548        41.7844 
 316   0.0000       1.536212        41.8024 
 317   0.0000       1.538040        41.8522 
 318   0.0000       1.542082        41.9622 
 319   0.0000       1.544935        42.0398 
 320   0.0000       1.545359        42.0514 
 321   0.0000       1.549760        42.1711 
 322   0.0000       1.551352        42.2144 
 323   0.0000       1.552078        42.2342 
 324   0.0000       1.553165        42.2638 
 325   0.0000       1.562890        42.5284 
 326   0.0000       1.563577        42.5471 
 327   0.0000       1.567668        42.6584 
 328   0.0000       1.569024        42.6953 
 329   0.0000       1.573591        42.8196 
 330   0.0000       1.577321        42.9211 
 331   0.0000       1.579758        42.9874 
 332   0.0000       1.581973        43.0477 
 333   0.0000       1.584744        43.1231 
 334   0.0000       1.585300        43.1382 
 335   0.0000       1.591143        43.2972 
 336   0.0000       1.593430        43.3594 
 337   0.0000       1.596117        43.4325 
 338   0.0000       1.603048        43.6211 
 339   0.0000       1.603986        43.6467 
 340   0.0000       1.604692        43.6659 
 341   0.0000       1.606428        43.7131 
 342   0.0000       1.606972        43.7279 
 343   0.0000       1.616504        43.9873 
 344   0.0000       1.623739        44.1842 
 345   0.0000       1.628019        44.3007 
 346   0.0000       1.630437        44.3665 
 347   0.0000       1.643597        44.7246 
 348   0.0000       1.649591        44.8877 
 349   0.0000       1.651664        44.9441 
 350   0.0000       1.684305        45.8323 
 351   0.0000       1.693085        46.0712 
 352   0.0000       1.694385        46.1066 
 353   0.0000       1.698980        46.2316 
 354   0.0000       1.715646        46.6851 
 355   0.0000       1.722018        46.8585 
 356   0.0000       1.734941        47.2101 
 357   0.0000       1.776896        48.3518 
 358   0.0000       1.799847        48.9763 
 359   0.0000       1.806746        49.1640 
 360   0.0000       1.814383        49.3719 
 361   0.0000       1.826764        49.7088 
 362   0.0000       1.839281        50.0494 
 363   0.0000       1.848185        50.2917 
 364   0.0000       1.885857        51.3168 
 365   0.0000       1.890347        51.4390 
 366   0.0000       1.924098        52.3574 
 367   0.0000       1.934728        52.6466 
 368   0.0000       2.002501        54.4908 
 369   0.0000       2.084786        56.7299 
 370   0.0000       2.188309        59.5469 
 371   0.0000       2.205192        60.0063 
 372   0.0000       2.221331        60.4455 
 373   0.0000       2.286488        62.2185 
 374   0.0000       2.293238        62.4022 
 375   0.0000       2.355622        64.0997 
 376   0.0000       2.400764        65.3281 
 377   0.0000       2.402704        65.3809 
 378   0.0000       2.449643        66.6582 
 379   0.0000       2.464040        67.0499 
 380   0.0000       2.478896        67.4542 
 381   0.0000       2.530007        68.8450 
 382   0.0000       3.118858        84.8684 
 383   0.0000       3.485288        94.8395 
 384   0.0000       3.577838        97.3579 
 385   0.0000       3.588026        97.6352 
 386   0.0000       3.595478        97.8379 
 387   0.0000       3.724022       101.3358 
 388   0.0000       3.878857       105.5491 
 389   0.0000       3.887725       105.7904 
 390   0.0000       3.891850       105.9026 
 391   0.0000       3.897617       106.0595 
 392   0.0000       3.904694       106.2521 
 393   0.0000       3.914187       106.5104 
 394   0.0000       3.924585       106.7934 
 395   0.0000      23.615171       642.6015 
 396   0.0000      23.709285       645.1624 
 397   0.0000      23.892363       650.1442 
 398   0.0000      24.075718       655.1336 
 399   0.0000      24.267152       660.3428 
 400   0.0000      24.442504       665.1143 
 401   0.0000      24.516071       667.1162 
 402   0.0000      24.726031       672.8295 
 403   0.0000      24.992407       680.0780 
 404   0.0000      25.071680       682.2351 
 405   0.0000      25.305640       688.6015 
 406   0.0000      25.347307       689.7353 
 407   0.0000      25.717725       699.8149 
 408   0.0000      25.764558       701.0893 
 409   0.0000      26.016103       707.9341 
 410   0.0000      26.045790       708.7420 
 411   0.0000      26.133951       711.1410 
 412   0.0000      26.382592       717.9068 
 413   0.0000      26.465452       720.1616 
 414   0.0000      26.615661       724.2490 
 415   0.0000      27.034028       735.6333 
 416   0.0000      27.269721       742.0468 
 417   0.0000      27.312912       743.2221 
 418   0.0000      27.590237       750.7685 
 419   0.0000      27.739696       754.8355 
 420   0.0000      27.996628       761.8270 
 421   0.0000      28.103974       764.7480 
 422   0.0000      28.582821       777.7781 
 423   0.0000      28.680131       780.4260 
 424   0.0000      29.610664       805.7471 
 425   0.0000      43.825535      1192.5534 
 426   0.0000      43.963405      1196.3051 
 427   0.0000      43.989584      1197.0174 
 428   0.0000      43.991329      1197.0649 
 429   0.0000      44.067896      1199.1484 
 430   0.0000      44.094283      1199.8664 
 431   0.0000      44.110532      1200.3086 
 432   0.0000      44.116327      1200.4663 
 433   0.0000      44.150848      1201.4057 
 434   0.0000      44.193592      1202.5688 
 435   0.0000     205.062606      5580.0372 
 436   0.0000     205.118021      5581.5451 
 437   0.0000     205.124461      5581.7204 
 438   0.0000     205.127480      5581.8025 
 439   0.0000     205.162094      5582.7444 
 440   0.0000     205.178264      5583.1844 
 441   0.0000     205.179600      5583.2208 
 442   0.0000     205.180891      5583.2559 
 443   0.0000     205.193748      5583.6058 
 444   0.0000     205.210104      5584.0508 

                 SPIN DOWN ORBITALS
  NO   OCC          E(Eh)            E(eV) 
   0   1.0000    -254.766719     -6932.5549 
   1   1.0000     -29.549710      -804.0885 
   2   1.0000     -25.502719      -693.9643 
   3   1.0000     -25.498679      -693.8543 
   4   1.0000     -25.496911      -693.8062 
   5   1.0000      -4.027545      -109.5951 
   6   1.0000      -4.025632      -109.5430 
   7   1.0000      -4.025313      -109.5343 
   8   1.0000      -4.025056      -109.5273 
   9   1.0000      -4.022264      -109.4514 
  10   1.0000      -4.022131      -109.4477 
  11   1.0000      -4.018961      -109.3615 
  12   1.0000      -4.016182      -109.2859 
  13   1.0000      -4.010435      -109.1295 
  14   1.0000      -4.010115      -109.1208 
  15   1.0000      -3.251843       -88.4871 
  16   1.0000      -2.245531       -61.1040 
  17   1.0000      -2.244073       -61.0643 
  18   1.0000      -2.243194       -61.0404 
  19   1.0000      -2.242710       -61.0272 
  20   1.0000      -2.240765       -60.9743 
  21   1.0000      -2.240405       -60.9645 
  22   1.0000      -2.239555       -60.9414 
  23   1.0000      -2.239377       -60.9366 
  24   1.0000      -2.238455       -60.9114 
  25   1.0000      -2.237799       -60.8936 
  26   1.0000      -2.237665       -60.8900 
  27   1.0000      -2.234993       -60.8172 
  28   1.0000      -2.234192       -60.7955 
  29   1.0000      -2.233807       -60.7850 
  30   1.0000      -2.233399       -60.7739 
  31   1.0000      -2.233254       -60.7699 
  32   1.0000      -2.233126       -60.7664 
  33   1.0000      -2.232350       -60.7453 
  34   1.0000      -2.231350       -60.7181 
  35   1.0000      -2.231203       -60.7141 
  36   1.0000      -2.230058       -60.6830 
  37   1.0000      -2.229325       -60.6630 
  38   1.0000      -2.228966       -60.6532 
  39   1.0000      -2.226588       -60.5885 
  40   1.0000      -2.225676       -60.5637 
  41   1.0000      -2.224942       -60.5437 
  42   1.0000      -2.223573       -60.5065 
  43   1.0000      -2.222835       -60.4864 
  44   1.0000      -2.218560       -60.3701 
  45   1.0000      -2.217639       -60.3450 
  46   1.0000      -2.071534       -56.3693 
  47   1.0000      -2.066718       -56.2382 
  48   1.0000      -2.065701       -56.2106 
  49   1.0000      -0.410695       -11.1756 
  50   1.0000      -0.376915       -10.2564 
  51   1.0000      -0.371408       -10.1065 
  52   1.0000      -0.364710        -9.9243 
  53   1.0000      -0.353558        -9.6208 
  54   1.0000      -0.352593        -9.5945 
  55   1.0000      -0.345210        -9.3936 
  56   1.0000      -0.343500        -9.3471 
  57   1.0000      -0.339238        -9.2311 
  58   1.0000      -0.338226        -9.2036 
  59   1.0000      -0.333763        -9.0822 
  60   1.0000      -0.330757        -9.0004 
  61   1.0000      -0.325977        -8.8703 
  62   1.0000      -0.324397        -8.8273 
  63   1.0000      -0.323515        -8.8033 
  64   1.0000      -0.321130        -8.7384 
  65   1.0000      -0.319525        -8.6947 
  66   1.0000      -0.312698        -8.5089 
  67   1.0000      -0.309841        -8.4312 
  68   1.0000      -0.308291        -8.3890 
  69   1.0000      -0.305981        -8.3262 
  70   1.0000      -0.305307        -8.3078 
  71   1.0000      -0.301610        -8.2072 
  72   1.0000      -0.298236        -8.1154 
  73   1.0000      -0.296387        -8.0651 
  74   1.0000      -0.291434        -7.9303 
  75   1.0000      -0.286579        -7.7982 
  76   1.0000      -0.285351        -7.7648 
  77   1.0000      -0.283861        -7.7242 
  78   1.0000      -0.282849        -7.6967 
  79   1.0000      -0.280569        -7.6347 
  80   1.0000      -0.277308        -7.5459 
  81   1.0000      -0.272383        -7.4119 
  82   1.0000      -0.271424        -7.3858 
  83   1.0000      -0.269955        -7.3458 
  84   1.0000      -0.268735        -7.3127 
  85   1.0000      -0.267507        -7.2792 
  86   1.0000      -0.264740        -7.2040 
  87   1.0000      -0.262035        -7.1303 
  88   1.0000      -0.261551        -7.1172 
  89   1.0000      -0.258769        -7.0415 
  90   1.0000      -0.256874        -6.9899 
  91   1.0000      -0.256520        -6.9803 
  92   1.0000      -0.255115        -6.9420 
  93   1.0000      -0.254395        -6.9224 
  94   1.0000      -0.251548        -6.8450 
  95   1.0000      -0.250004        -6.8030 
  96   1.0000      -0.246841        -6.7169 
  97   1.0000      -0.246177        -6.6988 
  98   1.0000      -0.238862        -6.4998 
  99   1.0000      -0.237876        -6.4729 
 100   1.0000      -0.235714        -6.4141 
 101   1.0000      -0.234573        -6.3831 
 102   1.0000      -0.228948        -6.2300 
 103   1.0000      -0.209994        -5.7142 
 104   1.0000      -0.195524        -5.3205 
 105   1.0000      -0.191471        -5.2102 
 106   0.0000      -0.172520        -4.6945 
 107   0.0000      -0.169466        -4.6114 
 108   0.0000      -0.163053        -4.4369 
 109   0.0000      -0.152828        -4.1587 
 110   0.0000      -0.151242        -4.1155 
 111   0.0000      -0.138669        -3.7734 
 112   0.0000      -0.125564        -3.4168 
 113   0.0000      -0.120656        -3.2832 
 114   0.0000      -0.102754        -2.7961 
 115   0.0000      -0.062667        -1.7053 
 116   0.0000      -0.056707        -1.5431 
 117   0.0000      -0.051023        -1.3884 
 118   0.0000      -0.045913        -1.2494 
 119   0.0000      -0.045419        -1.2359 
 120   0.0000      -0.032403        -0.8817 
 121   0.0000      -0.022890        -0.6229 
 122   0.0000      -0.020458        -0.5567 
 123   0.0000      -0.007706        -0.2097 
 124   0.0000      -0.005991        -0.1630 
 125   0.0000       0.013647         0.3714 
 126   0.0000       0.020227         0.5504 
 127   0.0000       0.038698         1.0530 
 128   0.0000       0.046155         1.2560 
 129   0.0000       0.051155         1.3920 
 130   0.0000       0.054167         1.4739 
 131   0.0000       0.057101         1.5538 
 132   0.0000       0.059979         1.6321 
 133   0.0000       0.062554         1.7022 
 134   0.0000       0.067989         1.8501 
 135   0.0000       0.068062         1.8521 
 136   0.0000       0.074238         2.0201 
 137   0.0000       0.084291         2.2937 
 138   0.0000       0.091177         2.4811 
 139   0.0000       0.099394         2.7047 
 140   0.0000       0.103834         2.8255 
 141   0.0000       0.107548         2.9265 
 142   0.0000       0.127133         3.4595 
 143   0.0000       0.136889         3.7249 
 144   0.0000       0.147220         4.0061 
 145   0.0000       0.147468         4.0128 
 146   0.0000       0.158003         4.2995 
 147   0.0000       0.158031         4.3003 
 148   0.0000       0.164635         4.4799 
 149   0.0000       0.170274         4.6334 
 150   0.0000       0.179915         4.8957 
 151   0.0000       0.183857         5.0030 
 152   0.0000       0.188266         5.1230 
 153   0.0000       0.193413         5.2630 
 154   0.0000       0.209168         5.6917 
 155   0.0000       0.218975         5.9586 
 156   0.0000       0.226362         6.1596 
 157   0.0000       0.231341         6.2951 
 158   0.0000       0.235683         6.4133 
 159   0.0000       0.239520         6.5177 
 160   0.0000       0.249493         6.7891 
 161   0.0000       0.255015         6.9393 
 162   0.0000       0.258225         7.0267 
 163   0.0000       0.260200         7.0804 
 164   0.0000       0.265568         7.2265 
 165   0.0000       0.267120         7.2687 
 166   0.0000       0.271837         7.3971 
 167   0.0000       0.277140         7.5414 
 168   0.0000       0.279330         7.6010 
 169   0.0000       0.292260         7.9528 
 170   0.0000       0.293477         7.9859 
 171   0.0000       0.303579         8.2608 
 172   0.0000       0.312619         8.5068 
 173   0.0000       0.313049         8.5185 
 174   0.0000       0.318616         8.6700 
 175   0.0000       0.320203         8.7132 
 176   0.0000       0.322181         8.7670 
 177   0.0000       0.331731         9.0269 
 178   0.0000       0.334798         9.1103 
 179   0.0000       0.335616         9.1326 
 180   0.0000       0.338325         9.2063 
 181   0.0000       0.346118         9.4184 
 182   0.0000       0.355185         9.6651 
 183   0.0000       0.366869         9.9830 
 184   0.0000       0.369458        10.0535 
 185   0.0000       0.376517        10.2455 
 186   0.0000       0.380351        10.3499 
 187   0.0000       0.392343        10.6762 
 188   0.0000       0.400938        10.9101 
 189   0.0000       0.402229        10.9452 
 190   0.0000       0.408886        11.1263 
 191   0.0000       0.417556        11.3623 
 192   0.0000       0.419039        11.4026 
 193   0.0000       0.427898        11.6437 
 194   0.0000       0.432407        11.7664 
 195   0.0000       0.436943        11.8898 
 196   0.0000       0.447009        12.1637 
 197   0.0000       0.452296        12.3076 
 198   0.0000       0.454641        12.3714 
 199   0.0000       0.462275        12.5791 
 200   0.0000       0.467732        12.7276 
 201   0.0000       0.475811        12.9475 
 202   0.0000       0.485518        13.2116 
 203   0.0000       0.494479        13.4555 
 204   0.0000       0.494937        13.4679 
 205   0.0000       0.499632        13.5957 
 206   0.0000       0.500733        13.6256 
 207   0.0000       0.505297        13.7498 
 208   0.0000       0.513788        13.9809 
 209   0.0000       0.517232        14.0746 
 210   0.0000       0.523492        14.2449 
 211   0.0000       0.530685        14.4407 
 212   0.0000       0.534122        14.5342 
 213   0.0000       0.541217        14.7273 
 214   0.0000       0.594128        16.1670 
 215   0.0000       0.619351        16.8534 
 216   0.0000       0.629673        17.1343 
 217   0.0000       0.636969        17.3328 
 218   0.0000       0.662794        18.0355 
 219   0.0000       0.668197        18.1826 
 220   0.0000       0.673902        18.3378 
 221   0.0000       0.699290        19.0286 
 222   0.0000       0.702289        19.1103 
 223   0.0000       0.717440        19.5225 
 224   0.0000       0.721997        19.6465 
 225   0.0000       0.727487        19.7959 
 226   0.0000       0.743126        20.2215 
 227   0.0000       0.747134        20.3306 
 228   0.0000       0.764350        20.7990 
 229   0.0000       0.775481        21.1019 
 230   0.0000       0.780195        21.2302 
 231   0.0000       0.803759        21.8714 
 232   0.0000       0.824839        22.4450 
 233   0.0000       0.845940        23.0192 
 234   0.0000       0.870306        23.6822 
 235   0.0000       0.878743        23.9118 
 236   0.0000       0.899597        24.4793 
 237   0.0000       0.926563        25.2131 
 238   0.0000       0.927474        25.2378 
 239   0.0000       0.931124        25.3372 
 240   0.0000       0.944877        25.7114 
 241   0.0000       0.961689        26.1689 
 242   0.0000       0.975745        26.5514 
 243   0.0000       1.000973        27.2379 
 244   0.0000       1.004908        27.3449 
 245   0.0000       1.050543        28.5867 
 246   0.0000       1.081808        29.4375 
 247   0.0000       1.098679        29.8966 
 248   0.0000       1.175609        31.9899 
 249   0.0000       1.202224        32.7142 
 250   0.0000       1.245131        33.8817 
 251   0.0000       1.254131        34.1266 
 252   0.0000       1.272122        34.6162 
 253   0.0000       1.278631        34.7933 
 254   0.0000       1.279708        34.8226 
 255   0.0000       1.291353        35.1395 
 256   0.0000       1.294065        35.2133 
 257   0.0000       1.330142        36.1950 
 258   0.0000       1.333346        36.2822 
 259   0.0000       1.335802        36.3490 
 260   0.0000       1.360829        37.0300 
 261   0.0000       1.366012        37.1711 
 262   0.0000       1.367487        37.2112 
 263   0.0000       1.379435        37.5363 
 264   0.0000       1.392281        37.8859 
 265   0.0000       1.395412        37.9711 
 266   0.0000       1.401766        38.1440 
 267   0.0000       1.404098        38.2075 
 268   0.0000       1.406512        38.2731 
 269   0.0000       1.410062        38.3697 
 270   0.0000       1.415888        38.5283 
 271   0.0000       1.425086        38.7786 
 272   0.0000       1.434343        39.0304 
 273   0.0000       1.438794        39.1516 
 274   0.0000       1.439330        39.1662 
 275   0.0000       1.444816        39.3154 
 276   0.0000       1.445938        39.3460 
 277   0.0000       1.454954        39.5913 
 278   0.0000       1.460938        39.7541 
 279   0.0000       1.463332        39.8193 
 280   0.0000       1.464860        39.8609 
 281   0.0000       1.469595        39.9897 
 282   0.0000       1.470332        40.0098 
 283   0.0000       1.473808        40.1044 
 284   0.0000       1.474777        40.1307 
 285   0.0000       1.476696        40.1829 
 286   0.0000       1.483679        40.3729 
 287   0.0000       1.486070        40.4380 
 288   0.0000       1.488233        40.4969 
 289   0.0000       1.490777        40.5661 
 290   0.0000       1.491233        40.5785 
 291   0.0000       1.492241        40.6059 
 292   0.0000       1.494672        40.6721 
 293   0.0000       1.497888        40.7596 
 294   0.0000       1.499839        40.8127 
 295   0.0000       1.500694        40.8360 
 296   0.0000       1.502062        40.8732 
 297   0.0000       1.503205        40.9043 
 298   0.0000       1.506303        40.9886 
 299   0.0000       1.508183        41.0397 
 300   0.0000       1.508783        41.0561 
 301   0.0000       1.512105        41.1465 
 302   0.0000       1.513088        41.1732 
 303   0.0000       1.518169        41.3115 
 304   0.0000       1.518835        41.3296 
 305   0.0000       1.519778        41.3553 
 306   0.0000       1.521394        41.3992 
 307   0.0000       1.522852        41.4389 
 308   0.0000       1.524718        41.4897 
 309   0.0000       1.528191        41.5842 
 310   0.0000       1.528521        41.5932 
 311   0.0000       1.530416        41.6447 
 312   0.0000       1.531427        41.6723 
 313   0.0000       1.534023        41.7429 
 314   0.0000       1.536977        41.8233 
 315   0.0000       1.537177        41.8287 
 316   0.0000       1.538618        41.8679 
 317   0.0000       1.540339        41.9148 
 318   0.0000       1.543654        42.0050 
 319   0.0000       1.547472        42.1089 
 320   0.0000       1.547746        42.1163 
 321   0.0000       1.552037        42.2331 
 322   0.0000       1.552748        42.2524 
[...]
      f-1     :     0.000001
      f+2     :    -0.000025
      f-2     :    -0.000001
      f+3     :    -0.000007
      f-3     :    -0.000006
  8 Aus       :    -0.085363  s :    -0.085363
      pz      :    -0.007646  p :    -0.013614
      px      :    -0.000795
      py      :    -0.005173
      dz2     :    -0.001646  d :     0.025443
      dxz     :     0.008407
      dyz     :     0.010183
      dx2y2   :     0.004382
      dxy     :     0.004117
      f0      :    -0.000011  f :     0.000132
      f+1     :     0.000027
      f-1     :     0.000001
      f+2     :     0.000005
      f-2     :     0.000069
      f+3     :     0.000022
      f-3     :     0.000020
  9 Aus       :    -0.144406  s :    -0.144406
      pz      :    -0.010060  p :    -0.003780
      px      :    -0.005932
      py      :     0.012212
      dz2     :    -0.001608  d :     0.001115
      dxz     :    -0.004588
      dyz     :    -0.003102
      dx2y2   :     0.006025
      dxy     :     0.004389
      f0      :    -0.000007  f :     0.000010
      f+1     :    -0.000001
      f-1     :     0.000008
      f+2     :    -0.000000
      f-2     :    -0.000017
      f+3     :     0.000002
      f-3     :     0.000025
 10 Fes       :    -0.013076  s :    -0.013076
      pz      :     0.015116  p :     0.042838
      px      :     0.010161
      py      :     0.017562
      dz2     :     0.621090  d :     2.883806
      dxz     :     0.596116
      dyz     :     0.546094
      dx2y2   :     0.573745
      dxy     :     0.546760
      f0      :     0.000004  f :     0.000024
      f+1     :     0.000003
      f-1     :     0.000003
      f+2     :     0.000003
      f-2     :     0.000002
      f+3     :    -0.000001
      f-3     :     0.000010


                     *******************************
                     * LOEWDIN POPULATION ANALYSIS *
                     *******************************

-------------------------------------------
LOEWDIN ATOMIC CHARGES AND SPIN POPULATIONS
-------------------------------------------
   0 Au:    0.044112   -0.150647
   1 Au:   -0.025290   -0.099541
   2 Au:    0.009804   -0.005177
   3 Au:    0.080488   -0.041152
   4 Au:    0.045113   -0.147268
   5 Au:    0.099270   -0.108542
   6 Au:    0.096538   -0.136328
   7 Au:    0.100135   -0.012885
   8 Au:    0.099734   -0.109513
   9 Au:   -0.024986   -0.098399
  10 Fe:   -0.524918    2.909452

----------------------------------------------------
LOEWDIN REDUCED ORBITAL CHARGES AND SPIN POPULATIONS
----------------------------------------------------
CHARGE
  0 Aus       :     2.697569  s :     2.697569
      pz      :     2.081232  p :     6.394891
      px      :     2.144675
      py      :     2.168984
      dz2     :     1.969245  d :     9.858999
      dxz     :     1.971313
      dyz     :     1.970915
      dx2y2   :     1.983316
      dxy     :     1.964210
      f0      :     0.000530  f :     0.004430
      f+1     :     0.000553
      f-1     :     0.000709
      f+2     :     0.000689
      f-2     :     0.000677
      f+3     :     0.000649
      f-3     :     0.000622
  1 Aus       :     2.556700  s :     2.556700
      pz      :     2.124221  p :     6.556826
      px      :     2.177087
      py      :     2.255518
      dz2     :     1.979297  d :     9.905431
      dxz     :     1.985671
      dyz     :     1.982220
      dx2y2   :     1.978202
      dxy     :     1.980040
      f0      :     0.000865  f :     0.006334
      f+1     :     0.000762
      f-1     :     0.000790
      f+2     :     0.000815
      f-2     :     0.000697
      f+3     :     0.001543
      f-3     :     0.000862
  2 Aus       :     2.615854  s :     2.615854
      pz      :     2.174837  p :     6.512422
      px      :     2.087616
      py      :     2.249969
      dz2     :     1.974253  d :     9.855431
      dxz     :     1.977352
      dyz     :     1.972534
      dx2y2   :     1.956656
      dxy     :     1.974635
      f0      :     0.000808  f :     0.006489
      f+1     :     0.000736
      f-1     :     0.000909
      f+2     :     0.001253
      f-2     :     0.000739
      f+3     :     0.000794
      f-3     :     0.001249
  3 Aus       :     2.691620  s :     2.691620
      pz      :     2.072283  p :     6.390216
      px      :     2.167187
      py      :     2.150745
      dz2     :     1.963555  d :     9.833135
      dxz     :     1.951440
      dyz     :     1.983679
      dx2y2   :     1.980901
      dxy     :     1.953560
      f0      :     0.000454  f :     0.004541
      f+1     :     0.000531
      f-1     :     0.000580
      f+2     :     0.000939
      f-2     :     0.000764
      f+3     :     0.000659
      f-3     :     0.000613
  4 Aus       :     2.698719  s :     2.698719
      pz      :     2.205261  p :     6.393304
      px      :     2.096456
      py      :     2.091587
      dz2     :     1.952256  d :     9.858423
      dxz     :     1.977920
      dyz     :     1.986522
      dx2y2   :     1.955849
      dxy     :     1.985877
      f0      :     0.000591  f :     0.004441
      f+1     :     0.000428
      f-1     :     0.001057
      f+2     :     0.000685
      f-2     :     0.000776
      f+3     :     0.000461
      f-3     :     0.000442
  5 Aus       :     2.658525  s :     2.658525
      pz      :     2.108946  p :     6.395800
      px      :     2.083545
      py      :     2.203309
      dz2     :     1.968592  d :     9.841037
      dxz     :     1.977329
      dyz     :     1.947668
      dx2y2   :     1.983602
      dxy     :     1.963846
      f0      :     0.000851  f :     0.005368
      f+1     :     0.000452
      f-1     :     0.001378
      f+2     :     0.000597
      f-2     :     0.000637
      f+3     :     0.000910
      f-3     :     0.000542
  6 Aus       :     2.599105  s :     2.599105
      pz      :     2.159074  p :     6.420595
      px      :     2.129908
      py      :     2.131612
      dz2     :     1.994075  d :     9.878886
      dxz     :     1.959926
      dyz     :     1.962544
      dx2y2   :     1.977911
      dxy     :     1.984430
      f0      :     0.000819  f :     0.004876
      f+1     :     0.000745
      f-1     :     0.000549
      f+2     :     0.000569
      f-2     :     0.000805
      f+3     :     0.000868
      f-3     :     0.000519
  7 Aus       :     2.798853  s :     2.798853
      pz      :     2.075984  p :     6.243712
      px      :     2.066284
      py      :     2.101444
      dz2     :     1.987083  d :     9.852936
      dxz     :     1.966643
      dyz     :     1.953613
      dx2y2   :     1.964064
      dxy     :     1.981533
      f0      :     0.000461  f :     0.004364
      f+1     :     0.000368
      f-1     :     0.000550
      f+2     :     0.000966
      f-2     :     0.000658
      f+3     :     0.000661
      f-3     :     0.000700
  8 Aus       :     2.658881  s :     2.658881
      pz      :     2.138097  p :     6.395322
      px      :     2.077175
      py      :     2.180050
      dz2     :     1.982208  d :     9.840732
      dxz     :     1.968324
      dyz     :     1.958077
      dx2y2   :     1.979506
      dxy     :     1.952618
      f0      :     0.000958  f :     0.005331
      f+1     :     0.000498
      f-1     :     0.000649
      f+2     :     0.000654
      f-2     :     0.000873
      f+3     :     0.000812
      f-3     :     0.000888
  9 Aus       :     2.556890  s :     2.556890
      pz      :     2.152726  p :     6.556563
      px      :     2.265222
      py      :     2.138616
      dz2     :     1.981464  d :     9.905199
      dxz     :     1.980779
      dyz     :     1.991450
      dx2y2   :     1.964687
      dxy     :     1.986819
      f0      :     0.000747  f :     0.006334
      f+1     :     0.000734
      f-1     :     0.000592
      f+2     :     0.000893
      f-2     :     0.001324
      f+3     :     0.000913
      f-3     :     0.001131
 10 Fes       :     6.324281  s :     6.324281
      pz      :     4.224535  p :    12.658918
      px      :     4.219934
      py      :     4.214448
      dz2     :     1.459611  d :     7.541111
      dxz     :     1.495757
      dyz     :     1.516592
      dx2y2   :     1.520325
      dxy     :     1.548827
      f0      :     0.000070  f :     0.000608
      f+1     :     0.000090
      f-1     :     0.000105
      f+2     :     0.000068
      f-2     :     0.000119
      f+3     :     0.000054
      f-3     :     0.000103

SPIN
  0 Aus       :    -0.077434  s :    -0.077434
      pz      :    -0.014203  p :    -0.074651
      px      :    -0.032249
      py      :    -0.028200
      dz2     :     0.003186  d :     0.001317
      dxz     :     0.004752
      dyz     :    -0.001704
      dx2y2   :    -0.012467
      dxy     :     0.007550
      f0      :     0.000003  f :     0.000121
      f+1     :     0.000043
      f-1     :     0.000036
      f+2     :    -0.000010
      f-2     :     0.000063
      f+3     :    -0.000002
      f-3     :    -0.000012
  1 Aus       :    -0.066816  s :    -0.066816
      pz      :    -0.009532  p :    -0.029583
      px      :    -0.013219
      py      :    -0.006832
      dz2     :     0.008444  d :    -0.003128
      dxz     :    -0.000905
      dyz     :     0.004014
      dx2y2   :    -0.012295
      dxy     :    -0.002386
      f0      :    -0.000000  f :    -0.000014
      f+1     :     0.000013
      f-1     :     0.000034
      f+2     :     0.000000
      f-2     :     0.000012
      f+3     :    -0.000066
      f-3     :    -0.000007
  2 Aus       :    -0.013088  s :    -0.013088
      pz      :    -0.003131  p :     0.000270
      px      :     0.003052
      py      :     0.000349
      dz2     :    -0.014897  d :     0.007571
      dxz     :     0.009790
      dyz     :     0.000439
      dx2y2   :     0.017292
      dxy     :    -0.005054
      f0      :     0.000013  f :     0.000071
      f+1     :    -0.000013
      f-1     :    -0.000018
      f+2     :     0.000033
      f-2     :     0.000026
      f+3     :     0.000078
      f-3     :    -0.000048
  3 Aus       :    -0.042673  s :    -0.042673
      pz      :    -0.007709  p :    -0.021950
      px      :     0.002043
      py      :    -0.016284
      dz2     :     0.016996  d :     0.023110
      dxz     :     0.006582
      dyz     :    -0.005277
      dx2y2   :    -0.007833
      dxy     :     0.012642
      f0      :     0.000060  f :     0.000361
      f+1     :     0.000091
      f-1     :     0.000018
      f+2     :     0.000004
      f-2     :     0.000119
      f+3     :     0.000022
      f-3     :     0.000048
  4 Aus       :    -0.076909  s :    -0.076909
      pz      :    -0.055643  p :    -0.073382
      px      :    -0.013705
      py      :    -0.004033
      dz2     :     0.009751  d :     0.002896
      dxz     :    -0.007877
      dyz     :    -0.016323
      dx2y2   :     0.016723
      dxy     :     0.000622
      f0      :    -0.000012  f :     0.000126
      f+1     :    -0.000007
      f-1     :     0.000081
      f+2     :    -0.000002
      f-2     :    -0.000040
      f+3     :     0.000004
      f-3     :     0.000102
  5 Aus       :    -0.043729  s :    -0.043729
      pz      :    -0.008762  p :    -0.082727
      px      :    -0.019254
      py      :    -0.054711
      dz2     :     0.003893  d :     0.017682
      dxz     :     0.007105
      dyz     :     0.015594
      dx2y2   :    -0.000823
      dxy     :    -0.008088
      f0      :     0.000048  f :     0.000232
      f+1     :     0.000049
      f-1     :     0.000124
      f+2     :     0.000029
      f-2     :     0.000028
      f+3     :    -0.000029
      f-3     :    -0.000016
  6 Aus       :    -0.096291  s :    -0.096291
      pz      :    -0.013144  p :    -0.041941
      px      :    -0.015525
      py      :    -0.013272
      dz2     :     0.005030  d :     0.001759
      dxz     :    -0.001316
      dyz     :     0.000075
      dx2y2   :    -0.006057
      dxy     :     0.004028
      f0      :    -0.000022  f :     0.000145
      f+1     :     0.000020
      f-1     :     0.000010
      f+2     :     0.000057
      f-2     :     0.000085
      f+3     :    -0.000009
      f-3     :     0.000004
  7 Aus       :     0.038567  s :     0.038567
      pz      :    -0.013147  p :    -0.022888
      px      :    -0.007696
      py      :    -0.002046
      dz2     :    -0.000182  d :    -0.028406
      dxz     :    -0.005865
      dyz     :    -0.008675
      dx2y2   :    -0.010800
      dxy     :    -0.002884
      f0      :    -0.000030  f :    -0.000158
      f+1     :    -0.000001
      f-1     :    -0.000002
      f+2     :    -0.000072
      f-2     :    -0.000009
      f+3     :    -0.000030
      f-3     :    -0.000014
  8 Aus       :    -0.044656  s :    -0.044656
      pz      :    -0.035167  p :    -0.082896
      px      :    -0.005847
      py      :    -0.041882
      dz2     :    -0.005602  d :     0.017801
      dxz     :     0.009052
      dyz     :     0.008260
      dx2y2   :     0.003676
      dxy     :     0.002415
      f0      :    -0.000036  f :     0.000238
      f+1     :     0.000050
      f-1     :     0.000003
      f+2     :     0.000014
      f-2     :     0.000124
      f+3     :     0.000036
      f-3     :     0.000047
  9 Aus       :    -0.066241  s :    -0.066241
      pz      :    -0.024381  p :    -0.029066
      px      :    -0.004613
      py      :    -0.000073
      dz2     :    -0.002575  d :    -0.003079
      dxz     :    -0.008376
      dyz     :    -0.005302
      dx2y2   :     0.007760
      dxy     :     0.005413
      f0      :    -0.000020  f :    -0.000013
      f+1     :    -0.000004
      f-1     :     0.000021
      f+2     :     0.000003
      f-2     :    -0.000049
      f+3     :     0.000003
      f-3     :     0.000034
 10 Fes       :     0.013410  s :     0.013410
      pz      :     0.007627  p :     0.022646
      px      :     0.006106
      py      :     0.008912
      dz2     :     0.620478  d :     2.873382
      dxz     :     0.587365
      dyz     :     0.543218
      dx2y2   :     0.572161
      dxy     :     0.550160
      f0      :     0.000002  f :     0.000015
      f+1     :     0.000002
      f-1     :     0.000002
      f+2     :     0.000002
      f-2     :     0.000000
      f+3     :    -0.000001
      f-3     :     0.000008


                      *****************************
                      * MAYER POPULATION ANALYSIS *
                      *****************************

  NA   - Mulliken gross atomic population
  ZA   - Total nuclear charge
  QA   - Mulliken gross atomic charge
  VA   - Mayer's total valence
  BVA  - Mayer's bonded valence
  FA   - Mayer's free valence

  ATOM       NA         ZA         QA         VA         BVA        FA
  0 Au    18.7885    19.0000     0.2115     1.4878     1.4590     0.0288
  1 Au    18.9949    19.0000     0.0051     1.9257     1.9044     0.0213
  2 Au    18.9926    19.0000     0.0074     1.8714     1.8676     0.0038
  3 Au    18.7856    19.0000     0.2144     1.5446     1.5332     0.0114
  4 Au    18.7922    19.0000     0.2078     1.4872     1.4586     0.0286
  5 Au    18.7488    19.0000     0.2512     1.5751     1.5618     0.0133
  6 Au    18.7596    19.0000     0.2404     1.5186     1.4846     0.0341
  7 Au    18.6475    19.0000     0.3525     1.4683     1.4626     0.0057
  8 Au    18.7476    19.0000     0.2524     1.5723     1.5587     0.0136
  9 Au    18.9961    19.0000     0.0039     1.9255     1.9045     0.0210
 10 Fe    27.7466    26.0000    -1.7466     7.3633     5.0809     2.2824

  Mayer bond orders larger than 0.100000
B(  0-Au,  3-Au) :   0.1016 B(  0-Au,  4-Au) :   0.3139 B(  0-Au,  8-Au) :   0.2765 
B(  0-Au, 10-Fe) :   0.5321 B(  1-Au,  2-Au) :   0.1994 B(  1-Au,  5-Au) :   0.3701 
B(  1-Au,  6-Au) :   0.2015 B(  1-Au,  7-Au) :   0.4053 B(  1-Au,  9-Au) :   0.1478 
B(  1-Au, 10-Fe) :   0.4336 B(  2-Au,  3-Au) :   0.4192 B(  2-Au,  7-Au) :   0.3119 
B(  2-Au,  9-Au) :   0.1989 B(  2-Au, 10-Fe) :   0.5687 B(  3-Au, 10-Fe) :   0.6702 
B(  4-Au,  5-Au) :   0.2791 B(  4-Au, 10-Fe) :   0.5367 B(  5-Au,  6-Au) :   0.1230 
B(  5-Au, 10-Fe) :   0.5764 B(  6-Au,  8-Au) :   0.1222 B(  6-Au,  9-Au) :   0.1998 
B(  6-Au, 10-Fe) :   0.6614 B(  7-Au,  9-Au) :   0.4048 B(  8-Au,  9-Au) :   0.3693 
B(  8-Au, 10-Fe) :   0.5787 B(  9-Au, 10-Fe) :   0.4374 

-------
TIMINGS
-------

Total SCF time: 0 days 0 hours 4 min 20 sec 

Total time                  ....     260.183 sec
Sum of individual times     ....     254.655 sec  ( 97.9%)

Fock matrix formation       ....     232.541 sec  ( 89.4%)
  Split-RI-J                ....      69.476 sec  ( 29.9% of F)
  XC integration            ....     158.264 sec  ( 68.1% of F)
    Basis function eval.    ....      21.278 sec  ( 13.4% of XC)
    Density eval.           ....      62.814 sec  ( 39.7% of XC)
    XC-Functional eval.     ....       3.932 sec  (  2.5% of XC)
    XC-Potential eval.      ....      61.653 sec  ( 39.0% of XC)
Diagonalization             ....      13.278 sec  (  5.1%)
Density matrix formation    ....       0.946 sec  (  0.4%)
Population analysis         ....       0.062 sec  (  0.0%)
Initial guess               ....       0.094 sec  (  0.0%)
Orbital Transformation      ....       0.940 sec  (  0.4%)
Orbital Orthonormalization  ....       0.076 sec  (  0.0%)
DIIS solution               ....       5.859 sec  (  2.3%)
Grid generation             ....       0.929 sec  (  0.4%)

Maximum memory used throughout the entire SCF-calculation: 67.9 MB

-------------------------   --------------------
FINAL SINGLE POINT ENERGY     -2621.721477988057
-------------------------   --------------------


                            ***************************************
                            *     ORCA property calculations      *
                            ***************************************

                                    ---------------------
                                    Active property flags
                                    ---------------------
   (+) Dipole Moment


------------------------------------------------------------------------------
                       ORCA ELECTRIC PROPERTIES CALCULATION
------------------------------------------------------------------------------

Dipole Moment Calculation                       ... on
Quadrupole Moment Calculation                   ... off
Polarizability Calculation                      ... off
GBWName                                         ... pbeSP_job2.gbw
Electron density                                ... pbeSP_job2.scfp
The origin for moment calculation is the CENTER OF MASS  = (17.555091, 12.749354 13.878104)

-------------
DIPOLE MOMENT
-------------
                                X             Y             Z
Electronic contribution:     -9.82991      20.51781       9.06840
Nuclear contribution   :      9.84517     -20.22563      -8.85262
                        -----------------------------------------
Total Dipole Moment    :      0.01525       0.29219       0.21579
                        -----------------------------------------
Magnitude (a.u.)       :      0.36355
Magnitude (Debye)      :      0.92407



--------------------
Rotational spectrum 
--------------------
 
Rotational constants in cm-1:     0.002231     0.001434     0.001389 
Rotational constants in MHz :    66.892468    42.982824    41.632414 

 Dipole components along the rotational axes: 
x,y,z [a.u.] :     0.332505    -0.004299     0.146939 
x,y,z [Debye]:     0.845161    -0.010926     0.373490 

 

Timings for individual modules:

Sum of individual times         ...      264.815 sec (=   4.414 min)
GTO integral calculation        ...        4.429 sec (=   0.074 min)   1.7 %
SCF iterations                  ...      260.385 sec (=   4.340 min)  98.3 %



                             ****ORCA TERMINATED NORMALLY****
TOTAL RUN TIME: 0 days 0 hours 7 minutes 18 seconds 890 msec
