
                                 *****************
                                 * O   R   C   A *
                                 *****************

                                            #,                                       
                                            ###                                      
                                            ####                                     
                                            #####                                    
                                            ######                                   
                                           ########,                                 
                                     ,,################,,,,,                         
                               ,,#################################,,                 
                          ,,##########################################,,             
                       ,#########################################, ''#####,          
                    ,#############################################,,   '####,        
                  ,##################################################,,,,####,       
                ,###########''''           ''''###############################       
              ,#####''   ,,,,##########,,,,          '''####'''          '####       
            ,##' ,,,,###########################,,,                        '##       
           ' ,,###''''                  '''############,,,                           
         ,,##''                                '''############,,,,        ,,,,,,###''
      ,#''                                            '''#######################'''  
     '                                                          ''''####''''         
             ,#######,   #######,   ,#######,      ##                                
            ,#'     '#,  ##    ##  ,#'     '#,    #''#        ######   ,####,        
            ##       ##  ##   ,#'  ##            #'  '#       #        #'  '#        
            ##       ##  #######   ##           ,######,      #####,   #    #        
            '#,     ,#'  ##    ##  '#,     ,#' ,#      #,         ##   #,  ,#        
             '#######'   ##     ##  '#######'  #'      '#     #####' # '####'        



                  #######################################################
                  #                        -***-                        #
                  #          Department of theory and spectroscopy      #
                  #    Directorship and core code : Frank Neese         #
                  #        Max Planck Institute fuer Kohlenforschung    #
                  #                Kaiser Wilhelm Platz 1               #
                  #                 D-45470 Muelheim/Ruhr               #
                  #                      Germany                        #
                  #                                                     #
                  #                  All rights reserved                #
                  #                        -***-                        #
                  #######################################################


                         Program Version 5.0.3 -  RELEASE  -


 With contributions from (in alphabetic order):
   Daniel Aravena         : Magnetic Suceptibility
   Michael Atanasov       : Ab Initio Ligand Field Theory (pilot matlab implementation)
   Alexander A. Auer      : GIAO ZORA, VPT2 properties, NMR spectrum
   Ute Becker             : Parallelization
   Giovanni Bistoni       : ED, misc. LED, open-shell LED, HFLD
   Martin Brehm           : Molecular dynamics
   Dmytro Bykov           : SCF Hessian
   Vijay G. Chilkuri      : MRCI spin determinant printing, contributions to CSF-ICE
   Dipayan Datta          : RHF DLPNO-CCSD density
   Achintya Kumar Dutta   : EOM-CC, STEOM-CC
   Dmitry Ganyushin       : Spin-Orbit,Spin-Spin,Magnetic field MRCI
   Miquel Garcia          : C-PCM and meta-GGA Hessian, CC/C-PCM, Gaussian charge scheme
   Yang Guo               : DLPNO-NEVPT2, F12-NEVPT2, CIM, IAO-localization
   Andreas Hansen         : Spin unrestricted coupled pair/coupled cluster methods
   Benjamin Helmich-Paris : MC-RPA, TRAH-SCF, COSX integrals
   Lee Huntington         : MR-EOM, pCC
   Robert Izsak           : Overlap fitted RIJCOSX, COSX-SCS-MP3, EOM
   Marcus Kettner         : VPT2
   Christian Kollmar      : KDIIS, OOCD, Brueckner-CCSD(T), CCSD density, CASPT2, CASPT2-K
   Simone Kossmann        : Meta GGA functionals, TD-DFT gradient, OOMP2, MP2 Hessian
   Martin Krupicka        : Initial AUTO-CI
   Lucas Lang             : DCDCAS
   Marvin Lechner         : AUTO-CI (C++ implementation), FIC-MRCC
   Dagmar Lenk            : GEPOL surface, SMD
   Dimitrios Liakos       : Extrapolation schemes; Compound Job, initial MDCI parallelization
   Dimitrios Manganas     : Further ROCIS development; embedding schemes
   Dimitrios Pantazis     : SARC Basis sets
   Anastasios Papadopoulos: AUTO-CI, single reference methods and gradients
   Taras Petrenko         : DFT Hessian,TD-DFT gradient, ASA, ECA, R-Raman, ABS, FL, XAS/XES, NRVS
   Peter Pinski           : DLPNO-MP2, DLPNO-MP2 Gradient
   Christoph Reimann      : Effective Core Potentials
   Marius Retegan         : Local ZFS, SOC
   Christoph Riplinger    : Optimizer, TS searches, QM/MM, DLPNO-CCSD(T), (RO)-DLPNO pert. Triples
   Tobias Risthaus        : Range-separated hybrids, TD-DFT gradient, RPA, STAB
   Michael Roemelt        : Original ROCIS implementation
   Masaaki Saitow         : Open-shell DLPNO-CCSD energy and density
   Barbara Sandhoefer     : DKH picture change effects
   Avijit Sen             : IP-ROCIS
   Kantharuban Sivalingam : CASSCF convergence, NEVPT2, FIC-MRCI
   Bernardo de Souza      : ESD, SOC TD-DFT
   Georgi Stoychev        : AutoAux, RI-MP2 NMR, DLPNO-MP2 response
   Willem Van den Heuvel  : Paramagnetic NMR
   Boris Wezisla          : Elementary symmetry handling
   Frank Wennmohs         : Technical directorship


 We gratefully acknowledge several colleagues who have allowed us to
 interface, adapt or use parts of their codes:
   Stefan Grimme, W. Hujo, H. Kruse, P. Pracht,  : VdW corrections, initial TS optimization,
                  C. Bannwarth, S. Ehlert          DFT functionals, gCP, sTDA/sTD-DF
   Ed Valeev, F. Pavosevic, A. Kumar             : LibInt (2-el integral package), F12 methods
   Garnet Chan, S. Sharma, J. Yang, R. Olivares  : DMRG
   Ulf Ekstrom                                   : XCFun DFT Library
   Mihaly Kallay                                 : mrcc  (arbitrary order and MRCC methods)
   Jiri Pittner, Ondrej Demel                    : Mk-CCSD
   Frank Weinhold                                : gennbo (NPA and NBO analysis)
   Christopher J. Cramer and Donald G. Truhlar   : smd solvation model
   Lars Goerigk                                  : TD-DFT with DH, B97 family of functionals
   V. Asgeirsson, H. Jonsson                     : NEB implementation
   FAccTs GmbH                                   : IRC, NEB, NEB-TS, DLPNO-Multilevel, CI-OPT
                                                   MM, QMMM, 2- and 3-layer-ONIOM, Crystal-QMMM,
                                                   LR-CPCM, SF, NACMEs, symmetry and pop. for TD-DFT,
                                                   nearIR, NL-DFT gradient (VV10), updates on ESD,
                                                   ML-optimized integration grids
   S Lehtola, MJT Oliveira, MAL Marques          : LibXC Library
   Liviu Ungur et al                             : ANISO software


 Your calculation uses the libint2 library for the computation of 2-el integrals
 For citations please refer to: http://libint.valeyev.net

 Your ORCA version has been built with support for libXC version: 5.1.0
 For citations please refer to: https://tddft.org/programs/libxc/

 This ORCA versions uses:
   CBLAS   interface :  Fast vector & matrix operations
   LAPACKE interface :  Fast linear algebra routines
   SCALAPACK package :  Parallel linear algebra routines
   Shared memory     :  Shared parallel matrices
   BLAS/LAPACK       :  OpenBLAS 0.3.15  USE64BITINT DYNAMIC_ARCH NO_AFFINITY Haswell SINGLE_THREADED
        Core in use  :  Haswell
   Copyright (c) 2011-2014, The OpenBLAS Project




***************************************
The coordinates will be read from file: pbe.xyz
***************************************


================================================================================

cite the ECPs for Au [Def2-ECP] as follows:
Ce-Yb(ecp-28): M. Dolg, H. Stoll, H.Preuss, J. Chem. Phys., 1989, 90, 1730-1734.
Y-Cd(ecp-28), Hf-Hg(ecp-46): D. Andrae,U. Haeussermann, M. Dolg, H. Stoll, H. Preuss, Theor. Chim. Acta, 1990, 77, 123-141.
In-Sb(ecp-28), Tl-Bi(ecp-46): B. Metz, H. Stoll, M. Dolg, J. Chem. Phys., 2000, 113, 2563-2569.
Te-Xe(ecp-28), Po-Rn(ecp-46): K. A. Peterson, D. Figgen, E. Goll, H. Stoll, M. Dolg, J. Chem. Phys., 2003, 119, 11113-11123.
Rb(ecp-28), Cs(ecp-46): T. Leininger, A. Nicklass, W. Kuechle, H. Stoll, M. Dolg, A. Bergner, Chem. Phys. Lett., 1996, 255, 274-280.
Sr(ecp-28), Ba(ecp-46): M. Kaupp, P. V. Schleyer, H. Stoll and H. Preuss, J. Chem. Phys., 1991, 94, 1360-1366.
La(ecp-46): M. Dolg, H. Stoll, A. Savin, H. Preuss, Theor. Chim. Acta, 1989, 75, 173-194.
Lu(ecp-28): X. Cao, M. Dolg, J. Chem. Phys., 2001, 115, 7348-7355.

ECP parameters for Au [Def2-ECP] have been obtained from:
TURBOMOLE (7.0.2)

----- Orbital basis set information -----
Your calculation utilizes the basis: def2-TZVP
   F. Weigend and R. Ahlrichs, Phys. Chem. Chem. Phys. 7, 3297 (2005).

----- AuxJ basis set information -----
Your calculation utilizes the auxiliary basis: def2/J
   F. Weigend, Phys. Chem. Chem. Phys. 8, 1057 (2006).

----- AuxC basis set information -----
Your calculation utilizes the auxiliary basis: def2-TZVP/C
  H-La, Hf-Rn : A. Hellweg, C. Hattig, S. Hofener and W. Klopper, Theor. Chem. Acc. 117, 587 (2007).
        Ce-Lu : J. Chmela and M. E. Harding, Mol. Phys. (2018).

================================================================================
                                        WARNINGS
                       Please study these warnings very carefully!
================================================================================


WARNING: your system is open-shell and RHF/RKS was chosen
  ===> : WILL SWITCH to UHF/UKS


WARNING: No MP2 level density has been requested!
         To caclulate MP2 level properties use
         %mp2 Density relaxed end
         or
         %mp2 Density unrelaxed end
         Otherwise for double-hybrid DFT only the energy is correct!

WARNING: The frozen-core approximation is turned on by default for 
         the MP2 part of double-hybrid DFT.

INFO   : the flag for use of the SHARK integral package has been found!



***************************************
The coordinates will be read from file: pbe.xyz
***************************************


================================================================================

cite the ECPs for Au [Def2-ECP] as follows:
Ce-Yb(ecp-28): M. Dolg, H. Stoll, H.Preuss, J. Chem. Phys., 1989, 90, 1730-1734.
Y-Cd(ecp-28), Hf-Hg(ecp-46): D. Andrae,U. Haeussermann, M. Dolg, H. Stoll, H. Preuss, Theor. Chim. Acta, 1990, 77, 123-141.
In-Sb(ecp-28), Tl-Bi(ecp-46): B. Metz, H. Stoll, M. Dolg, J. Chem. Phys., 2000, 113, 2563-2569.
Te-Xe(ecp-28), Po-Rn(ecp-46): K. A. Peterson, D. Figgen, E. Goll, H. Stoll, M. Dolg, J. Chem. Phys., 2003, 119, 11113-11123.
Rb(ecp-28), Cs(ecp-46): T. Leininger, A. Nicklass, W. Kuechle, H. Stoll, M. Dolg, A. Bergner, Chem. Phys. Lett., 1996, 255, 274-280.
Sr(ecp-28), Ba(ecp-46): M. Kaupp, P. V. Schleyer, H. Stoll and H. Preuss, J. Chem. Phys., 1991, 94, 1360-1366.
La(ecp-46): M. Dolg, H. Stoll, A. Savin, H. Preuss, Theor. Chim. Acta, 1989, 75, 173-194.
Lu(ecp-28): X. Cao, M. Dolg, J. Chem. Phys., 2001, 115, 7348-7355.

ECP parameters for Au [Def2-ECP] have been obtained from:
TURBOMOLE (7.0.2)

----- Orbital basis set information -----
Your calculation utilizes the basis: def2-TZVP
   F. Weigend and R. Ahlrichs, Phys. Chem. Chem. Phys. 7, 3297 (2005).

----- AuxJ basis set information -----
Your calculation utilizes the auxiliary basis: def2/J
   F. Weigend, Phys. Chem. Chem. Phys. 8, 1057 (2006).

----- AuxC basis set information -----
Your calculation utilizes the auxiliary basis: def2-TZVP/C
  H-La, Hf-Rn : A. Hellweg, C. Hattig, S. Hofener and W. Klopper, Theor. Chem. Acc. 117, 587 (2007).
        Ce-Lu : J. Chmela and M. E. Harding, Mol. Phys. (2018).

================================================================================
                                        WARNINGS
                       Please study these warnings very carefully!
================================================================================


WARNING: No MP2 level density has been requested!
         To caclulate MP2 level properties use
         %mp2 Density relaxed end
         or
         %mp2 Density unrelaxed end
         Otherwise for double-hybrid DFT only the energy is correct!

WARNING: The frozen-core approximation is turned on by default for 
         the MP2 part of double-hybrid DFT.

INFO   : the flag for use of the SHARK integral package has been found!

================================================================================
                                       INPUT FILE
================================================================================
NAME = b2plyp.inp
|  1> !RI-B2PLYP def2-TZVP def2-TZVP/C
|  2> !RIJCOSX VERYSLOWCONV
|  3> 
|  4> %scf
|  5>   AutoTRAHIter 200
|  6>   maxiter 400
|  7> end
|  8> 
|  9> 
| 10> %pal nprocs 6 end 
| 11> 
| 12> *xyzfile 0 5 pbe.xyz
| 13> 
| 14> $new_job
| 15> 
| 16> !RI-B2PLYP def2-TZVP def2-TZVP/C
| 17> !RIJCOSX VERYSLOWCONV
| 18> 
| 19> %scf
| 20>   AutoTRAHIter 200
| 21>   maxiter 400
| 22> end
| 23> 
| 24> 
| 25> %pal nprocs 6 end 
| 26> 
| 27> *xyzfile 0 3 pbe.xyz
| 28> 
| 29> 
| 30> 
| 31> 
| 32> 
| 33>                          ****END OF INPUT****
================================================================================


                 $$$$$$$$$$$$$$$$$$$$$$$$$$$$$$$$$$$$$$$$$$$$$$ 
                 $ THERE ARE  2 JOBS TO BE PROCESSED THIS RUN $
                 $$$$$$$$$$$$$$$$$$$$$$$$$$$$$$$$$$$$$$$$$$$$$$ 




                 $$$$$$$$$$$$$$$$  JOB NUMBER  1 $$$$$$$$$$$$$$


                       ****************************
                       * Single Point Calculation *
                       ****************************

---------------------------------
CARTESIAN COORDINATES (ANGSTROEM)
---------------------------------
  Au     9.145543    9.237792    5.880054
  Au     7.964487    6.313360    9.507848
  Au     6.178756    8.185521   10.018518
  Au     5.641031    6.270815    7.877025
  Au     5.821215   10.748823    9.142570
  Au     4.654463    7.569210    5.551415
  Au     7.940269   11.039934    7.452347
  Au     4.334213    8.878692    7.819234
  Au     9.190346    6.719805    6.900815
  Au    10.065501    4.819547    8.669165
  Au     7.702966    4.369543    7.313801
  Au     7.474886    7.344168    4.872079
  Au     5.469584    6.563915    3.169354
  Au     6.040668    4.978598    5.353148
  Cr     7.013087    8.564630    7.457202

----------------------------
CARTESIAN COORDINATES (A.U.)
----------------------------
  NO LB      ZA    FRAG     MASS         X           Y           Z
   0 Au   19.0000*   0   196.966   17.282572   17.456897   11.111692
   1 Au   19.0000*   0   196.966   15.050699   11.930521   17.967229
   2 Au   19.0000*   0   196.966   11.676156   15.468393   18.932256
   3 Au   19.0000*   0   196.966   10.660004   11.850122   14.885420
   4 Au   19.0000*   0   196.966   11.000502   20.312331   17.276954
   5 Au   19.0000*   0   196.966    8.795660   14.303735   10.490653
   6 Au   19.0000*   0   196.966   15.004935   20.862452   14.082895
   7 Au   19.0000*   0   196.966    8.190475   16.778296   14.776212
   8 Au   19.0000*   0   196.966   17.367237   12.698592   13.040651
   9 Au   19.0000*   0   196.966   19.021041    9.107625   16.382348
  10 Au   19.0000*   0   196.966   14.556495    8.257241   13.821080
  11 Au   19.0000*   0   196.966   14.125488   13.878466    9.206896
  12 Au   19.0000*   0   196.966   10.336016   12.404002    5.989211
  13 Au   19.0000*   0   196.966   11.415209    9.408186   10.115983
  14 Cr   24.0000    0    52.000   13.252814   16.184806   14.092070
* core charge reduced due to ECP

--------------------------------
INTERNAL COORDINATES (ANGSTROEM)
--------------------------------
 Au     0   0   0     0.000000000000     0.00000000     0.00000000
 Au     1   0   0     4.807087086083     0.00000000     0.00000000
 Au     2   1   0     2.637158767383    83.14383876     0.00000000
 Au     2   1   3     2.838985649339    77.09575756    65.21890638
 Au     3   2   1     2.732331813965   133.83044236   346.98718741
 Au     4   2   1     2.840354445857   138.39600549   354.01167770
 Au     1   2   3     2.678153398978    81.70561246    21.61891504
 Au     6   4   2     2.638239617896    64.22995333   277.37805227
 Au     1   2   3     2.717391746093    32.52549154   201.81772426
 Au     2   1   3     2.710927268995    84.91328512   184.04399721
 Au    10   2   1     2.760632703404    65.06791625   276.25842643
 Au     1   2   3     2.718992424244    72.84974324   263.04132031
 Au     6   4   2     2.710950828155   116.45470587    83.34531561
 Au    11  10   2     2.641654617320   149.92074187    87.43465842
 Cr     7   1   2     2.643259045344    61.88726712   326.19604690

---------------------------
INTERNAL COORDINATES (A.U.)
---------------------------
 Au     0   0   0     0.000000000000     0.00000000     0.00000000
 Au     1   0   0     9.084078094607     0.00000000     0.00000000
 Au     2   1   0     4.983507842023    83.14383876     0.00000000
 Au     2   1   3     5.364905375384    77.09575756    65.21890638
 Au     3   2   1     5.163358835394   133.83044236   346.98718741
 Au     4   2   1     5.367492025936   138.39600549   354.01167770
 Au     1   2   3     5.060976468699    81.70561246    21.61891504
 Au     6   4   2     4.985550353484    64.22995333   277.37805227
 Au     1   2   3     5.135126198694    32.52549154   201.81772426
 Au     2   1   3     5.122910107379    84.91328512   184.04399721
 Au    10   2   1     5.216839765779    65.06791625   276.25842643
 Au     1   2   3     5.138151042027    72.84974324   263.04132031
 Au     6   4   2     5.122954627739   116.45470587    83.34531561
 Au    11  10   2     4.992003767144   149.92074187    87.43465842
 Cr     7   1   2     4.995035696710    61.88726712   326.19604690

---------------------
BASIS SET INFORMATION
---------------------
There are 2 groups of distinct atoms

 Group   1 Type Au  : 8s7p6d1f contracted to 6s4p3d1f pattern {311111/4111/411/1}
 Group   2 Type Cr  : 17s11p7d1f contracted to 6s4p4d1f pattern {842111/6311/4111/1}

Atom   0Au   basis set group =>   1
Atom   1Au   basis set group =>   1
Atom   2Au   basis set group =>   1
Atom   3Au   basis set group =>   1
Atom   4Au   basis set group =>   1
Atom   5Au   basis set group =>   1
Atom   6Au   basis set group =>   1
Atom   7Au   basis set group =>   1
Atom   8Au   basis set group =>   1
Atom   9Au   basis set group =>   1
Atom  10Au   basis set group =>   1
Atom  11Au   basis set group =>   1
Atom  12Au   basis set group =>   1
Atom  13Au   basis set group =>   1
Atom  14Cr   basis set group =>   2
---------------------------------
AUXILIARY/J BASIS SET INFORMATION
---------------------------------
There are 2 groups of distinct atoms

 Group   1 Type Au  : 11s5p5d3f3g contracted to 8s5p5d2f3g pattern {41111111/11111/11111/21/111}
 Group   2 Type Cr  : 19s5p5d3f3g contracted to 8s5p5d2f3g pattern {121111111/11111/11111/21/111}

Atom   0Au   basis set group =>   1
Atom   1Au   basis set group =>   1
Atom   2Au   basis set group =>   1
Atom   3Au   basis set group =>   1
Atom   4Au   basis set group =>   1
Atom   5Au   basis set group =>   1
Atom   6Au   basis set group =>   1
Atom   7Au   basis set group =>   1
Atom   8Au   basis set group =>   1
Atom   9Au   basis set group =>   1
Atom  10Au   basis set group =>   1
Atom  11Au   basis set group =>   1
Atom  12Au   basis set group =>   1
Atom  13Au   basis set group =>   1
Atom  14Cr   basis set group =>   2
---------------------------------
AUXILIARY/C BASIS SET INFORMATION
---------------------------------
There are 2 groups of distinct atoms

 Group   1 Type Au  : 8s8p7d5f3g2h contracted to 8s8p7d5f3g2h pattern {11111111/11111111/1111111/11111/111/11}
 Group   2 Type Cr  : 11s9p8d6f5g2h contracted to 9s8p8d6f5g2h pattern {311111111/21111111/11111111/111111/11111/11}

Atom   0Au   basis set group =>   1
Atom   1Au   basis set group =>   1
Atom   2Au   basis set group =>   1
Atom   3Au   basis set group =>   1
Atom   4Au   basis set group =>   1
Atom   5Au   basis set group =>   1
Atom   6Au   basis set group =>   1
Atom   7Au   basis set group =>   1
Atom   8Au   basis set group =>   1
Atom   9Au   basis set group =>   1
Atom  10Au   basis set group =>   1
Atom  11Au   basis set group =>   1
Atom  12Au   basis set group =>   1
Atom  13Au   basis set group =>   1
Atom  14Cr   basis set group =>   2
-------------------------
ECP PARAMETER INFORMATION
-------------------------

 Group 1, Type Au ECP Def2-ECP (replacing 60 core electrons, lmax=3)

Atom   0Au   ECP group =>   1
Atom   1Au   ECP group =>   1
Atom   2Au   ECP group =>   1
Atom   3Au   ECP group =>   1
Atom   4Au   ECP group =>   1
Atom   5Au   ECP group =>   1
Atom   6Au   ECP group =>   1
Atom   7Au   ECP group =>   1
Atom   8Au   ECP group =>   1
Atom   9Au   ECP group =>   1
Atom  10Au   ECP group =>   1
Atom  11Au   ECP group =>   1
Atom  12Au   ECP group =>   1
Atom  13Au   ECP group =>   1



           ************************************************************
           *        Program running with 6 parallel MPI-processes     *
           *              working on a common directory               *
           ************************************************************
------------------------------------------------------------------------------
                           ORCA GTO INTEGRAL CALCULATION
                           -- RI-GTO INTEGRALS CHOSEN --
------------------------------------------------------------------------------
------------------------------------------------------------------------------
                   ___                                                        
                  /   \      - P O W E R E D   B Y -                         
                 /     \                                                     
                 |  |  |   _    _      __       _____    __    __             
                 |  |  |  | |  | |    /  \     |  _  \  |  |  /  |          
                  \  \/   | |  | |   /    \    | | | |  |  | /  /          
                 / \  \   | |__| |  /  /\  \   | |_| |  |  |/  /          
                |  |  |   |  __  | /  /__\  \  |    /   |      \           
                |  |  |   | |  | | |   __   |  |    \   |  |\   \          
                \     /   | |  | | |  |  |  |  | |\  \  |  | \   \       
                 \___/    |_|  |_| |__|  |__|  |_| \__\ |__|  \__/        
                                                                              
                      - O R C A' S   B I G   F R I E N D -                    
                                      &                                       
                       - I N T E G R A L  F E E D E R -                       
                                                                              
 v1 FN, 2020, v2 2021                                                         
------------------------------------------------------------------------------


Reading SHARK input file b2plyp.SHARKINP.tmp ... ok
----------------------
SHARK INTEGRAL PACKAGE
----------------------

Number of atoms                             ...     15
Number of basis functions                   ...    605
Number of shells                            ...    211
Maximum angular momentum                    ...      3
Integral batch strategy                     ... SHARK/LIBINT Hybrid
RI-J (if used) integral strategy            ... SPLIT-RIJ (Revised 2003 algorithm where possible)
Printlevel                                  ...      1
Contraction scheme used                     ... SEGMENTED contraction
Coulomb Range Separation                    ... NOT USED
Exchange Range Separation                   ... NOT USED
Finite Nucleus Model                        ... NOT USED
Auxiliary Coulomb fitting basis             ... AVAILABLE
   # of basis functions in Aux-J            ...   1335
   # of shells in Aux-J                     ...    345
   Maximum angular momentum in Aux-J        ...      4
Auxiliary J/K fitting basis                 ... NOT available
Auxiliary Correlation fitting basis         ... AVAILABLE
   # of basis functions in Aux-C            ...   2296
   # of shells in Aux-C                     ...    500
   Maximum angular momentum in Aux-C        ...      5
Auxiliary 'external' fitting basis          ... NOT available
Integral threshold                          ...     1.000000e-10
Primitive cut-off                           ...     1.000000e-11
Primitive pair pre-selection threshold      ...     1.000000e-11

Calculating pre-screening integrals         ... done (  0.4 sec) Dimension = 211
Organizing shell pair data                  ... done (  0.7 sec)
Shell pair information
Total number of shell pairs                 ...     22366
Shell pairs after pre-screening             ...     17128
Total number of primitive shell pairs       ...     59609
Primitive shell pairs kept                  ...     32844
          la=0 lb=0:   2724 shell pairs
          la=1 lb=0:   3896 shell pairs
          la=1 lb=1:   1472 shell pairs
          la=2 lb=0:   3401 shell pairs
          la=2 lb=1:   2427 shell pairs
          la=2 lb=2:    999 shell pairs
          la=3 lb=0:    882 shell pairs
          la=3 lb=1:    666 shell pairs
          la=3 lb=2:    578 shell pairs
          la=3 lb=3:     83 shell pairs

Calculating one electron integrals          ... done (  0.2 sec)
Calculating ECP integrals                   ... done ( 19.5 sec)
Calculating RI/J V-Matrix + Cholesky decomp.... done (  2.3 sec)
Calculating RI/C V-Matrix + Cholesky decomp.... done (  4.5 sec)
Calculating Nuclear repulsion               ... done (  0.0 sec) ENN=   5321.777911078273 Eh

SHARK setup successfully completed in  29.0 seconds

Maximum memory used throughout the entire GTOINT-calculation: 48.7 MB


           ************************************************************
           *        Program running with 6 parallel MPI-processes     *
           *              working on a common directory               *
           ************************************************************
-------------------------------------------------------------------------------
                                 ORCA SCF
-------------------------------------------------------------------------------

------------
SCF SETTINGS
------------
Hamiltonian:
 Density Functional     Method          .... DFT(GTOs)
 Exchange Functional    Exchange        .... B88
   X-Alpha parameter    XAlpha          ....  0.666667
   Becke's b parameter  XBeta           ....  0.004200
 Correlation Functional Correlation     .... LYP
 LDA part of GGA corr.  LDAOpt          .... VWN-3
 Gradients option       PostSCFGGA      .... off
 Hybrid DFT is turned on
   Fraction HF Exchange ScalHFX         ....  0.530000
   Scaling of DF-GGA-X  ScalDFX         ....  0.470000
   Scaling of DF-GGA-C  ScalDFC         ....  0.730000
   Scaling of DF-LDA-C  ScalLDAC        ....  0.730000
   Perturbative correction              ....  0.270000
   Density functional embedding theory  .... OFF
   NL short-range parameter             ....  7.800000
 RI-approximation to the Coulomb term is turned on
   Number of AuxJ basis functions       .... 1335
   RIJ-COSX (HFX calculated with COS-X)).... on


General Settings:
 Integral files         IntName         .... b2plyp
 Hartree-Fock type      HFTyp           .... UHF
 Total Charge           Charge          ....    0
 Multiplicity           Mult            ....    5
 Number of Electrons    NEL             ....  290
 Basis Dimension        Dim             ....  605
 Nuclear Repulsion      ENuc            ....   5321.7779110783 Eh

Convergence Acceleration:
 DIIS                   CNVDIIS         .... on
   Start iteration      DIISMaxIt       ....     0
   Startup error        DIISStart       ....  0.200000
   # of expansion vecs  DIISMaxEq       ....     5
   Bias factor          DIISBfac        ....   1.050
   Max. coefficient     DIISMaxC        ....  10.000
 Trust-Rad. Augm. Hess. CNVTRAH         .... auto
   Auto Start mean grad. ratio tolernc. ....  1.125000
   Auto Start start iteration           ....   200
   Auto Start num. interpolation iter.  ....    10
   Max. Number of Micro iterations      ....    16
   Max. Number of Macro iterations      .... Maxiter - #DIIS iter
   Number of Davidson start vectors     ....     2
   Converg. threshold I  (grad. norm)   ....   5.000e-05
   Converg. threshold II (energy diff.) ....   1.000e-06
   Grad. Scal. Fac. for Micro threshold ....   0.100
   Minimum threshold for Micro iter.    ....   0.010
   NR start threshold (gradient norm)   ....   0.001
   Initial trust radius                 ....   0.400
   Minimum AH scaling param. (alpha)    ....   1.000
   Maximum AH scaling param. (alpha)    .... 1000.000
   Orbital update algorithm             .... Taylor
   White noise on init. David. guess    .... on
   Maximum white noise                  ....   0.010
   Quad. conv. algorithm                .... NR
 SOSCF                  CNVSOSCF        .... off
 Level Shifting         CNVShift        .... on
   Level shift para.    LevelShift      ....    0.2500
   Turn off err/grad.   ShiftErr        ....    0.0000
 Zerner damping         CNVZerner       .... off
 Static damping         CNVDamp         .... on
   Fraction old density DampFac         ....    0.9200
   Max. Damping (<1)    DampMax         ....    0.9800
   Min. Damping (>=0)   DampMin         ....    0.0000
   Turn off err/grad.   DampErr         ....    0.0030
 Fernandez-Rico         CNVRico         .... off

SCF Procedure:
 Maximum # iterations   MaxIter         ....   400
 SCF integral mode      SCFMode         .... Direct
   Integral package                     .... SHARK and LIBINT hybrid scheme
 Reset frequency        DirectResetFreq ....    20
 Integral Threshold     Thresh          ....  1.000e-10 Eh
 Primitive CutOff       TCut            ....  1.000e-11 Eh

Convergence Tolerance:
 Convergence Check Mode ConvCheckMode   .... Total+1el-Energy
 Convergence forced     ConvForced      .... 0
 Energy Change          TolE            ....  1.000e-06 Eh
 1-El. energy change                    ....  1.000e-03 Eh
 DIIS Error             TolErr          ....  1.000e-06


Diagonalization of the overlap matrix:
Smallest eigenvalue                        ... 1.885e-04
Time for diagonalization                   ...    0.156 sec
Threshold for overlap eigenvalues          ... 1.000e-08
Number of eigenvalues below threshold      ... 0
Time for construction of square roots      ...    0.301 sec
Total time needed                          ...    0.692 sec

Time for model grid setup =    2.835 sec

------------------------------
INITIAL GUESS: MODEL POTENTIAL
------------------------------
Loading Hartree-Fock densities                     ... done
  calling /media/Programs/ORCA501/orca b2plyp_atom79.inp > b2plyp_atom79.out in order to generate an atomic fitting density for atom 0 (Au with ECP) on-the-fly... 
    atom 0 (Au), assumed electronic state with S=2: 1s2 2s2 2p6 3s2 3p6 4s2 3d10 4p6 5s2 4d10 5p6 6s1 4f14 5d10           ... done
Calculating cut-offs                               ... done
Initializing the effective Hamiltonian             ... done
Setting up the integral package (SHARK)            ... done
Starting the Coulomb interaction                   ... done (   2.0 sec)
Reading the grid                                   ... done
Mapping shells                                     ... done
Starting the XC term evaluation                    ... done (   0.9 sec)
  promolecular density results
     # of electrons  =   1130.015135127
     EX              =  -5190.655987923
     EC              =    -22.948602128
     EX+EC           =  -5213.604590051
Transforming the Hamiltonian                       ... done (   0.6 sec)
Diagonalizing the Hamiltonian                      ... done (   0.9 sec)
Back transforming the eigenvectors                 ... done (   0.1 sec)
Now organizing SCF variables                       ... done
                      ------------------
                      INITIAL GUESS DONE (   9.3 sec)
                      ------------------
-------------------
DFT GRID GENERATION
-------------------

General Integration Accuracy     IntAcc      ... 4.388
Radial Grid Type                 RadialGrid  ... OptM3 with GC (2021)
Angular Grid (max. ang.)         AngularGrid ... 4 (Lebedev-302)
Angular grid pruning method      GridPruning ... 4 (adaptive)
Weight generation scheme         WeightScheme... Becke
Basis function cutoff            BFCut       ... 1.0000e-10
Integration weight cutoff        WCut        ... 1.0000e-14
Angular grids for H and He will be reduced by one unit
Partially contracted basis set               ... off
Rotationally invariant grid construction     ... off

Total number of grid points                  ...   166706
Total number of batches                      ...     2616
Average number of points per batch           ...       63
Average number of grid points per atom       ...    11114
Time for grid setup =    4.624 sec

--------------------
COSX GRID GENERATION
--------------------

GRIDX 1
-------
General Integration Accuracy     IntAcc      ... 3.816
Radial Grid Type                 RadialGrid  ... OptM3 with GC (2021)
Angular Grid (max. ang.)         AngularGrid ... 1 (Lebedev-50)
Angular grid pruning method      GridPruning ... 4 (adaptive)
Weight generation scheme         WeightScheme... Becke
Basis function cutoff            BFCut       ... 1.0000e-10
Integration weight cutoff        WCut        ... 1.0000e-14
Angular grids for H and He will be reduced by one unit
Partially contracted basis set               ... on
Rotationally invariant grid construction     ... off

Total number of grid points                  ...    17465
Total number of batches                      ...      280
Average number of points per batch           ...       62
Average number of grid points per atom       ...     1164
UseSFitting                                  ... on

GRIDX 2
-------
General Integration Accuracy     IntAcc      ... 4.020
Radial Grid Type                 RadialGrid  ... OptM3 with GC (2021)
Angular Grid (max. ang.)         AngularGrid ... 2 (Lebedev-110)
Angular grid pruning method      GridPruning ... 4 (adaptive)
Weight generation scheme         WeightScheme... Becke
Basis function cutoff            BFCut       ... 1.0000e-10
Integration weight cutoff        WCut        ... 1.0000e-14
Angular grids for H and He will be reduced by one unit
Partially contracted basis set               ... on
Rotationally invariant grid construction     ... off

Total number of grid points                  ...    53059
Total number of batches                      ...      836
Average number of points per batch           ...       63
Average number of grid points per atom       ...     3537
UseSFitting                                  ... on

GRIDX 3
-------
General Integration Accuracy     IntAcc      ... 4.338
Radial Grid Type                 RadialGrid  ... OptM3 with GC (2021)
Angular Grid (max. ang.)         AngularGrid ... 3 (Lebedev-194)
Angular grid pruning method      GridPruning ... 4 (adaptive)
Weight generation scheme         WeightScheme... Becke
Basis function cutoff            BFCut       ... 1.0000e-10
Integration weight cutoff        WCut        ... 1.0000e-14
Angular grids for H and He will be reduced by one unit
Partially contracted basis set               ... on
Rotationally invariant grid construction     ... off

Total number of grid points                  ...    96545
Total number of batches                      ...     1515
Average number of points per batch           ...       63
Average number of grid points per atom       ...     6436
UseSFitting                                  ... on

Time for X-Grid setup             =    5.279 sec

--------------
SCF ITERATIONS
--------------
ITER       Energy         Delta-E        Max-DP      RMS-DP      [F,P]     Damp
               ***  Starting incremental Fock matrix formation  ***
  0  -2938.6243702974   0.000000000000 0.07988046  0.00050004  0.2732973 0.9200
  1  -2938.9032689193  -0.278898621891 0.08567853  0.00049139  0.2515666 0.9200
                               ***Turning on DIIS***
  2  -2939.0625683659  -0.159299446620 0.06632995  0.00041043  0.2312858 0.9200
  3  -2939.1339291493  -0.071360783413 0.02609928  0.00025211  0.2126447 0.9200
  4  -2939.2048142659  -0.070885116610 0.02445731  0.00023877  0.1954733 0.9200
  5  -2939.2725652887  -0.067751022726 0.02327058  0.00022676  0.1797400 0.9200
  6  -2939.3337625641  -0.061197275412 0.02622875  0.00021230  0.1654206 0.9200
  7  -2939.3954235142  -0.061660950155 0.02671821  0.00020306  0.1523017 0.9200
  8  -2939.4576539230  -0.062230408758 0.02485684  0.00018994  0.1401786 0.9200
  9  -2939.5149771368  -0.057323213766 0.02096957  0.00017434  0.1289683 0.9200
 10  -2939.5686053663  -0.053628229571 0.01796209  0.00016279  0.1186231 0.9200
 11  -2939.6179193998  -0.049314033464 0.01775176  0.00015199  0.1091069 0.9200
 12  -2939.6644670014  -0.046547601575 0.01872119  0.00014247  0.1003777 0.9200
 13  -2939.7086460299  -0.044179028502 0.01732064  0.00013281  0.0923620 0.9200
 14  -2939.7499022344  -0.041256204584 0.01440196  0.00012233  0.0849860 0.9200
 15  -2939.7883516636  -0.038449429183 0.01220821  0.00011304  0.0781896 0.9200
 16  -2939.8241462081  -0.035794544506 0.01128657  0.00010486  0.0719301 0.9200
 17  -2939.8575614915  -0.033415283326 0.01117030  0.00009739  0.0661733 0.9200
 18  -2939.8888041935  -0.031242701991 0.01059602  0.00009032  0.0608822 0.9200
 19  -2939.9179423000  -0.029138106523 0.00924975  0.00008346  0.0560166 0.9200
               *** Restarting incremental Fock matrix formation ***
                                   *** Resetting DIIS ***
 20  -2939.9445005237  -0.026558223687 0.00832921  0.00007440  0.0515361 0.9200
 21  -2939.9699767639  -0.025476240223 0.00753361  0.00006824  0.0474017 0.9200
 22  -2939.9936178652  -0.023641101355 0.00684809  0.00006365  0.0436040 0.9200
 23  -2940.0155104888  -0.021892623527 0.00644888  0.00006020  0.0401254 0.9200
 24  -2940.0357686677  -0.020258178961 0.00617907  0.00005708  0.0369323 0.9200
 25  -2940.0545211322  -0.018752464441 0.00591031  0.00005366  0.0339925 0.9200
 26  -2940.0719037126  -0.017382580465 0.00538468  0.00005013  0.0312782 0.9200
 27  -2940.0880099324  -0.016106219791 0.00472844  0.00004662  0.0287756 0.9200
 28  -2940.1029287354  -0.014918802947 0.00419544  0.00004330  0.0264731 0.9200
 29  -2940.1167458581  -0.013817122735 0.00385771  0.00004020  0.0243568 0.9200
 30  -2940.1295417608  -0.012795902674 0.00354138  0.00003732  0.0224111 0.9200
 31  -2940.1413896790  -0.011847918193 0.00325690  0.00003462  0.0206208 0.9200
 32  -2940.1523560006  -0.010966321624 0.00298043  0.00003210  0.0189729 0.9200
 33  -2940.1625026304  -0.010146629761 0.00273429  0.00002975  0.0174564 0.9200
 34  -2940.1718878480  -0.009385217654 0.00250766  0.00002757  0.0160612 0.9200
 35  -2940.1805663397  -0.008678491681 0.00229921  0.00002555  0.0147777 0.9200
 36  -2940.1885890400  -0.008022700318 0.00210790  0.00002367  0.0135968 0.9200
 37  -2940.1960033611  -0.007414321085 0.00193206  0.00002193  0.0125103 0.9200
 38  -2940.2028535108  -0.006850149697 0.00176963  0.00002032  0.0115106 0.9200
 39  -2940.2091807271  -0.006327216353 0.00198078  0.00001895  0.0105908 0.9200
               *** Restarting incremental Fock matrix formation ***
                                   *** Resetting DIIS ***
 40  -2940.2150239091  -0.005843181916 0.00150012  0.00001606  0.0097453 0.9200
 41  -2940.2204343109  -0.005410401828 0.00136841  0.00001451  0.0089719 0.9200
 42  -2940.2254256905  -0.004991379658 0.00125952  0.00001362  0.0082594 0.9200
 43  -2940.2300273680  -0.004601677442 0.00116217  0.00001304  0.0076026 0.9200
 44  -2940.2342683830  -0.004241014996 0.00106990  0.00001253  0.0069972 0.9200
 45  -2940.2381767356  -0.003908352599 0.00098047  0.00001186  0.0064394 0.9200
 46  -2940.2417797602  -0.003603024607 0.00089681  0.00001116  0.0059259 0.9200
 47  -2940.2451014216  -0.003321661430 0.00083671  0.00001047  0.0054532 0.9200
 48  -2940.2481636312  -0.003062209537 0.00079013  0.00000980  0.0050181 0.9200
 49  -2940.2509866265  -0.002822995296 0.00074334  0.00000916  0.0046177 0.9200
 50  -2940.2535890598  -0.002602433326 0.00069761  0.00000855  0.0042492 0.9200
 51  -2940.2559880082  -0.002398948448 0.00065445  0.00000798  0.0039102 0.9200
 52  -2940.2581992134  -0.002211205188 0.00061386  0.00000745  0.0035982 0.9200
 53  -2940.2602372027  -0.002037989274 0.00057529  0.00000695  0.0033112 0.9200
 54  -2940.2621154036  -0.001878200960 0.00053870  0.00000648  0.0030470 0.9200
 55  -2940.2638462136  -0.001730809935 0.00630323  0.00007551  0.0028039 0.0000
 56  -2940.2839800163  -0.020133802738 0.00063807  0.00000583  0.0003335 0.0000
               *** Restarting incremental Fock matrix formation ***
                                   *** Resetting DIIS ***
 57  -2940.2842683043  -0.000288287937 0.01125731  0.00013855  0.0005134 0.0000
 58  -2940.2844469041  -0.000178599826 0.00404389  0.00004772  0.0002668 0.0000
 59  -2940.2844727659  -0.000025861816 0.00123222  0.00001596  0.0002541 0.0000
 60  -2940.2844793361  -0.000006570223 0.00050812  0.00000697  0.0002454 0.0000
 61  -2940.2844824695  -0.000003133392 0.00025145  0.00000335  0.0002321 0.0000
 62  -2940.2844844732  -0.000002003724 0.00034054  0.00000275  0.0002203 0.0000
 63  -2940.2844863204  -0.000001847160 0.00031557  0.00000231  0.0002006 0.0000
 64  -2940.2844879044  -0.000001583967 0.00045411  0.00000238  0.0001830 0.0000
 65  -2940.2844893532  -0.000001448800 0.00041445  0.00000237  0.0001613 0.0000
 66  -2940.2844908441  -0.000001490926 0.00041707  0.00000219  0.0001373 0.0000
 67  -2940.2844920993  -0.000001255157 0.00042020  0.00000206  0.0001151 0.0000
 68  -2940.2844932785  -0.000001179215 0.00042751  0.00000196  0.0001036 0.0000
 69  -2940.2844942120  -0.000000933494 0.00034035  0.00000162  0.0000909 0.0000
 70  -2940.2844951166  -0.000000904621 0.00050991  0.00000218  0.0000796 0.0000
 71  -2940.2844958055  -0.000000688909 0.00015499  0.00000087  0.0000681 0.0000
 72  -2940.2844961573  -0.000000351848 0.00046570  0.00000197  0.0000493 0.0000
                 **** Energy Check signals convergence ****

               *****************************************************
               *                     SUCCESS                       *
               *           SCF CONVERGED AFTER  73 CYCLES          *
               *****************************************************

Old exchange energy                            =   -113.721577424 Eh
New exchange energy                            =   -113.721431076 Eh
Exchange energy change after final integration =      0.000146348 Eh
Total energy after final integration           =  -2940.284350322 Eh
Final COS-X integration done in                =    50.118 sec

----------------
TOTAL SCF ENERGY
----------------

Total Energy       :        -2940.28435032 Eh          -80009.20476 eV

Components:
Nuclear Repulsion  :         5321.77791108 Eh          144812.93911 eV
Electronic Energy  :        -8262.06226140 Eh         -224822.14387 eV
One Electron Energy:       -15416.89789271 Eh         -419515.11940 eV
Two Electron Energy:         7154.83563131 Eh          194692.97553 eV
Max COSX asymmetry :            0.00000694 Eh               0.00019 eV

Virial components:
Potential Energy   :        -4626.67435421 Eh         -125898.20972 eV
Kinetic Energy     :         1686.39000389 Eh           45889.00496 eV
Virial Ratio       :            2.74353758


DFT components:
N(Alpha)           :      146.999973236013 electrons
N(Beta)            :      142.999971261315 electrons
N(Total)           :      289.999944497329 electrons
E(X)               :     -102.480084202174 Eh       
E(C)               :       -7.957516664848 Eh       
E(XC)              :     -110.437600867022 Eh       
DFET-embed. en.    :        0.000000000000 Eh       

---------------
SCF CONVERGENCE
---------------

  Last Energy change         ...   -5.1190e-07  Tolerance :   1.0000e-06
  Last MAX-Density change    ...    0.0000e+00  Tolerance :   1.0000e-05
  Last RMS-Density change    ...    0.0000e+00  Tolerance :   1.0000e-06
  Last DIIS Error            ...    6.1167e-05  Tolerance :   1.0000e-06

             **** THE GBW FILE WAS UPDATED (b2plyp.gbw) ****
             **** DENSITY b2plyp.scfp WAS UPDATED ****
             **** ENERGY FILE WAS UPDATED (b2plyp.en.tmp) ****
----------------------
UHF SPIN CONTAMINATION
----------------------

Warning: in a DFT calculation there is little theoretical justification to 
         calculate <S**2> as in Hartree-Fock theory. We will do it anyways
         but you should keep in mind that the values have only limited relevance

Expectation value of <S**2>     :     6.091789
Ideal value S*(S+1) for S=2.0   :     6.000000
Deviation                       :     0.091789

             **** THE GBW FILE WAS UPDATED (b2plyp.gbw) ****
             **** DENSITY b2plyp.scfp WAS UPDATED ****
----------------
ORBITAL ENERGIES
----------------
                 SPIN UP ORBITALS
  NO   OCC          E(Eh)            E(eV) 
   0   1.0000    -217.762595     -5925.6215 
   1   1.0000     -25.448239      -692.4818 
   2   1.0000     -21.588179      -587.4442 
   3   1.0000     -21.586749      -587.4053 
   4   1.0000     -21.581867      -587.2725 
   5   1.0000      -4.406492      -119.9068 
   6   1.0000      -4.406172      -119.8980 
   7   1.0000      -4.405358      -119.8759 
   8   1.0000      -4.402759      -119.8052 
   9   1.0000      -4.394458      -119.5793 
  10   1.0000      -4.394384      -119.5773 
  11   1.0000      -4.392855      -119.5357 
  12   1.0000      -4.392711      -119.5317 
  13   1.0000      -4.391648      -119.5028 
  14   1.0000      -4.391310      -119.4936 
  15   1.0000      -4.390170      -119.4626 
  16   1.0000      -4.389689      -119.4495 
  17   1.0000      -4.382367      -119.2503 
  18   1.0000      -4.380865      -119.2094 
  19   1.0000      -3.239349       -88.1472 
  20   1.0000      -2.531295       -68.8800 
  21   1.0000      -2.527215       -68.7690 
  22   1.0000      -2.525365       -68.7187 
  23   1.0000      -2.523465       -68.6670 
  24   1.0000      -2.522324       -68.6359 
  25   1.0000      -2.522196       -68.6324 
  26   1.0000      -2.521894       -68.6242 
  27   1.0000      -2.521381       -68.6103 
  28   1.0000      -2.521162       -68.6043 
  29   1.0000      -2.519310       -68.5539 
  30   1.0000      -2.519152       -68.5496 
  31   1.0000      -2.518088       -68.5207 
  32   1.0000      -2.517523       -68.5053 
  33   1.0000      -2.516897       -68.4883 
  34   1.0000      -2.514673       -68.4277 
  35   1.0000      -2.513685       -68.4008 
  36   1.0000      -2.512879       -68.3789 
  37   1.0000      -2.511883       -68.3518 
  38   1.0000      -2.511720       -68.3474 
  39   1.0000      -2.509408       -68.2845 
  40   1.0000      -2.509105       -68.2762 
  41   1.0000      -2.508819       -68.2684 
  42   1.0000      -2.508551       -68.2612 
  43   1.0000      -2.508005       -68.2463 
  44   1.0000      -2.507719       -68.2385 
  45   1.0000      -2.507052       -68.2204 
  46   1.0000      -2.507029       -68.2197 
  47   1.0000      -2.506481       -68.2048 
  48   1.0000      -2.506236       -68.1981 
  49   1.0000      -2.506015       -68.1921 
  50   1.0000      -2.505781       -68.1858 
  51   1.0000      -2.505476       -68.1775 
  52   1.0000      -2.505465       -68.1772 
  53   1.0000      -2.504575       -68.1529 
  54   1.0000      -2.504458       -68.1498 
  55   1.0000      -2.503564       -68.1254 
  56   1.0000      -2.501416       -68.0670 
  57   1.0000      -2.500982       -68.0552 
  58   1.0000      -2.500533       -68.0430 
  59   1.0000      -2.496896       -67.9440 
  60   1.0000      -2.495590       -67.9085 
  61   1.0000      -2.491938       -67.8091 
  62   1.0000      -2.131631       -58.0046 
  63   1.0000      -2.122156       -57.7468 
  64   1.0000      -2.119572       -57.6765 
  65   1.0000      -0.502395       -13.6709 
  66   1.0000      -0.487333       -13.2610 
  67   1.0000      -0.479268       -13.0415 
  68   1.0000      -0.478113       -13.0101 
  69   1.0000      -0.473303       -12.8792 
  70   1.0000      -0.472883       -12.8678 
  71   1.0000      -0.464972       -12.6525 
  72   1.0000      -0.460022       -12.5178 
  73   1.0000      -0.459271       -12.4974 
  74   1.0000      -0.458172       -12.4675 
  75   1.0000      -0.456755       -12.4289 
  76   1.0000      -0.451202       -12.2778 
  77   1.0000      -0.449888       -12.2421 
  78   1.0000      -0.443807       -12.0766 
  79   1.0000      -0.440657       -11.9909 
  80   1.0000      -0.438980       -11.9453 
  81   1.0000      -0.437731       -11.9113 
  82   1.0000      -0.436416       -11.8755 
  83   1.0000      -0.432973       -11.7818 
  84   1.0000      -0.432176       -11.7601 
  85   1.0000      -0.427704       -11.6384 
  86   1.0000      -0.425105       -11.5677 
  87   1.0000      -0.421404       -11.4670 
  88   1.0000      -0.420860       -11.4522 
  89   1.0000      -0.418571       -11.3899 
  90   1.0000      -0.415665       -11.3108 
  91   1.0000      -0.413944       -11.2640 
  92   1.0000      -0.413270       -11.2457 
  93   1.0000      -0.411641       -11.2013 
  94   1.0000      -0.407015       -11.0754 
  95   1.0000      -0.406344       -11.0572 
  96   1.0000      -0.401961       -10.9379 
  97   1.0000      -0.401009       -10.9120 
  98   1.0000      -0.396348       -10.7852 
  99   1.0000      -0.393980       -10.7207 
 100   1.0000      -0.392227       -10.6731 
 101   1.0000      -0.391061       -10.6413 
 102   1.0000      -0.386269       -10.5109 
 103   1.0000      -0.384749       -10.4695 
 104   1.0000      -0.382844       -10.4177 
 105   1.0000      -0.381972       -10.3940 
 106   1.0000      -0.380487       -10.3536 
 107   1.0000      -0.376767       -10.2524 
 108   1.0000      -0.376254       -10.2384 
 109   1.0000      -0.373672       -10.1681 
 110   1.0000      -0.372343       -10.1320 
 111   1.0000      -0.371767       -10.1163 
 112   1.0000      -0.370710       -10.0875 
 113   1.0000      -0.369334       -10.0501 
 114   1.0000      -0.367464        -9.9992 
 115   1.0000      -0.364498        -9.9185 
 116   1.0000      -0.364046        -9.9062 
 117   1.0000      -0.363116        -9.8809 
 118   1.0000      -0.361546        -9.8382 
 119   1.0000      -0.359966        -9.7952 
 120   1.0000      -0.359388        -9.7795 
 121   1.0000      -0.356493        -9.7007 
 122   1.0000      -0.355770        -9.6810 
 123   1.0000      -0.354339        -9.6421 
 124   1.0000      -0.352234        -9.5848 
 125   1.0000      -0.351073        -9.5532 
 126   1.0000      -0.349515        -9.5108 
 127   1.0000      -0.348437        -9.4814 
 128   1.0000      -0.348110        -9.4726 
 129   1.0000      -0.345093        -9.3905 
 130   1.0000      -0.342557        -9.3215 
 131   1.0000      -0.337298        -9.1783 
 132   1.0000      -0.337119        -9.1735 
 133   1.0000      -0.334323        -9.0974 
 134   1.0000      -0.330841        -9.0027 
 135   1.0000      -0.330692        -8.9986 
 136   1.0000      -0.327762        -8.9189 
 137   1.0000      -0.327161        -8.9025 
 138   1.0000      -0.325111        -8.8467 
 139   1.0000      -0.321960        -8.7610 
 140   1.0000      -0.316174        -8.6035 
 141   1.0000      -0.311829        -8.4853 
 142   1.0000      -0.307392        -8.3646 
 143   1.0000      -0.252968        -6.8836 
 144   1.0000      -0.239166        -6.5080 
 145   1.0000      -0.232920        -6.3381 
 146   1.0000      -0.223711        -6.0875 
 147   0.0000      -0.091380        -2.4866 
 148   0.0000      -0.083995        -2.2856 
 149   0.0000      -0.076528        -2.0824 
 150   0.0000      -0.064842        -1.7644 
 151   0.0000      -0.055620        -1.5135 
 152   0.0000      -0.050598        -1.3768 
 153   0.0000      -0.046252        -1.2586 
 154   0.0000      -0.037016        -1.0072 
 155   0.0000      -0.015904        -0.4328 
 156   0.0000      -0.004777        -0.1300 
 157   0.0000       0.001382         0.0376 
 158   0.0000       0.004323         0.1176 
 159   0.0000       0.011027         0.3001 
 160   0.0000       0.016900         0.4599 
 161   0.0000       0.025058         0.6819 
 162   0.0000       0.028623         0.7789 
 163   0.0000       0.045232         1.2308 
 164   0.0000       0.051590         1.4038 
 165   0.0000       0.055683         1.5152 
 166   0.0000       0.065625         1.7857 
 167   0.0000       0.073742         2.0066 
 168   0.0000       0.075678         2.0593 
 169   0.0000       0.080067         2.1787 
 170   0.0000       0.084959         2.3119 
 171   0.0000       0.085512         2.3269 
 172   0.0000       0.091051         2.4776 
 173   0.0000       0.091822         2.4986 
 174   0.0000       0.099846         2.7169 
 175   0.0000       0.104923         2.8551 
 176   0.0000       0.105906         2.8818 
 177   0.0000       0.106895         2.9087 
 178   0.0000       0.108180         2.9437 
 179   0.0000       0.111048         3.0218 
 180   0.0000       0.123024         3.3476 
 181   0.0000       0.125455         3.4138 
 182   0.0000       0.133852         3.6423 
 183   0.0000       0.141337         3.8460 
 184   0.0000       0.141551         3.8518 
 185   0.0000       0.142238         3.8705 
 186   0.0000       0.143799         3.9130 
 187   0.0000       0.146916         3.9978 
 188   0.0000       0.152880         4.1601 
 189   0.0000       0.161816         4.4032 
 190   0.0000       0.162688         4.4270 
 191   0.0000       0.170504         4.6397 
 192   0.0000       0.172707         4.6996 
 193   0.0000       0.173918         4.7326 
 194   0.0000       0.185476         5.0471 
 195   0.0000       0.186454         5.0737 
 196   0.0000       0.199992         5.4421 
 197   0.0000       0.202611         5.5133 
 198   0.0000       0.203177         5.5287 
 199   0.0000       0.204872         5.5749 
 200   0.0000       0.211508         5.7554 
 201   0.0000       0.213302         5.8042 
 202   0.0000       0.222011         6.0412 
 203   0.0000       0.225623         6.1395 
 204   0.0000       0.230673         6.2769 
 205   0.0000       0.248905         6.7731 
 206   0.0000       0.272999         7.4287 
 207   0.0000       0.278364         7.5747 
 208   0.0000       0.287062         7.8114 
 209   0.0000       0.298682         8.1275 
 210   0.0000       0.299181         8.1411 
 211   0.0000       0.302348         8.2273 
 212   0.0000       0.303723         8.2647 
 213   0.0000       0.323221         8.7953 
 214   0.0000       0.323863         8.8128 
 215   0.0000       0.326409         8.8820 
 216   0.0000       0.334724         9.1083 
 217   0.0000       0.340855         9.2751 
 218   0.0000       0.345162         9.3923 
 219   0.0000       0.346212         9.4209 
 220   0.0000       0.351743         9.5714 
 221   0.0000       0.353687         9.6243 
 222   0.0000       0.366437         9.9713 
 223   0.0000       0.366828         9.9819 
 224   0.0000       0.376249        10.2382 
 225   0.0000       0.378611        10.3025 
 226   0.0000       0.380992        10.3673 
 227   0.0000       0.382277        10.4023 
 228   0.0000       0.386355        10.5133 
 229   0.0000       0.387132        10.5344 
 230   0.0000       0.393990        10.7210 
 231   0.0000       0.398888        10.8543 
 232   0.0000       0.401469        10.9245 
 233   0.0000       0.409569        11.1449 
 234   0.0000       0.410958        11.1827 
 235   0.0000       0.415373        11.3029 
 236   0.0000       0.419283        11.4093 
 237   0.0000       0.423514        11.5244 
 238   0.0000       0.426611        11.6087 
 239   0.0000       0.431315        11.7367 
 240   0.0000       0.437016        11.8918 
 241   0.0000       0.437324        11.9002 
 242   0.0000       0.437932        11.9167 
 243   0.0000       0.441823        12.0226 
 244   0.0000       0.450618        12.2619 
 245   0.0000       0.454686        12.3726 
 246   0.0000       0.454924        12.3791 
 247   0.0000       0.458360        12.4726 
 248   0.0000       0.472480        12.8568 
 249   0.0000       0.474353        12.9078 
 250   0.0000       0.479179        13.0391 
 251   0.0000       0.481949        13.1145 
 252   0.0000       0.484402        13.1813 
 253   0.0000       0.485578        13.2132 
 254   0.0000       0.489212        13.3121 
 255   0.0000       0.492383        13.3984 
 256   0.0000       0.501694        13.6518 
 257   0.0000       0.503303        13.6956 
 258   0.0000       0.508243        13.8300 
 259   0.0000       0.514226        13.9928 
 260   0.0000       0.521668        14.1953 
 261   0.0000       0.531798        14.4710 
 262   0.0000       0.533603        14.5201 
 263   0.0000       0.540734        14.7141 
 264   0.0000       0.543293        14.7837 
 265   0.0000       0.549309        14.9475 
 266   0.0000       0.552355        15.0303 
 267   0.0000       0.554513        15.0891 
 268   0.0000       0.561494        15.2790 
 269   0.0000       0.566277        15.4092 
 270   0.0000       0.567459        15.4413 
 271   0.0000       0.570339        15.5197 
 272   0.0000       0.576257        15.6807 
 273   0.0000       0.586200        15.9513 
 274   0.0000       0.592920        16.1342 
 275   0.0000       0.595124        16.1941 
 276   0.0000       0.596564        16.2333 
 277   0.0000       0.605086        16.4652 
 278   0.0000       0.608451        16.5568 
 279   0.0000       0.611468        16.6389 
 280   0.0000       0.618380        16.8270 
 281   0.0000       0.626800        17.0561 
 282   0.0000       0.630466        17.1558 
 283   0.0000       0.632367        17.2076 
 284   0.0000       0.633421        17.2363 
 285   0.0000       0.634561        17.2673 
 286   0.0000       0.649779        17.6814 
 287   0.0000       0.651720        17.7342 
 288   0.0000       0.656159        17.8550 
 289   0.0000       0.670581        18.2474 
 290   0.0000       0.675874        18.3915 
 291   0.0000       0.689885        18.7727 
 292   0.0000       0.695246        18.9186 
 293   0.0000       0.714203        19.4345 
 294   0.0000       0.715177        19.4610 
 295   0.0000       0.750864        20.4320 
 296   0.0000       0.757203        20.6045 
 297   0.0000       0.799469        21.7547 
 298   0.0000       0.808920        22.0118 
 299   0.0000       0.815946        22.2030 
 300   0.0000       0.846049        23.0222 
 301   0.0000       0.849499        23.1161 
 302   0.0000       0.876798        23.8589 
 303   0.0000       0.880426        23.9576 
 304   0.0000       0.894074        24.3290 
 305   0.0000       0.895346        24.3636 
 306   0.0000       0.912775        24.8379 
 307   0.0000       0.914969        24.8976 
 308   0.0000       0.925628        25.1876 
 309   0.0000       0.943142        25.6642 
 310   0.0000       0.949436        25.8355 
 311   0.0000       0.956488        26.0274 
 312   0.0000       0.957130        26.0448 
 313   0.0000       0.965573        26.2746 
 314   0.0000       0.989618        26.9289 
 315   0.0000       0.991782        26.9878 
 316   0.0000       1.002029        27.2666 
 317   0.0000       1.003096        27.2956 
 318   0.0000       1.007649        27.4195 
 319   0.0000       1.020176        27.7604 
 320   0.0000       1.021662        27.8008 
 321   0.0000       1.040453        28.3122 
 322   0.0000       1.043787        28.4029 
 323   0.0000       1.044564        28.4240 
 324   0.0000       1.050368        28.5820 
 325   0.0000       1.059764        28.8376 
 326   0.0000       1.061945        28.8970 
 327   0.0000       1.083638        29.4873 
 328   0.0000       1.116598        30.3842 
 329   0.0000       1.136252        30.9190 
 330   0.0000       1.140964        31.0472 
 331   0.0000       1.176611        32.0172 
 332   0.0000       1.179274        32.0897 
 333   0.0000       1.185575        32.2611 
 334   0.0000       1.275974        34.7210 
 335   0.0000       1.296977        35.2925 
 336   0.0000       1.323466        36.0133 
 337   0.0000       1.367687        37.2166 
 338   0.0000       1.408674        38.3320 
 339   0.0000       1.409916        38.3658 
 340   0.0000       1.418060        38.5874 
 341   0.0000       1.421612        38.6840 
 342   0.0000       1.434069        39.0230 
 343   0.0000       1.449190        39.4345 
 344   0.0000       1.453817        39.5604 
 345   0.0000       1.470818        40.0230 
 346   0.0000       1.481454        40.3124 
 347   0.0000       1.488879        40.5145 
 348   0.0000       1.493505        40.6403 
 349   0.0000       1.501947        40.8701 
 350   0.0000       1.512579        41.1594 
 351   0.0000       1.518639        41.3243 
 352   0.0000       1.521091        41.3910 
 353   0.0000       1.530523        41.6476 
 354   0.0000       1.533966        41.7413 
 355   0.0000       1.536316        41.8053 
 356   0.0000       1.546774        42.0899 
 357   0.0000       1.552717        42.2516 
 358   0.0000       1.561281        42.4846 
 359   0.0000       1.565120        42.5891 
 360   0.0000       1.570157        42.7261 
 361   0.0000       1.579386        42.9773 
 362   0.0000       1.583952        43.1015 
 363   0.0000       1.584742        43.1230 
 364   0.0000       1.591842        43.3162 
 365   0.0000       1.593074        43.3497 
 366   0.0000       1.595764        43.4229 
 367   0.0000       1.603535        43.6344 
 368   0.0000       1.609361        43.7929 
 369   0.0000       1.610988        43.8372 
 370   0.0000       1.620303        44.0907 
 371   0.0000       1.622815        44.1591 
 372   0.0000       1.624127        44.1948 
 373   0.0000       1.627207        44.2786 
 374   0.0000       1.629528        44.3417 
 375   0.0000       1.630951        44.3804 
 376   0.0000       1.635791        44.5121 
 377   0.0000       1.643002        44.7084 
 378   0.0000       1.646165        44.7944 
 379   0.0000       1.648982        44.8711 
 380   0.0000       1.649544        44.8864 
 381   0.0000       1.653688        44.9991 
 382   0.0000       1.654359        45.0174 
 383   0.0000       1.655750        45.0552 
 384   0.0000       1.659440        45.1557 
 385   0.0000       1.659857        45.1670 
 386   0.0000       1.667093        45.3639 
 387   0.0000       1.667743        45.3816 
 388   0.0000       1.669539        45.4305 
 389   0.0000       1.672654        45.5152 
 390   0.0000       1.674676        45.5703 
 391   0.0000       1.675697        45.5980 
 392   0.0000       1.680291        45.7231 
 393   0.0000       1.680355        45.7248 
 394   0.0000       1.681588        45.7583 
 395   0.0000       1.683971        45.8232 
 396   0.0000       1.684971        45.8504 
 397   0.0000       1.690451        45.9995 
 398   0.0000       1.690894        46.0116 
 399   0.0000       1.692205        46.0472 
 400   0.0000       1.693551        46.0839 
 401   0.0000       1.695177        46.1281 
 402   0.0000       1.695478        46.1363 
 403   0.0000       1.696885        46.1746 
 404   0.0000       1.697048        46.1790 
 405   0.0000       1.699244        46.2388 
 406   0.0000       1.700830        46.2819 
 407   0.0000       1.702970        46.3402 
 408   0.0000       1.705031        46.3962 
 409   0.0000       1.705887        46.4195 
 410   0.0000       1.706562        46.4379 
 411   0.0000       1.712081        46.5881 
 412   0.0000       1.712591        46.6020 
 413   0.0000       1.714104        46.6431 
 414   0.0000       1.714356        46.6500 
 415   0.0000       1.716814        46.7169 
 416   0.0000       1.716867        46.7183 
 417   0.0000       1.720664        46.8217 
 418   0.0000       1.723583        46.9011 
 419   0.0000       1.724052        46.9138 
 420   0.0000       1.724179        46.9173 
 421   0.0000       1.725485        46.9528 
 422   0.0000       1.728702        47.0404 
 423   0.0000       1.730468        47.0884 
 424   0.0000       1.731594        47.1191 
 425   0.0000       1.732164        47.1346 
 426   0.0000       1.734652        47.2023 
 427   0.0000       1.735542        47.2265 
 428   0.0000       1.736280        47.2466 
 429   0.0000       1.737685        47.2848 
 430   0.0000       1.738128        47.2969 
 431   0.0000       1.739343        47.3299 
 432   0.0000       1.739991        47.3476 
 433   0.0000       1.743029        47.4302 
 434   0.0000       1.743763        47.4502 
 435   0.0000       1.748084        47.5678 
 436   0.0000       1.749703        47.6118 
 437   0.0000       1.750156        47.6242 
 438   0.0000       1.750515        47.6339 
 439   0.0000       1.753398        47.7124 
 440   0.0000       1.754088        47.7311 
 441   0.0000       1.755816        47.7782 
 442   0.0000       1.758615        47.8543 
 443   0.0000       1.760780        47.9133 
 444   0.0000       1.761443        47.9313 
 445   0.0000       1.763808        47.9957 
 446   0.0000       1.768803        48.1316 
 447   0.0000       1.772060        48.2202 
 448   0.0000       1.774283        48.2807 
 449   0.0000       1.775609        48.3168 
 450   0.0000       1.776104        48.3302 
 451   0.0000       1.785808        48.5943 
 452   0.0000       1.787023        48.6274 
 453   0.0000       1.788241        48.6605 
 454   0.0000       1.793909        48.8148 
 455   0.0000       1.797060        48.9005 
 456   0.0000       1.801369        49.0177 
 457   0.0000       1.801672        49.0260 
 458   0.0000       1.805976        49.1431 
 459   0.0000       1.810606        49.2691 
 460   0.0000       1.810794        49.2742 
 461   0.0000       1.816304        49.4241 
 462   0.0000       1.819536        49.5121 
 463   0.0000       1.820801        49.5465 
 464   0.0000       1.823432        49.6181 
 465   0.0000       1.828063        49.7441 
 466   0.0000       1.832045        49.8525 
 467   0.0000       1.833124        49.8818 
 468   0.0000       1.836578        49.9758 
 469   0.0000       1.837647        50.0049 
 470   0.0000       1.846517        50.2463 
 471   0.0000       1.848107        50.2895 
 472   0.0000       1.850954        50.3670 
 473   0.0000       1.856971        50.5308 
 474   0.0000       1.862791        50.6891 
 475   0.0000       1.877118        51.0790 
 476   0.0000       1.883880        51.2630 
 477   0.0000       1.884129        51.2698 
 478   0.0000       1.902093        51.7586 
 479   0.0000       1.903940        51.8088 
 480   0.0000       1.912174        52.0329 
 481   0.0000       1.916956        52.1630 
 482   0.0000       1.920783        52.2672 
 483   0.0000       1.933275        52.6071 
 484   0.0000       1.942298        52.8526 
 485   0.0000       1.951029        53.0902 
 486   0.0000       1.953537        53.1584 
 487   0.0000       1.970347        53.6159 
 488   0.0000       1.973296        53.6961 
 489   0.0000       1.995744        54.3070 
 490   0.0000       2.019526        54.9541 
 491   0.0000       2.020833        54.9897 
 492   0.0000       2.034343        55.3573 
 493   0.0000       2.037741        55.4497 
 494   0.0000       2.048808        55.7509 
 495   0.0000       2.057738        55.9939 
 496   0.0000       2.075436        56.4755 
 497   0.0000       2.081806        56.6488 
 498   0.0000       2.119149        57.6650 
 499   0.0000       2.119479        57.6740 
 500   0.0000       2.129079        57.9352 
 501   0.0000       2.134350        58.0786 
 502   0.0000       2.169019        59.0220 
 503   0.0000       2.173961        59.1565 
 504   0.0000       2.185849        59.4800 
 505   0.0000       2.220983        60.4360 
 506   0.0000       2.222242        60.4703 
 507   0.0000       2.302511        62.6545 
 508   0.0000       2.354026        64.0563 
 509   0.0000       2.456908        66.8559 
 510   0.0000       2.467728        67.1503 
 511   0.0000       2.490204        67.7619 
 512   0.0000       2.506616        68.2085 
 513   0.0000       2.549965        69.3881 
 514   0.0000       2.553738        69.4907 
 515   0.0000       2.566183        69.8294 
 516   0.0000       2.616096        71.1876 
 517   0.0000       2.649022        72.0836 
 518   0.0000       2.676128        72.8211 
 519   0.0000       2.686806        73.1117 
 520   0.0000       2.747653        74.7674 
 521   0.0000       2.770221        75.3815 
 522   0.0000       2.772919        75.4550 
 523   0.0000       2.790989        75.9467 
 524   0.0000       2.824340        76.8542 
 525   0.0000       2.862917        77.9039 
 526   0.0000       2.866879        78.0117 
 527   0.0000       3.001550        81.6763 
 528   0.0000       3.033127        82.5356 
 529   0.0000       3.047829        82.9356 
 530   0.0000       3.051672        83.0402 
 531   0.0000       3.069051        83.5131 
 532   0.0000       3.083423        83.9042 
 533   0.0000       3.094110        84.1950 
 534   0.0000       3.124713        85.0278 
 535   0.0000      23.850730       649.0114 
 536   0.0000      24.081001       655.2774 
 537   0.0000      24.121404       656.3768 
 538   0.0000      24.268884       660.3899 
 539   0.0000      24.331254       662.0871 
 540   0.0000      24.535648       667.6489 
 541   0.0000      24.560751       668.3320 
 542   0.0000      24.661298       671.0680 
 543   0.0000      24.795675       674.7246 
 544   0.0000      25.037861       681.3148 
 545   0.0000      25.116209       683.4468 
 546   0.0000      25.476418       693.2486 
 547   0.0000      25.523927       694.5414 
 548   0.0000      25.632550       697.4971 
 549   0.0000      25.748118       700.6419 
 550   0.0000      25.862533       703.7553 
 551   0.0000      25.919044       705.2930 
 552   0.0000      25.935169       705.7318 
 553   0.0000      25.976473       706.8558 
 554   0.0000      26.280155       715.1194 
 555   0.0000      26.396894       718.2960 
 556   0.0000      26.508986       721.3462 
 557   0.0000      26.518482       721.6046 
 558   0.0000      26.590088       723.5531 
 559   0.0000      26.682136       726.0578 
 560   0.0000      26.811702       729.5835 
 561   0.0000      26.849658       730.6163 
 562   0.0000      26.870315       731.1784 
 563   0.0000      26.937559       733.0082 
 564   0.0000      27.003694       734.8079 
 565   0.0000      27.141524       738.5584 
 566   0.0000      27.433615       746.5066 
 567   0.0000      27.662795       752.7429 
 568   0.0000      27.746760       755.0277 
 569   0.0000      27.788466       756.1626 
 570   0.0000      27.999066       761.8933 
 571   0.0000      28.078584       764.0571 
 572   0.0000      28.099977       764.6393 
 573   0.0000      28.240407       768.4605 
 574   0.0000      28.513292       775.8861 
 575   0.0000      28.616576       778.6966 
 576   0.0000      29.153777       793.3146 
 577   0.0000      44.147956      1201.3270 
 578   0.0000      44.201809      1202.7924 
 579   0.0000      44.219285      1203.2679 
 580   0.0000      44.242130      1203.8896 
 581   0.0000      44.261521      1204.4172 
 582   0.0000      44.317733      1205.9468 
 583   0.0000      44.320180      1206.0134 
 584   0.0000      44.340115      1206.5559 
 585   0.0000      44.394606      1208.0386 
 586   0.0000      44.396606      1208.0931 
 587   0.0000      44.405772      1208.3425 
 588   0.0000      44.421037      1208.7579 
 589   0.0000      44.459553      1209.8059 
 590   0.0000      44.498950      1210.8780 
 591   0.0000     202.690588      5515.4913 
 592   0.0000     202.714662      5516.1464 
 593   0.0000     202.718089      5516.2397 
 594   0.0000     202.726469      5516.4677 
 595   0.0000     202.733508      5516.6592 
 596   0.0000     202.760885      5517.4042 
 597   0.0000     202.761124      5517.4107 
 598   0.0000     202.772126      5517.7101 
 599   0.0000     202.789518      5518.1833 
 600   0.0000     202.792066      5518.2527 
 601   0.0000     202.799173      5518.4461 
 602   0.0000     202.800562      5518.4839 
 603   0.0000     202.815808      5518.8987 
 604   0.0000     202.829746      5519.2780 

                 SPIN DOWN ORBITALS
  NO   OCC          E(Eh)            E(eV) 
   0   1.0000    -217.761263     -5925.5852 
   1   1.0000     -25.376756      -690.5366 
   2   1.0000     -21.528397      -585.8175 
   3   1.0000     -21.525021      -585.7256 
   4   1.0000     -21.505332      -585.1898 
   5   1.0000      -4.405688      -119.8849 
   6   1.0000      -4.405385      -119.8766 
   7   1.0000      -4.404998      -119.8661 
   8   1.0000      -4.401669      -119.7755 
   9   1.0000      -4.393476      -119.5526 
  10   1.0000      -4.393400      -119.5505 
  11   1.0000      -4.392354      -119.5220 
  12   1.0000      -4.392209      -119.5181 
  13   1.0000      -4.391533      -119.4997 
  14   1.0000      -4.391194      -119.4905 
  15   1.0000      -4.390099      -119.4607 
  16   1.0000      -4.389618      -119.4476 
  17   1.0000      -4.381966      -119.2394 
  18   1.0000      -4.380427      -119.1975 
  19   1.0000      -3.020631       -82.1955 
  20   1.0000      -2.530158       -68.8491 
  21   1.0000      -2.526080       -68.7381 
  22   1.0000      -2.524828       -68.7041 
  23   1.0000      -2.522357       -68.6368 
  24   1.0000      -2.522124       -68.6305 
  25   1.0000      -2.520890       -68.5969 
  26   1.0000      -2.520598       -68.5889 
  27   1.0000      -2.520512       -68.5866 
  28   1.0000      -2.519664       -68.5635 
  29   1.0000      -2.518570       -68.5338 
  30   1.0000      -2.518079       -68.5204 
  31   1.0000      -2.517257       -68.4980 
  32   1.0000      -2.516710       -68.4832 
  33   1.0000      -2.515667       -68.4548 
  34   1.0000      -2.514463       -68.4220 
  35   1.0000      -2.512127       -68.3584 
  36   1.0000      -2.512015       -68.3554 
  37   1.0000      -2.511263       -68.3349 
  38   1.0000      -2.510541       -68.3153 
  39   1.0000      -2.508806       -68.2681 
  40   1.0000      -2.508531       -68.2606 
  41   1.0000      -2.508279       -68.2537 
  42   1.0000      -2.507988       -68.2458 
  43   1.0000      -2.507395       -68.2297 
  44   1.0000      -2.507161       -68.2233 
  45   1.0000      -2.506751       -68.2122 
  46   1.0000      -2.506424       -68.2033 
  47   1.0000      -2.506009       -68.1920 
  48   1.0000      -2.505999       -68.1917 
  49   1.0000      -2.505766       -68.1854 
  50   1.0000      -2.505577       -68.1802 
  51   1.0000      -2.505252       -68.1714 
  52   1.0000      -2.505168       -68.1691 
  53   1.0000      -2.504541       -68.1520 
  54   1.0000      -2.504409       -68.1484 
  55   1.0000      -2.503545       -68.1249 
  56   1.0000      -2.500765       -68.0493 
  57   1.0000      -2.500325       -68.0373 
  58   1.0000      -2.499803       -68.0231 
  59   1.0000      -2.496384       -67.9301 
  60   1.0000      -2.494945       -67.8909 
  61   1.0000      -2.491006       -67.7837 
  62   1.0000      -1.893120       -51.5144 
  63   1.0000      -1.886042       -51.3218 
  64   1.0000      -1.839543       -50.0565 
  65   1.0000      -0.500096       -13.6083 
  66   1.0000      -0.478331       -13.0160 
  67   1.0000      -0.476428       -12.9643 
  68   1.0000      -0.476187       -12.9577 
  69   1.0000      -0.467258       -12.7147 
  70   1.0000      -0.464291       -12.6340 
  71   1.0000      -0.460630       -12.5344 
  72   1.0000      -0.458046       -12.4641 
  73   1.0000      -0.456711       -12.4277 
  74   1.0000      -0.452407       -12.3106 
  75   1.0000      -0.451928       -12.2976 
  76   1.0000      -0.448921       -12.2158 
  77   1.0000      -0.447639       -12.1809 
  78   1.0000      -0.440156       -11.9773 
  79   1.0000      -0.437717       -11.9109 
  80   1.0000      -0.437046       -11.8926 
  81   1.0000      -0.432154       -11.7595 
  82   1.0000      -0.431614       -11.7448 
  83   1.0000      -0.428944       -11.6722 
  84   1.0000      -0.425888       -11.5890 
  85   1.0000      -0.421717       -11.4755 
  86   1.0000      -0.419818       -11.4238 
  87   1.0000      -0.419626       -11.4186 
  88   1.0000      -0.415517       -11.3068 
  89   1.0000      -0.413261       -11.2454 
  90   1.0000      -0.412695       -11.2300 
  91   1.0000      -0.408855       -11.1255 
  92   1.0000      -0.408665       -11.1203 
  93   1.0000      -0.405137       -11.0243 
  94   1.0000      -0.401198       -10.9172 
  95   1.0000      -0.400358       -10.8943 
  96   1.0000      -0.399787       -10.8788 
  97   1.0000      -0.392375       -10.6771 
  98   1.0000      -0.392031       -10.6677 
  99   1.0000      -0.390846       -10.6355 
 100   1.0000      -0.389488       -10.5985 
 101   1.0000      -0.386517       -10.5177 
 102   1.0000      -0.384904       -10.4738 
 103   1.0000      -0.382780       -10.4160 
 104   1.0000      -0.379910       -10.3379 
 105   1.0000      -0.378981       -10.3126 
 106   1.0000      -0.378748       -10.3063 
 107   1.0000      -0.372682       -10.1412 
 108   1.0000      -0.371808       -10.1174 
 109   1.0000      -0.371177       -10.1002 
 110   1.0000      -0.369482       -10.0541 
 111   1.0000      -0.368836       -10.0365 
 112   1.0000      -0.367371        -9.9967 
 113   1.0000      -0.366545        -9.9742 
 114   1.0000      -0.365662        -9.9502 
 115   1.0000      -0.362671        -9.8688 
 116   1.0000      -0.361928        -9.8486 
 117   1.0000      -0.361555        -9.8384 
 118   1.0000      -0.359418        -9.7803 
 119   1.0000      -0.359150        -9.7730 
 120   1.0000      -0.357484        -9.7276 
 121   1.0000      -0.354422        -9.6443 
 122   1.0000      -0.352364        -9.5883 
 123   1.0000      -0.349086        -9.4991 
 124   1.0000      -0.348565        -9.4849 
 125   1.0000      -0.347197        -9.4477 
 126   1.0000      -0.343643        -9.3510 
 127   1.0000      -0.342144        -9.3102 
 128   1.0000      -0.339662        -9.2427 
 129   1.0000      -0.336091        -9.1455 
 130   1.0000      -0.332807        -9.0561 
 131   1.0000      -0.330476        -8.9927 
 132   1.0000      -0.327135        -8.9018 
 133   1.0000      -0.326859        -8.8943 
 134   1.0000      -0.324488        -8.8298 
 135   1.0000      -0.322650        -8.7798 
 136   1.0000      -0.316813        -8.6209 
 137   1.0000      -0.311329        -8.4717 
 138   1.0000      -0.309418        -8.4197 
 139   1.0000      -0.253676        -6.9029 
 140   1.0000      -0.238662        -6.4943 
[...]
      f-3     :     0.000015
  4 Aus       :    -0.097923  s :    -0.097923
      pz      :    -0.016602  p :    -0.090457
      px      :    -0.045842
      py      :    -0.028013
      dz2     :     0.000514  d :    -0.011504
      dxz     :    -0.014694
      dyz     :     0.003854
      dx2y2   :    -0.002668
      dxy     :     0.001489
      f0      :    -0.000000  f :     0.000102
      f+1     :    -0.000002
      f-1     :     0.000004
      f+2     :     0.000036
      f-2     :     0.000048
      f+3     :     0.000022
      f-3     :    -0.000006
  5 Aus       :    -0.041645  s :    -0.041645
      pz      :     0.000951  p :    -0.002740
      px      :    -0.007516
      py      :     0.003826
      dz2     :    -0.001046  d :     0.003595
      dxz     :     0.001282
      dyz     :     0.002640
      dx2y2   :    -0.001569
      dxy     :     0.002288
      f0      :     0.000014  f :     0.000086
      f+1     :     0.000009
      f-1     :     0.000031
      f+2     :     0.000013
      f-2     :     0.000013
      f+3     :    -0.000005
      f-3     :     0.000011
  6 Aus       :    -0.095635  s :    -0.095635
      pz      :    -0.043580  p :    -0.098926
      px      :    -0.053821
      py      :    -0.001525
      dz2     :    -0.001300  d :    -0.004726
      dxz     :    -0.004816
      dyz     :     0.005696
      dx2y2   :    -0.000760
      dxy     :    -0.003547
      f0      :     0.000028  f :     0.000118
      f+1     :    -0.000044
      f-1     :     0.000016
      f+2     :    -0.000009
      f-2     :    -0.000006
      f+3     :     0.000030
      f-3     :     0.000103
  7 Aus       :    -0.029869  s :    -0.029869
      pz      :    -0.052077  p :    -0.081112
      px      :    -0.004689
      py      :    -0.024345
      dz2     :     0.002300  d :     0.006152
      dxz     :     0.001971
      dyz     :    -0.001454
      dx2y2   :     0.000878
      dxy     :     0.002458
      f0      :     0.000011  f :     0.000206
      f+1     :     0.000057
      f-1     :    -0.000032
      f+2     :     0.000050
      f-2     :    -0.000013
      f+3     :     0.000072
      f-3     :     0.000061
  8 Aus       :    -0.030754  s :    -0.030754
      pz      :    -0.024233  p :    -0.030902
      px      :    -0.013750
      py      :     0.007081
      dz2     :    -0.000544  d :    -0.003981
      dxz     :     0.003278
      dyz     :     0.002651
      dx2y2   :    -0.011634
      dxy     :     0.002268
      f0      :     0.000021  f :     0.000078
      f+1     :     0.000016
      f-1     :    -0.000014
      f+2     :     0.000002
      f-2     :     0.000026
      f+3     :     0.000019
      f-3     :     0.000008
  9 Aus       :    -0.026407  s :    -0.026407
      pz      :    -0.010876  p :    -0.024218
      px      :    -0.002000
      py      :    -0.011342
      dz2     :    -0.001819  d :    -0.013384
      dxz     :    -0.004315
      dyz     :    -0.001580
      dx2y2   :     0.000823
      dxy     :    -0.006494
      f0      :    -0.000002  f :    -0.000037
      f+1     :    -0.000009
      f-1     :    -0.000002
      f+2     :     0.000010
      f-2     :    -0.000010
      f+3     :     0.000000
      f-3     :    -0.000025
 10 Aus       :    -0.063885  s :    -0.063885
      pz      :    -0.024422  p :    -0.056624
      px      :     0.000677
      py      :    -0.032879
      dz2     :    -0.002403  d :    -0.016209
      dxz     :     0.000273
      dyz     :    -0.006235
      dx2y2   :    -0.004825
      dxy     :    -0.003019
      f0      :    -0.000009  f :    -0.000073
      f+1     :    -0.000030
      f-1     :    -0.000009
      f+2     :    -0.000001
      f-2     :    -0.000003
      f+3     :    -0.000021
      f-3     :    -0.000002
 11 Aus       :    -0.032420  s :    -0.032420
      pz      :    -0.009404  p :    -0.030493
      px      :    -0.018023
      py      :    -0.003066
      dz2     :    -0.001357  d :    -0.003665
      dxz     :     0.006174
      dyz     :     0.001634
      dx2y2   :    -0.002471
      dxy     :    -0.007645
      f0      :     0.000015  f :     0.000086
      f+1     :     0.000017
      f-1     :     0.000076
      f+2     :    -0.000024
      f-2     :     0.000021
      f+3     :    -0.000021
      f-3     :     0.000002
 12 Aus       :    -0.025420  s :    -0.025420
      pz      :    -0.004855  p :    -0.024583
      px      :    -0.007874
      py      :    -0.011854
      dz2     :    -0.003241  d :    -0.013273
      dxz     :    -0.006162
      dyz     :    -0.003955
      dx2y2   :    -0.000367
      dxy     :     0.000451
      f0      :    -0.000011  f :    -0.000036
      f+1     :    -0.000012
      f-1     :    -0.000011
      f+2     :    -0.000006
      f-2     :     0.000006
      f+3     :    -0.000003
      f-3     :     0.000001
 13 Aus       :    -0.066231  s :    -0.066231
      pz      :     0.001664  p :    -0.056512
      px      :    -0.019133
      py      :    -0.039043
      dz2     :    -0.001862  d :    -0.016409
      dxz     :     0.000354
      dyz     :    -0.002547
      dx2y2   :    -0.003365
      dxy     :    -0.008989
      f0      :    -0.000018  f :    -0.000074
      f+1     :    -0.000003
      f-1     :    -0.000007
      f+2     :    -0.000000
      f-2     :    -0.000012
      f+3     :    -0.000032
      f-3     :    -0.000001
 14 Crs       :     0.012504  s :     0.012504
      pz      :     0.015614  p :     0.038527
      px      :     0.017164
      py      :     0.005749
      dz2     :     0.770042  d :     3.517550
      dxz     :     0.793954
      dyz     :     0.832643
      dx2y2   :     0.342538
      dxy     :     0.778374
      f0      :     0.000005  f :     0.000075
      f+1     :     0.000000
      f-1     :     0.000004
      f+2     :     0.000013
      f-2     :     0.000008
      f+3     :     0.000029
      f-3     :     0.000014


                      *****************************
                      * MAYER POPULATION ANALYSIS *
                      *****************************

  NA   - Mulliken gross atomic population
  ZA   - Total nuclear charge
  QA   - Mulliken gross atomic charge
  VA   - Mayer's total valence
  BVA  - Mayer's bonded valence
  FA   - Mayer's free valence

  ATOM       NA         ZA         QA         VA         BVA        FA
  0 Au    18.6543    19.0000     0.3457     1.4950     1.3557     0.1393
  1 Au    19.1555    19.0000    -0.1555     1.9071     1.8929     0.0142
  2 Au    18.6702    19.0000     0.3298     1.4884     1.4816     0.0068
  3 Au    19.0771    19.0000    -0.0771     2.0366     2.0288     0.0079
  4 Au    18.5683    19.0000     0.4317     1.3051     1.2572     0.0479
  5 Au    19.1522    19.0000    -0.1522     1.9037     1.8899     0.0138
  6 Au    18.9034    19.0000     0.0966     1.4764     1.4443     0.0321
  7 Au    18.6704    19.0000     0.3296     1.4897     1.4828     0.0069
  8 Au    19.2912    19.0000    -0.2912     2.0478     2.0347     0.0131
  9 Au    18.5052    19.0000     0.4948     1.1515     1.1477     0.0038
 10 Au    18.8993    19.0000     0.1007     1.6758     1.6475     0.0283
 11 Au    19.3224    19.0000    -0.3224     2.0756     2.0612     0.0144
 12 Au    18.5087    19.0000     0.4913     1.1515     1.1480     0.0035
 13 Au    18.8710    19.0000     0.1290     1.6496     1.6197     0.0299
 14 Cr    25.7508    24.0000    -1.7508     8.4442     4.6943     3.7499

  Mayer bond orders larger than 0.100000
B(  0-Au,  6-Au) :   0.2667 B(  0-Au,  8-Au) :   0.2091 B(  0-Au, 11-Au) :   0.2070 
B(  0-Au, 14-Cr) :   0.5192 B(  1-Au,  2-Au) :   0.4685 B(  1-Au,  3-Au) :   0.1575 
B(  1-Au,  8-Au) :   0.3213 B(  1-Au,  9-Au) :   0.3390 B(  1-Au, 10-Au) :   0.1725 
B(  1-Au, 14-Cr) :   0.3302 B(  2-Au,  3-Au) :   0.1711 B(  2-Au,  4-Au) :   0.1626 
B(  2-Au, 14-Cr) :   0.4747 B(  3-Au,  5-Au) :   0.1581 B(  3-Au,  7-Au) :   0.1748 
B(  3-Au, 10-Au) :   0.2815 B(  3-Au, 13-Au) :   0.2705 B(  3-Au, 14-Cr) :   0.6252 
B(  4-Au,  6-Au) :   0.3571 B(  4-Au,  7-Au) :   0.1631 B(  4-Au, 14-Cr) :   0.4047 
B(  5-Au,  7-Au) :   0.4679 B(  5-Au, 11-Au) :   0.3211 B(  5-Au, 12-Au) :   0.3407 
B(  5-Au, 13-Au) :   0.1700 B(  5-Au, 14-Cr) :   0.3276 B(  6-Au, 14-Cr) :   0.6342 
B(  7-Au, 14-Cr) :   0.4722 B(  8-Au,  9-Au) :   0.3956 B(  8-Au, 10-Au) :   0.2622 
B(  8-Au, 11-Au) :   0.3428 B(  8-Au, 14-Cr) :   0.3332 B(  9-Au, 10-Au) :   0.2321 
B( 10-Au, 13-Au) :   0.4848 B( 10-Au, 14-Cr) :   0.1274 B( 11-Au, 12-Au) :   0.3960 
B( 11-Au, 13-Au) :   0.2656 B( 11-Au, 14-Cr) :   0.3450 B( 12-Au, 13-Au) :   0.2285 
B( 13-Au, 14-Cr) :   0.1189 

-------
TIMINGS
-------

Total SCF time: 0 days 0 hours 53 min 46 sec 

Total time                  ....    3226.176 sec
Sum of individual times     ....    3187.271 sec  ( 98.8%)

Fock matrix formation       ....    2459.676 sec  ( 76.2%)
  Split-RI-J                ....     246.740 sec  ( 10.0% of F)
  Chain of spheres X        ....    1761.823 sec  ( 71.6% of F)
  XC integration            ....     264.381 sec  ( 10.7% of F)
    Basis function eval.    ....      34.253 sec  ( 13.0% of XC)
    Density eval.           ....     106.558 sec  ( 40.3% of XC)
    XC-Functional eval.     ....       5.291 sec  (  2.0% of XC)
    XC-Potential eval.      ....      71.902 sec  ( 27.2% of XC)
Diagonalization             ....     296.188 sec  (  9.2%)
Density matrix formation    ....      12.868 sec  (  0.4%)
Population analysis         ....       3.057 sec  (  0.1%)
Initial guess               ....       0.684 sec  (  0.0%)
Orbital Transformation      ....       0.000 sec  (  0.0%)
Orbital Orthonormalization  ....       0.407 sec  (  0.0%)
DIIS solution               ....     403.113 sec  ( 12.5%)
Grid generation             ....      11.685 sec  (  0.4%)

Maximum memory used throughout the entire SCF-calculation: 145.7 MB


           ************************************************************
           *        Program running with 6 parallel MPI-processes     *
           *              working on a common directory               *
           ************************************************************

------------------------------------------------------------------------------
                                ORCA  MP2 
------------------------------------------------------------------------------

Freezing NCore=10 chemical core electrons

   <<< Use J-auxbasis for calculation of Separable RI-J derivative contributions (Dim=1335) >>> 


-------------
RI-MP2 ENERGY
-------------
Dimension of the basis                    ...  605
Memory devoted to MP2                     ...  256 MB   
Data format for buffers                   ... DOUBLE
Compression type for matrix containers    ... UNCOMPRESSED
Overall scaling of the MP2 energy         ...   2.700e-01
Calculating two index integrals           ... done (    0.106 sec)
Cholesky decomposition of V**-1           ... done (   16.238 sec)

-----------------
RI-TRANSFORMATION (AUX index driven)
-----------------

Dimension of the orbital-basis         ... 605
Dimension of the aux-basis             ... 2296
Transformation of internal/external MOs...    5- 145 to  146- 604
Number Format for Storage              ... Double (8 Byte)
Integral mode                          ... Direct

First Phase: integral generation and transformation of MO indices
  Aux angular momentum 0               ... done (    0.439 sec)
  Aux angular momentum 1               ... done (    1.021 sec)
  Aux angular momentum 2               ... done (    1.419 sec)
  Aux angular momentum 3               ... done (    1.569 sec)
  Aux angular momentum 4               ... done (    1.263 sec)
  Aux angular momentum 5               ... done (    1.129 sec)
Closing buffer VIA ( 1.11 GB; CompressionRatio= 1.00)
  Phase 1 completed in     7.132 sec
Second Phase: sorting and transformation of aux index

IA-Transformation
Memory available                       ... 164 MB 
Max. # MO pairs treated in a batch     ... 19    
# of internal orbitals                 ... 141
# batches for internal orbitals        ... 2
Closing buffer IAV ( 1.11 GB; CompressionRatio= 1.00)
(ia|v) transformation done in     6.864 sec

  Phase 2 completed in     7.192 sec
RI-Integral transformation completed in    14.428 sec

-----------------
RI-TRANSFORMATION (AUX index driven)
-----------------

Dimension of the orbital-basis         ... 605
Dimension of the aux-basis             ... 2296
Transformation of internal/external MOs...    5- 143 to  144- 604
Number Format for Storage              ... Double (8 Byte)
Integral mode                          ... Direct

First Phase: integral generation and transformation of MO indices
  Aux angular momentum 0               ... done (    0.528 sec)
  Aux angular momentum 1               ... done (    0.926 sec)
  Aux angular momentum 2               ... done (    1.380 sec)
  Aux angular momentum 3               ... done (    1.522 sec)
  Aux angular momentum 4               ... done (    1.292 sec)
  Aux angular momentum 5               ... done (    1.033 sec)
Closing buffer VIA ( 1.10 GB; CompressionRatio= 1.00)
  Phase 1 completed in     7.428 sec
Second Phase: sorting and transformation of aux index

IA-Transformation
Memory available                       ... 164 MB 
Max. # MO pairs treated in a batch     ... 19    
# of internal orbitals                 ... 139
# batches for internal orbitals        ... 2
Closing buffer IAV ( 1.10 GB; CompressionRatio= 1.00)
(ia|v) transformation done in     6.640 sec

  Phase 2 completed in    12.286 sec
RI-Integral transformation completed in    19.801 sec
Opening buffers                              ... done

Starting loop over batches of integrals:

Operator 0  - window                       ... (  5-145)x(146-604)
Operator 0  - Memory available             ...   256 MB
Operator 0  - Memory needed per MO         ...   8.0 MB
Operator 0  - Number of orbitals per batch ... 22
Operator 0  - Number of batches            ... 2

OPERATOR  0   PASS   0:  MOs     5 ...   26 +   27 ...   48 +   49 ...   70 +   71 ...   92
                            +   93 ...  114 +  115 ...  136
  Reading integrals       ... ok
  Internal MO   7
  Internal MO  10
  Internal MO  13
  Internal MO  16
  Internal MO  19
  Internal MO  22
  Internal MO  25
OPERATOR  0   PASS   1:  MOs   137 ...  138 +  139 ...  140 +  141 ...  142 +  143 ...  143
                            +  144 ...  144 +  145 ...  145
  Reading integrals       ... ok
  Internal MO 145

Operator 1  - window                       ... (  5-143)x(144-604)
Operator 1  - Memory available             ...   256 MB
Operator 1  - Memory needed per MO         ...   8.1 MB
Operator 1  - Number of orbitals per batch ... 22
Operator 1  - Number of batches            ... 2

OPERATOR  1   PASS   0:  MOs     5 ...   26 +   27 ...   48 +   49 ...   70 +   71 ...   92
                            +   93 ...  114 +  115 ...  136
  Reading integrals       ... ok
  Internal MO   7
  Internal MO  10
  Internal MO  13
  Internal MO  16
  Internal MO  19
  Internal MO  22
  Internal MO  25
OPERATOR  1   PASS   1:  MOs   137 ...  138 +  139 ...  139 +  140 ...  140 +  141 ...  141
                            +  142 ...  142 +  143 ...  143
  Reading integrals       ... ok
Time spent in pair loops =   654.213 sec
Deleting buffer (Ka|jb)[aa] ...done
Deleting buffer (Ka|jb)[ba] ...done
Deleting buffer (Ka|jb)[ab] ...done
Deleting buffer (Ka|jb)[bb] ...done

Correlation energy components}
 E2 and T2 for alpha/alpha pairs :     -0.414337554 Eh      0.000000000
 E2 and T2 for beta/beta   pairs :     -0.409555340 Eh      0.000000000
 E2 and T2 for alpha/beta  pairs :     -1.409961822 Eh      0.000000000


-----------------------------------------------
 RI-MP2 CORRELATION ENERGY:     -2.233854716 Eh
-----------------------------------------------


-------
TIMINGS
-------

Total time                :  718.928 sec
Integral trafo            :   34.256 sec (  4.8%)
I/O of integrals          :    0.449 sec (  0.1%)
K(i,j) Operators          :  351.945 sec ( 49.0%)
T(i,j) pair energies      :    8.859 sec (  1.2%)
V-calculation             :    0.106 sec (  0.0%)
V**(-1/2)                 :   16.238 sec (  2.3%)
Gamma(ia|P)               :    0.000 sec (  0.0%)
Gamma-Trafo               :    0.000 sec (  0.0%)
D(virtual)                :    0.000 sec (  0.0%)
D(internal)               :    0.000 sec (  0.0%)
W(virtual)                :    0.000 sec (  0.0%)
W(internal)               :    0.000 sec (  0.0%)
L(virtual)                :    0.000 sec (  0.0%)
L(internal)               :    0.000 sec (  0.0%)
G(D)                      :    0.000 sec (  0.0%)
G(Z)                      :    0.000 sec (  0.0%)
Z-Vector Solution         :    0.000 sec (  0.0%)
3-Index Derivative        :    0.000 sec (  0.0%)
2-Index Derivative        :    0.000 sec (  0.0%)
Separable Gradient (RIJ)  :    0.000 sec (  0.0%)
Separable Gradient (COSX) :    0.000 sec (  0.0%)


---------------------------------------
MP2 TOTAL ENERGY:    -2942.470146172 Eh
---------------------------------------

Maximum memory used throughout the entire MP2-calculation: 299.7 MB

-------------------------   --------------------
FINAL SINGLE POINT ENERGY     -2942.470146171713
-------------------------   --------------------


                            ***************************************
                            *     ORCA property calculations      *
                            ***************************************


  WARNING: The energy has been calculated at the MP2 level but the densities
           used in the property calculations are still SCF densities
           MP2 response densities have not been calculated 
           use %mp2 Density relaxed end
           or  %mp2 Density unrelaxed end

                                    ---------------------
                                    Active property flags
                                    ---------------------
   (+) Dipole Moment


------------------------------------------------------------------------------
                       ORCA ELECTRIC PROPERTIES CALCULATION
------------------------------------------------------------------------------

Dipole Moment Calculation                       ... on
Quadrupole Moment Calculation                   ... off
Polarizability Calculation                      ... off
GBWName                                         ... b2plyp_job2.gbw
Electron density                                ... b2plyp_job2.scfp
The origin for moment calculation is the CENTER OF MASS  = (13.178718, 13.950481 13.446424)

-------------
DIPOLE MOMENT
-------------
                                X             Y             Z
Electronic contribution:     -1.25412     -42.34099     -12.34938
Nuclear contribution   :      1.40664      42.41624      12.25690
                        -----------------------------------------
Total Dipole Moment    :      0.15252       0.07526      -0.09248
                        -----------------------------------------
Magnitude (a.u.)       :      0.19360
Magnitude (Debye)      :      0.49208



--------------------
Rotational spectrum 
--------------------
 
Rotational constants in cm-1:     0.001018     0.000908     0.000738 
Rotational constants in MHz :    30.524801    27.224677    22.131307 

 Dipole components along the rotational axes: 
x,y,z [a.u.] :     0.008711     0.008963    -0.193193 
x,y,z [Debye]:     0.022142     0.022782    -0.491057 

 

Timings for individual modules:

Sum of individual times         ...     3976.990 sec (=  66.283 min)
GTO integral calculation        ...       29.093 sec (=   0.485 min)   0.7 %
SCF iterations                  ...     3227.409 sec (=  53.790 min)  81.2 %
MP2 module                      ...      720.487 sec (=  12.008 min)  18.1 %



                             ****ORCA TERMINATED NORMALLY****
TOTAL RUN TIME: 0 days 1 hours 55 minutes 44 seconds 90 msec
