
                                 *****************
                                 * O   R   C   A *
                                 *****************

                                            #,                                       
                                            ###                                      
                                            ####                                     
                                            #####                                    
                                            ######                                   
                                           ########,                                 
                                     ,,################,,,,,                         
                               ,,#################################,,                 
                          ,,##########################################,,             
                       ,#########################################, ''#####,          
                    ,#############################################,,   '####,        
                  ,##################################################,,,,####,       
                ,###########''''           ''''###############################       
              ,#####''   ,,,,##########,,,,          '''####'''          '####       
            ,##' ,,,,###########################,,,                        '##       
           ' ,,###''''                  '''############,,,                           
         ,,##''                                '''############,,,,        ,,,,,,###''
      ,#''                                            '''#######################'''  
     '                                                          ''''####''''         
             ,#######,   #######,   ,#######,      ##                                
            ,#'     '#,  ##    ##  ,#'     '#,    #''#        ######   ,####,        
            ##       ##  ##   ,#'  ##            #'  '#       #        #'  '#        
            ##       ##  #######   ##           ,######,      #####,   #    #        
            '#,     ,#'  ##    ##  '#,     ,#' ,#      #,         ##   #,  ,#        
             '#######'   ##     ##  '#######'  #'      '#     #####' # '####'        



                  #######################################################
                  #                        -***-                        #
                  #          Department of theory and spectroscopy      #
                  #    Directorship and core code : Frank Neese         #
                  #        Max Planck Institute fuer Kohlenforschung    #
                  #                Kaiser Wilhelm Platz 1               #
                  #                 D-45470 Muelheim/Ruhr               #
                  #                      Germany                        #
                  #                                                     #
                  #                  All rights reserved                #
                  #                        -***-                        #
                  #######################################################


                         Program Version 5.0.3 -  RELEASE  -


 With contributions from (in alphabetic order):
   Daniel Aravena         : Magnetic Suceptibility
   Michael Atanasov       : Ab Initio Ligand Field Theory (pilot matlab implementation)
   Alexander A. Auer      : GIAO ZORA, VPT2 properties, NMR spectrum
   Ute Becker             : Parallelization
   Giovanni Bistoni       : ED, misc. LED, open-shell LED, HFLD
   Martin Brehm           : Molecular dynamics
   Dmytro Bykov           : SCF Hessian
   Vijay G. Chilkuri      : MRCI spin determinant printing, contributions to CSF-ICE
   Dipayan Datta          : RHF DLPNO-CCSD density
   Achintya Kumar Dutta   : EOM-CC, STEOM-CC
   Dmitry Ganyushin       : Spin-Orbit,Spin-Spin,Magnetic field MRCI
   Miquel Garcia          : C-PCM and meta-GGA Hessian, CC/C-PCM, Gaussian charge scheme
   Yang Guo               : DLPNO-NEVPT2, F12-NEVPT2, CIM, IAO-localization
   Andreas Hansen         : Spin unrestricted coupled pair/coupled cluster methods
   Benjamin Helmich-Paris : MC-RPA, TRAH-SCF, COSX integrals
   Lee Huntington         : MR-EOM, pCC
   Robert Izsak           : Overlap fitted RIJCOSX, COSX-SCS-MP3, EOM
   Marcus Kettner         : VPT2
   Christian Kollmar      : KDIIS, OOCD, Brueckner-CCSD(T), CCSD density, CASPT2, CASPT2-K
   Simone Kossmann        : Meta GGA functionals, TD-DFT gradient, OOMP2, MP2 Hessian
   Martin Krupicka        : Initial AUTO-CI
   Lucas Lang             : DCDCAS
   Marvin Lechner         : AUTO-CI (C++ implementation), FIC-MRCC
   Dagmar Lenk            : GEPOL surface, SMD
   Dimitrios Liakos       : Extrapolation schemes; Compound Job, initial MDCI parallelization
   Dimitrios Manganas     : Further ROCIS development; embedding schemes
   Dimitrios Pantazis     : SARC Basis sets
   Anastasios Papadopoulos: AUTO-CI, single reference methods and gradients
   Taras Petrenko         : DFT Hessian,TD-DFT gradient, ASA, ECA, R-Raman, ABS, FL, XAS/XES, NRVS
   Peter Pinski           : DLPNO-MP2, DLPNO-MP2 Gradient
   Christoph Reimann      : Effective Core Potentials
   Marius Retegan         : Local ZFS, SOC
   Christoph Riplinger    : Optimizer, TS searches, QM/MM, DLPNO-CCSD(T), (RO)-DLPNO pert. Triples
   Tobias Risthaus        : Range-separated hybrids, TD-DFT gradient, RPA, STAB
   Michael Roemelt        : Original ROCIS implementation
   Masaaki Saitow         : Open-shell DLPNO-CCSD energy and density
   Barbara Sandhoefer     : DKH picture change effects
   Avijit Sen             : IP-ROCIS
   Kantharuban Sivalingam : CASSCF convergence, NEVPT2, FIC-MRCI
   Bernardo de Souza      : ESD, SOC TD-DFT
   Georgi Stoychev        : AutoAux, RI-MP2 NMR, DLPNO-MP2 response
   Willem Van den Heuvel  : Paramagnetic NMR
   Boris Wezisla          : Elementary symmetry handling
   Frank Wennmohs         : Technical directorship


 We gratefully acknowledge several colleagues who have allowed us to
 interface, adapt or use parts of their codes:
   Stefan Grimme, W. Hujo, H. Kruse, P. Pracht,  : VdW corrections, initial TS optimization,
                  C. Bannwarth, S. Ehlert          DFT functionals, gCP, sTDA/sTD-DF
   Ed Valeev, F. Pavosevic, A. Kumar             : LibInt (2-el integral package), F12 methods
   Garnet Chan, S. Sharma, J. Yang, R. Olivares  : DMRG
   Ulf Ekstrom                                   : XCFun DFT Library
   Mihaly Kallay                                 : mrcc  (arbitrary order and MRCC methods)
   Jiri Pittner, Ondrej Demel                    : Mk-CCSD
   Frank Weinhold                                : gennbo (NPA and NBO analysis)
   Christopher J. Cramer and Donald G. Truhlar   : smd solvation model
   Lars Goerigk                                  : TD-DFT with DH, B97 family of functionals
   V. Asgeirsson, H. Jonsson                     : NEB implementation
   FAccTs GmbH                                   : IRC, NEB, NEB-TS, DLPNO-Multilevel, CI-OPT
                                                   MM, QMMM, 2- and 3-layer-ONIOM, Crystal-QMMM,
                                                   LR-CPCM, SF, NACMEs, symmetry and pop. for TD-DFT,
                                                   nearIR, NL-DFT gradient (VV10), updates on ESD,
                                                   ML-optimized integration grids
   S Lehtola, MJT Oliveira, MAL Marques          : LibXC Library
   Liviu Ungur et al                             : ANISO software


 Your calculation uses the libint2 library for the computation of 2-el integrals
 For citations please refer to: http://libint.valeyev.net

 Your ORCA version has been built with support for libXC version: 5.1.0
 For citations please refer to: https://tddft.org/programs/libxc/

 This ORCA versions uses:
   CBLAS   interface :  Fast vector & matrix operations
   LAPACKE interface :  Fast linear algebra routines
   SCALAPACK package :  Parallel linear algebra routines
   Shared memory     :  Shared parallel matrices
   BLAS/LAPACK       :  OpenBLAS 0.3.15  USE64BITINT DYNAMIC_ARCH NO_AFFINITY Sandybridge SINGLE_THREADED
        Core in use  :  Sandybridge
   Copyright (c) 2011-2014, The OpenBLAS Project




***************************************
The coordinates will be read from file: pbe.xyz
***************************************


================================================================================

cite the ECPs for Au [Def2-ECP] as follows:
Ce-Yb(ecp-28): M. Dolg, H. Stoll, H.Preuss, J. Chem. Phys., 1989, 90, 1730-1734.
Y-Cd(ecp-28), Hf-Hg(ecp-46): D. Andrae,U. Haeussermann, M. Dolg, H. Stoll, H. Preuss, Theor. Chim. Acta, 1990, 77, 123-141.
In-Sb(ecp-28), Tl-Bi(ecp-46): B. Metz, H. Stoll, M. Dolg, J. Chem. Phys., 2000, 113, 2563-2569.
Te-Xe(ecp-28), Po-Rn(ecp-46): K. A. Peterson, D. Figgen, E. Goll, H. Stoll, M. Dolg, J. Chem. Phys., 2003, 119, 11113-11123.
Rb(ecp-28), Cs(ecp-46): T. Leininger, A. Nicklass, W. Kuechle, H. Stoll, M. Dolg, A. Bergner, Chem. Phys. Lett., 1996, 255, 274-280.
Sr(ecp-28), Ba(ecp-46): M. Kaupp, P. V. Schleyer, H. Stoll and H. Preuss, J. Chem. Phys., 1991, 94, 1360-1366.
La(ecp-46): M. Dolg, H. Stoll, A. Savin, H. Preuss, Theor. Chim. Acta, 1989, 75, 173-194.
Lu(ecp-28): X. Cao, M. Dolg, J. Chem. Phys., 2001, 115, 7348-7355.

ECP parameters for Au [Def2-ECP] have been obtained from:
TURBOMOLE (7.0.2)

----- Orbital basis set information -----
Your calculation utilizes the basis: def2-TZVP
   F. Weigend and R. Ahlrichs, Phys. Chem. Chem. Phys. 7, 3297 (2005).

----- AuxJ basis set information -----
Your calculation utilizes the auxiliary basis: def2/J
   F. Weigend, Phys. Chem. Chem. Phys. 8, 1057 (2006).

----- AuxC basis set information -----
Your calculation utilizes the auxiliary basis: def2-TZVP/C
  H-La, Hf-Rn : A. Hellweg, C. Hattig, S. Hofener and W. Klopper, Theor. Chem. Acc. 117, 587 (2007).
        Ce-Lu : J. Chmela and M. E. Harding, Mol. Phys. (2018).

================================================================================
                                        WARNINGS
                       Please study these warnings very carefully!
================================================================================


WARNING: your system is open-shell and RHF/RKS was chosen
  ===> : WILL SWITCH to UHF/UKS


WARNING: No MP2 level density has been requested!
         To caclulate MP2 level properties use
         %mp2 Density relaxed end
         or
         %mp2 Density unrelaxed end
         Otherwise for double-hybrid DFT only the energy is correct!

WARNING: The frozen-core approximation is turned on by default for 
         the MP2 part of double-hybrid DFT.

INFO   : the flag for use of the SHARK integral package has been found!



***************************************
The coordinates will be read from file: pbe.xyz
***************************************


================================================================================

cite the ECPs for Au [Def2-ECP] as follows:
Ce-Yb(ecp-28): M. Dolg, H. Stoll, H.Preuss, J. Chem. Phys., 1989, 90, 1730-1734.
Y-Cd(ecp-28), Hf-Hg(ecp-46): D. Andrae,U. Haeussermann, M. Dolg, H. Stoll, H. Preuss, Theor. Chim. Acta, 1990, 77, 123-141.
In-Sb(ecp-28), Tl-Bi(ecp-46): B. Metz, H. Stoll, M. Dolg, J. Chem. Phys., 2000, 113, 2563-2569.
Te-Xe(ecp-28), Po-Rn(ecp-46): K. A. Peterson, D. Figgen, E. Goll, H. Stoll, M. Dolg, J. Chem. Phys., 2003, 119, 11113-11123.
Rb(ecp-28), Cs(ecp-46): T. Leininger, A. Nicklass, W. Kuechle, H. Stoll, M. Dolg, A. Bergner, Chem. Phys. Lett., 1996, 255, 274-280.
Sr(ecp-28), Ba(ecp-46): M. Kaupp, P. V. Schleyer, H. Stoll and H. Preuss, J. Chem. Phys., 1991, 94, 1360-1366.
La(ecp-46): M. Dolg, H. Stoll, A. Savin, H. Preuss, Theor. Chim. Acta, 1989, 75, 173-194.
Lu(ecp-28): X. Cao, M. Dolg, J. Chem. Phys., 2001, 115, 7348-7355.

ECP parameters for Au [Def2-ECP] have been obtained from:
TURBOMOLE (7.0.2)

----- Orbital basis set information -----
Your calculation utilizes the basis: def2-TZVP
   F. Weigend and R. Ahlrichs, Phys. Chem. Chem. Phys. 7, 3297 (2005).

----- AuxJ basis set information -----
Your calculation utilizes the auxiliary basis: def2/J
   F. Weigend, Phys. Chem. Chem. Phys. 8, 1057 (2006).

----- AuxC basis set information -----
Your calculation utilizes the auxiliary basis: def2-TZVP/C
  H-La, Hf-Rn : A. Hellweg, C. Hattig, S. Hofener and W. Klopper, Theor. Chem. Acc. 117, 587 (2007).
        Ce-Lu : J. Chmela and M. E. Harding, Mol. Phys. (2018).

================================================================================
                                        WARNINGS
                       Please study these warnings very carefully!
================================================================================


WARNING: No MP2 level density has been requested!
         To caclulate MP2 level properties use
         %mp2 Density relaxed end
         or
         %mp2 Density unrelaxed end
         Otherwise for double-hybrid DFT only the energy is correct!

WARNING: The frozen-core approximation is turned on by default for 
         the MP2 part of double-hybrid DFT.

INFO   : the flag for use of the SHARK integral package has been found!

================================================================================
                                       INPUT FILE
================================================================================
NAME = b2plyp.inp
|  1> !RI-B2PLYP def2-TZVP def2-TZVP/C
|  2> !RIJCOSX VERYSLOWCONV
|  3> 
|  4> %scf
|  5>   AutoTRAHIter 200
|  6>   maxiter 400
|  7> end
|  8> 
|  9> 
| 10> %pal nprocs 6 end 
| 11> 
| 12> *xyzfile 0 6 pbe.xyz
| 13> 
| 14> $new_job
| 15> 
| 16> !RI-B2PLYP def2-TZVP def2-TZVP/C
| 17> !RIJCOSX VERYSLOWCONV
| 18> 
| 19> %scf
| 20>   AutoTRAHIter 200
| 21>   maxiter 400
| 22> end
| 23> 
| 24> 
| 25> %pal nprocs 6 end 
| 26> 
| 27> *xyzfile 0 4 pbe.xyz
| 28> 
| 29> 
| 30> 
| 31> 
| 32> 
| 33>                          ****END OF INPUT****
================================================================================


                 $$$$$$$$$$$$$$$$$$$$$$$$$$$$$$$$$$$$$$$$$$$$$$ 
                 $ THERE ARE  2 JOBS TO BE PROCESSED THIS RUN $
                 $$$$$$$$$$$$$$$$$$$$$$$$$$$$$$$$$$$$$$$$$$$$$$ 




                 $$$$$$$$$$$$$$$$  JOB NUMBER  1 $$$$$$$$$$$$$$


                       ****************************
                       * Single Point Calculation *
                       ****************************

---------------------------------
CARTESIAN COORDINATES (ANGSTROEM)
---------------------------------
  Au     7.854217    4.999847    8.065852
  Au     8.530977   10.233984    6.642292
  Au     8.368257    8.102018    4.650542
  Au    10.551111    8.257988    6.492332
  Au     9.731423    9.155870    8.963385
  Au     9.434991    5.804699    5.959332
  Au     6.615313    6.039235    5.747901
  Au     8.269088    6.982495   10.036340
  Au     5.772994    6.769128    8.778628
  Au     6.944722    9.346760    9.364526
  Au     4.147254    6.934988    6.525948
  Au     4.413037    9.158614    8.169101
  Au     6.131802   11.232155    7.486868
  Au     6.029521    8.934444    5.805718
  Mn     7.987004    7.687878    7.403734

----------------------------
CARTESIAN COORDINATES (A.U.)
----------------------------
  NO LB      ZA    FRAG     MASS         X           Y           Z
   0 Au   19.0000*   0   196.966   14.842320    9.448341   15.242251
   1 Au   19.0000*   0   196.966   16.121210   19.339427   12.552113
   2 Au   19.0000*   0   196.966   15.813715   15.310596    8.788251
   3 Au   19.0000*   0   196.966   19.938710   15.605336   12.268729
   4 Au   19.0000*   0   196.966   18.389725   17.302088   16.938343
   5 Au   19.0000*   0   196.966   17.829549   10.969291   11.261506
   6 Au   19.0000*   0   196.966   12.501129   11.412500   10.861958
   7 Au   19.0000*   0   196.966   15.626312   13.195003   18.965934
   8 Au   19.0000*   0   196.966   10.909377   12.791799   16.589204
   9 Au   19.0000*   0   196.966   13.123622   17.662817   17.696390
  10 Au   19.0000*   0   196.966    7.837175   13.105228   12.332254
  11 Au   19.0000*   0   196.966    8.339431   17.307272   15.437364
  12 Au   19.0000*   0   196.966   11.587427   21.225697   14.148131
  13 Au   19.0000*   0   196.966   11.394143   16.883652   10.971216
  14 Mn   25.0000    0    54.940   15.093250   14.527985   13.991031
* core charge reduced due to ECP

--------------------------------
INTERNAL COORDINATES (ANGSTROEM)
--------------------------------
 Au     0   0   0     0.000000000000     0.00000000     0.00000000
 Au     1   0   0     5.466326275461     0.00000000     0.00000000
 Au     2   1   0     2.922126585033    58.13021593     0.00000000
 Au     2   1   3     2.829839036101    55.49831390   287.18237239
 Au     4   2   1     2.753939736617    60.81128930   289.02884422
 Au     4   2   1     2.747442536609   110.10797645    31.47052373
 Au     1   2   3     2.826324760238    59.23997464   323.30376909
 Au     1   2   3     2.825921808906    59.44419770   173.70907414
 Au     8   1   2     2.803186067162    60.19940019    75.55730396
 Au     8   1   2     2.791958419557   110.89730052    38.05797700
 Au     7   1   2     2.738438035576   106.40004335   268.83464350
 Au    11   7   1     2.777608001421   110.10258692    68.52909095
 Au     2   1   3     2.732342405481    99.24131060   114.19439216
 Au     3   2   1     2.738074193842    62.49584904    77.08589746
 Mn     7   1   2     2.709492230074    60.04315434   354.87575026

---------------------------
INTERNAL COORDINATES (A.U.)
---------------------------
 Au     0   0   0     0.000000000000     0.00000000     0.00000000
 Au     1   0   0    10.329859619278     0.00000000     0.00000000
 Au     2   1   0     5.522018974363    58.13021593     0.00000000
 Au     2   1   3     5.347620781311    55.49831390   287.18237239
 Au     4   2   1     5.204191891530    60.81128930   289.02884422
 Au     4   2   1     5.191913962878   110.10797645    31.47052373
 Au     1   2   3     5.340979762371    59.23997464   323.30376909
 Au     1   2   3     5.340218294708    59.44419770   173.70907414
 Au     8   1   2     5.297253969360    60.19940019    75.55730396
 Au     8   1   2     5.276036790259   110.89730052    38.05797700
 Au     7   1   2     5.174897921953   106.40004335   268.83464350
 Au    11   7   1     5.248918430074   110.10258692    68.52909095
 Au     2   1   3     5.163378850459    99.24131060   114.19439216
 Au     3   2   1     5.174210360718    62.49584904    77.08589746
 Mn     7   1   2     5.120198276827    60.04315434   354.87575026

---------------------
BASIS SET INFORMATION
---------------------
There are 2 groups of distinct atoms

 Group   1 Type Au  : 8s7p6d1f contracted to 6s4p3d1f pattern {311111/4111/411/1}
 Group   2 Type Mn  : 17s11p7d1f contracted to 6s4p4d1f pattern {842111/6311/4111/1}

Atom   0Au   basis set group =>   1
Atom   1Au   basis set group =>   1
Atom   2Au   basis set group =>   1
Atom   3Au   basis set group =>   1
Atom   4Au   basis set group =>   1
Atom   5Au   basis set group =>   1
Atom   6Au   basis set group =>   1
Atom   7Au   basis set group =>   1
Atom   8Au   basis set group =>   1
Atom   9Au   basis set group =>   1
Atom  10Au   basis set group =>   1
Atom  11Au   basis set group =>   1
Atom  12Au   basis set group =>   1
Atom  13Au   basis set group =>   1
Atom  14Mn   basis set group =>   2
---------------------------------
AUXILIARY/J BASIS SET INFORMATION
---------------------------------
There are 2 groups of distinct atoms

 Group   1 Type Au  : 11s5p5d3f3g contracted to 8s5p5d2f3g pattern {41111111/11111/11111/21/111}
 Group   2 Type Mn  : 19s5p5d3f3g contracted to 8s5p5d2f3g pattern {121111111/11111/11111/21/111}

Atom   0Au   basis set group =>   1
Atom   1Au   basis set group =>   1
Atom   2Au   basis set group =>   1
Atom   3Au   basis set group =>   1
Atom   4Au   basis set group =>   1
Atom   5Au   basis set group =>   1
Atom   6Au   basis set group =>   1
Atom   7Au   basis set group =>   1
Atom   8Au   basis set group =>   1
Atom   9Au   basis set group =>   1
Atom  10Au   basis set group =>   1
Atom  11Au   basis set group =>   1
Atom  12Au   basis set group =>   1
Atom  13Au   basis set group =>   1
Atom  14Mn   basis set group =>   2
---------------------------------
AUXILIARY/C BASIS SET INFORMATION
---------------------------------
There are 2 groups of distinct atoms

 Group   1 Type Au  : 8s8p7d5f3g2h contracted to 8s8p7d5f3g2h pattern {11111111/11111111/1111111/11111/111/11}
 Group   2 Type Mn  : 11s9p8d6f5g2h contracted to 9s8p8d6f5g2h pattern {311111111/21111111/11111111/111111/11111/11}

Atom   0Au   basis set group =>   1
Atom   1Au   basis set group =>   1
Atom   2Au   basis set group =>   1
Atom   3Au   basis set group =>   1
Atom   4Au   basis set group =>   1
Atom   5Au   basis set group =>   1
Atom   6Au   basis set group =>   1
Atom   7Au   basis set group =>   1
Atom   8Au   basis set group =>   1
Atom   9Au   basis set group =>   1
Atom  10Au   basis set group =>   1
Atom  11Au   basis set group =>   1
Atom  12Au   basis set group =>   1
Atom  13Au   basis set group =>   1
Atom  14Mn   basis set group =>   2
-------------------------
ECP PARAMETER INFORMATION
-------------------------

 Group 1, Type Au ECP Def2-ECP (replacing 60 core electrons, lmax=3)

Atom   0Au   ECP group =>   1
Atom   1Au   ECP group =>   1
Atom   2Au   ECP group =>   1
Atom   3Au   ECP group =>   1
Atom   4Au   ECP group =>   1
Atom   5Au   ECP group =>   1
Atom   6Au   ECP group =>   1
Atom   7Au   ECP group =>   1
Atom   8Au   ECP group =>   1
Atom   9Au   ECP group =>   1
Atom  10Au   ECP group =>   1
Atom  11Au   ECP group =>   1
Atom  12Au   ECP group =>   1
Atom  13Au   ECP group =>   1



           ************************************************************
           *        Program running with 6 parallel MPI-processes     *
           *              working on a common directory               *
           ************************************************************
------------------------------------------------------------------------------
                           ORCA GTO INTEGRAL CALCULATION
                           -- RI-GTO INTEGRALS CHOSEN --
------------------------------------------------------------------------------
------------------------------------------------------------------------------
                   ___                                                        
                  /   \      - P O W E R E D   B Y -                         
                 /     \                                                     
                 |  |  |   _    _      __       _____    __    __             
                 |  |  |  | |  | |    /  \     |  _  \  |  |  /  |          
                  \  \/   | |  | |   /    \    | | | |  |  | /  /          
                 / \  \   | |__| |  /  /\  \   | |_| |  |  |/  /          
                |  |  |   |  __  | /  /__\  \  |    /   |      \           
                |  |  |   | |  | | |   __   |  |    \   |  |\   \          
                \     /   | |  | | |  |  |  |  | |\  \  |  | \   \       
                 \___/    |_|  |_| |__|  |__|  |_| \__\ |__|  \__/        
                                                                              
                      - O R C A' S   B I G   F R I E N D -                    
                                      &                                       
                       - I N T E G R A L  F E E D E R -                       
                                                                              
 v1 FN, 2020, v2 2021                                                         
------------------------------------------------------------------------------


Reading SHARK input file b2plyp.SHARKINP.tmp ... ok
----------------------
SHARK INTEGRAL PACKAGE
----------------------

Number of atoms                             ...     15
Number of basis functions                   ...    605
Number of shells                            ...    211
Maximum angular momentum                    ...      3
Integral batch strategy                     ... SHARK/LIBINT Hybrid
RI-J (if used) integral strategy            ... SPLIT-RIJ (Revised 2003 algorithm where possible)
Printlevel                                  ...      1
Contraction scheme used                     ... SEGMENTED contraction
Coulomb Range Separation                    ... NOT USED
Exchange Range Separation                   ... NOT USED
Finite Nucleus Model                        ... NOT USED
Auxiliary Coulomb fitting basis             ... AVAILABLE
   # of basis functions in Aux-J            ...   1335
   # of shells in Aux-J                     ...    345
   Maximum angular momentum in Aux-J        ...      4
Auxiliary J/K fitting basis                 ... NOT available
Auxiliary Correlation fitting basis         ... AVAILABLE
   # of basis functions in Aux-C            ...   2296
   # of shells in Aux-C                     ...    500
   Maximum angular momentum in Aux-C        ...      5
Auxiliary 'external' fitting basis          ... NOT available
Integral threshold                          ...     1.000000e-10
Primitive cut-off                           ...     1.000000e-11
Primitive pair pre-selection threshold      ...     1.000000e-11

Calculating pre-screening integrals         ... done (  0.3 sec) Dimension = 211
Organizing shell pair data                  ... done (  0.9 sec)
Shell pair information
Total number of shell pairs                 ...     22366
Shell pairs after pre-screening             ...     17899
Total number of primitive shell pairs       ...     59609
Primitive shell pairs kept                  ...     34544
          la=0 lb=0:   2808 shell pairs
          la=1 lb=0:   4073 shell pairs
          la=1 lb=1:   1537 shell pairs
          la=2 lb=0:   3555 shell pairs
          la=2 lb=1:   2513 shell pairs
          la=2 lb=2:   1028 shell pairs
          la=3 lb=0:    940 shell pairs
          la=3 lb=1:    718 shell pairs
          la=3 lb=2:    628 shell pairs
          la=3 lb=3:     99 shell pairs

Calculating one electron integrals          ... done (  0.1 sec)
Calculating ECP integrals                   ... done ( 21.4 sec)
Calculating RI/J V-Matrix + Cholesky decomp.... done (  0.2 sec)
Calculating RI/C V-Matrix + Cholesky decomp.... done (  0.5 sec)
Calculating Nuclear repulsion               ... done (  0.0 sec) ENN=   5671.397744848498 Eh

SHARK setup successfully completed in  24.1 seconds

Maximum memory used throughout the entire GTOINT-calculation: 49.5 MB


           ************************************************************
           *        Program running with 6 parallel MPI-processes     *
           *              working on a common directory               *
           ************************************************************
-------------------------------------------------------------------------------
                                 ORCA SCF
-------------------------------------------------------------------------------

------------
SCF SETTINGS
------------
Hamiltonian:
 Density Functional     Method          .... DFT(GTOs)
 Exchange Functional    Exchange        .... B88
   X-Alpha parameter    XAlpha          ....  0.666667
   Becke's b parameter  XBeta           ....  0.004200
 Correlation Functional Correlation     .... LYP
 LDA part of GGA corr.  LDAOpt          .... VWN-3
 Gradients option       PostSCFGGA      .... off
 Hybrid DFT is turned on
   Fraction HF Exchange ScalHFX         ....  0.530000
   Scaling of DF-GGA-X  ScalDFX         ....  0.470000
   Scaling of DF-GGA-C  ScalDFC         ....  0.730000
   Scaling of DF-LDA-C  ScalLDAC        ....  0.730000
   Perturbative correction              ....  0.270000
   Density functional embedding theory  .... OFF
   NL short-range parameter             ....  7.800000
 RI-approximation to the Coulomb term is turned on
   Number of AuxJ basis functions       .... 1335
   RIJ-COSX (HFX calculated with COS-X)).... on


General Settings:
 Integral files         IntName         .... b2plyp
 Hartree-Fock type      HFTyp           .... UHF
 Total Charge           Charge          ....    0
 Multiplicity           Mult            ....    6
 Number of Electrons    NEL             ....  291
 Basis Dimension        Dim             ....  605
 Nuclear Repulsion      ENuc            ....   5671.3977448485 Eh

Convergence Acceleration:
 DIIS                   CNVDIIS         .... on
   Start iteration      DIISMaxIt       ....     0
   Startup error        DIISStart       ....  0.200000
   # of expansion vecs  DIISMaxEq       ....     5
   Bias factor          DIISBfac        ....   1.050
   Max. coefficient     DIISMaxC        ....  10.000
 Trust-Rad. Augm. Hess. CNVTRAH         .... auto
   Auto Start mean grad. ratio tolernc. ....  1.125000
   Auto Start start iteration           ....   200
   Auto Start num. interpolation iter.  ....    10
   Max. Number of Micro iterations      ....    16
   Max. Number of Macro iterations      .... Maxiter - #DIIS iter
   Number of Davidson start vectors     ....     2
   Converg. threshold I  (grad. norm)   ....   5.000e-05
   Converg. threshold II (energy diff.) ....   1.000e-06
   Grad. Scal. Fac. for Micro threshold ....   0.100
   Minimum threshold for Micro iter.    ....   0.010
   NR start threshold (gradient norm)   ....   0.001
   Initial trust radius                 ....   0.400
   Minimum AH scaling param. (alpha)    ....   1.000
   Maximum AH scaling param. (alpha)    .... 1000.000
   Orbital update algorithm             .... Taylor
   White noise on init. David. guess    .... on
   Maximum white noise                  ....   0.010
   Quad. conv. algorithm                .... NR
 SOSCF                  CNVSOSCF        .... off
 Level Shifting         CNVShift        .... on
   Level shift para.    LevelShift      ....    0.2500
   Turn off err/grad.   ShiftErr        ....    0.0000
 Zerner damping         CNVZerner       .... off
 Static damping         CNVDamp         .... on
   Fraction old density DampFac         ....    0.9200
   Max. Damping (<1)    DampMax         ....    0.9800
   Min. Damping (>=0)   DampMin         ....    0.0000
   Turn off err/grad.   DampErr         ....    0.0030
 Fernandez-Rico         CNVRico         .... off

SCF Procedure:
 Maximum # iterations   MaxIter         ....   400
 SCF integral mode      SCFMode         .... Direct
   Integral package                     .... SHARK and LIBINT hybrid scheme
 Reset frequency        DirectResetFreq ....    20
 Integral Threshold     Thresh          ....  1.000e-10 Eh
 Primitive CutOff       TCut            ....  1.000e-11 Eh

Convergence Tolerance:
 Convergence Check Mode ConvCheckMode   .... Total+1el-Energy
 Convergence forced     ConvForced      .... 0
 Energy Change          TolE            ....  1.000e-06 Eh
 1-El. energy change                    ....  1.000e-03 Eh
 DIIS Error             TolErr          ....  1.000e-06


Diagonalization of the overlap matrix:
Smallest eigenvalue                        ... 2.487e-04
Time for diagonalization                   ...    0.107 sec
Threshold for overlap eigenvalues          ... 1.000e-08
Number of eigenvalues below threshold      ... 0
Time for construction of square roots      ...    0.117 sec
Total time needed                          ...    0.226 sec

Time for model grid setup =    0.951 sec

------------------------------
INITIAL GUESS: MODEL POTENTIAL
------------------------------
Loading Hartree-Fock densities                     ... done
  calling /home/ehlert/src/miniconda3/envs/orca500/Programs/ORCA501/orca b2plyp_atom79.inp > b2plyp_atom79.out in order to generate an atomic fitting density for atom 0 (Au with ECP) on-the-fly... 
    atom 0 (Au), assumed electronic state with S=2: 1s2 2s2 2p6 3s2 3p6 4s2 3d10 4p6 5s2 4d10 5p6 6s1 4f14 5d10           ... done
Calculating cut-offs                               ... done
Initializing the effective Hamiltonian             ... done
Setting up the integral package (SHARK)            ... done
Starting the Coulomb interaction                   ... done (   1.1 sec)
Reading the grid                                   ... done
Mapping shells                                     ... done
Starting the XC term evaluation                    ... done (   1.0 sec)
  promolecular density results
     # of electrons  =   1131.014353008
     EX              =  -5194.143599302
     EC              =    -22.991139598
     EX+EC           =  -5217.134738900
Transforming the Hamiltonian                       ... done (   0.1 sec)
Diagonalizing the Hamiltonian                      ... done (   0.2 sec)
Back transforming the eigenvectors                 ... done (   0.0 sec)
Now organizing SCF variables                       ... done
                      ------------------
                      INITIAL GUESS DONE (   4.4 sec)
                      ------------------
-------------------
DFT GRID GENERATION
-------------------

General Integration Accuracy     IntAcc      ... 4.388
Radial Grid Type                 RadialGrid  ... OptM3 with GC (2021)
Angular Grid (max. ang.)         AngularGrid ... 4 (Lebedev-302)
Angular grid pruning method      GridPruning ... 4 (adaptive)
Weight generation scheme         WeightScheme... Becke
Basis function cutoff            BFCut       ... 1.0000e-10
Integration weight cutoff        WCut        ... 1.0000e-14
Angular grids for H and He will be reduced by one unit
Partially contracted basis set               ... off
Rotationally invariant grid construction     ... off

Total number of grid points                  ...   165733
Total number of batches                      ...     2595
Average number of points per batch           ...       63
Average number of grid points per atom       ...    11049
Time for grid setup =    2.867 sec

--------------------
COSX GRID GENERATION
--------------------

GRIDX 1
-------
General Integration Accuracy     IntAcc      ... 3.816
Radial Grid Type                 RadialGrid  ... OptM3 with GC (2021)
Angular Grid (max. ang.)         AngularGrid ... 1 (Lebedev-50)
Angular grid pruning method      GridPruning ... 4 (adaptive)
Weight generation scheme         WeightScheme... Becke
Basis function cutoff            BFCut       ... 1.0000e-10
Integration weight cutoff        WCut        ... 1.0000e-14
Angular grids for H and He will be reduced by one unit
Partially contracted basis set               ... on
Rotationally invariant grid construction     ... off

Total number of grid points                  ...    17338
Total number of batches                      ...      278
Average number of points per batch           ...       62
Average number of grid points per atom       ...     1156
UseSFitting                                  ... on

GRIDX 2
-------
General Integration Accuracy     IntAcc      ... 4.020
Radial Grid Type                 RadialGrid  ... OptM3 with GC (2021)
Angular Grid (max. ang.)         AngularGrid ... 2 (Lebedev-110)
Angular grid pruning method      GridPruning ... 4 (adaptive)
Weight generation scheme         WeightScheme... Becke
Basis function cutoff            BFCut       ... 1.0000e-10
Integration weight cutoff        WCut        ... 1.0000e-14
Angular grids for H and He will be reduced by one unit
Partially contracted basis set               ... on
Rotationally invariant grid construction     ... off

Total number of grid points                  ...    52601
Total number of batches                      ...      830
Average number of points per batch           ...       63
Average number of grid points per atom       ...     3507
UseSFitting                                  ... on

GRIDX 3
-------
General Integration Accuracy     IntAcc      ... 4.338
Radial Grid Type                 RadialGrid  ... OptM3 with GC (2021)
Angular Grid (max. ang.)         AngularGrid ... 3 (Lebedev-194)
Angular grid pruning method      GridPruning ... 4 (adaptive)
Weight generation scheme         WeightScheme... Becke
Basis function cutoff            BFCut       ... 1.0000e-10
Integration weight cutoff        WCut        ... 1.0000e-14
Angular grids for H and He will be reduced by one unit
Partially contracted basis set               ... on
Rotationally invariant grid construction     ... off

Total number of grid points                  ...    95716
Total number of batches                      ...     1503
Average number of points per batch           ...       63
Average number of grid points per atom       ...     6381
UseSFitting                                  ... on

Time for X-Grid setup             =    3.027 sec

--------------
SCF ITERATIONS
--------------
ITER       Energy         Delta-E        Max-DP      RMS-DP      [F,P]     Damp
               ***  Starting incremental Fock matrix formation  ***
  0  -3043.8560948098   0.000000000000 0.07393695  0.00054419  0.4039672 0.9200
  1  -3044.6128638379  -0.756769028089 0.06387536  0.00050706  0.2706588 0.9200
                               ***Turning on DIIS***
  2  -3045.0382592107  -0.425395372807 0.05337214  0.00044006  0.2326259 0.9200
  3  -3045.2313596107  -0.193100399975 0.03265493  0.00033712  0.2140433 0.9200
  4  -3045.3136288542  -0.082269243571 0.02423737  0.00024559  0.1968601 0.9200
  5  -3045.3959100487  -0.082281194449 0.02316538  0.00023082  0.1809527 0.9200
  6  -3045.4689533858  -0.073043337065 0.02137594  0.00021449  0.1663789 0.9200
  7  -3045.5308311787  -0.061877792917 0.01926895  0.00019557  0.1531536 0.9200
  8  -3045.6033763345  -0.072545155858 0.01753568  0.00019599  0.1410206 0.9200
  9  -3045.6799161274  -0.076539792904 0.01683681  0.00017707  0.1298071 0.9200
 10  -3045.7481225492  -0.068206421739 0.01565677  0.00016123  0.1194609 0.9200
 11  -3045.8112766072  -0.063154058028 0.01467597  0.00015251  0.1098818 0.9200
 12  -3045.8684182948  -0.057141687596 0.01455129  0.00014279  0.1010524 0.9200
 13  -3045.9241747847  -0.055756489901 0.01230578  0.00013529  0.0929645 0.9200
 14  -3045.9788513340  -0.054676549257 0.01151570  0.00012866  0.0855514 0.9200
 15  -3046.0299217155  -0.051070381587 0.01101493  0.00012025  0.0787372 0.9200
 16  -3046.0776333751  -0.047711659560 0.01019585  0.00011294  0.0724455 0.9200
 17  -3046.1222163014  -0.044582926301 0.01044951  0.00010692  0.0666390 0.9200
 18  -3046.1644075006  -0.042191199242 0.01051157  0.00010217  0.0613014 0.9200
 19  -3046.2045199000  -0.040112399374 0.00963518  0.00009779  0.0564031 0.9200
               *** Restarting incremental Fock matrix formation ***
                                   *** Resetting DIIS ***
 20  -3046.2429655906  -0.038445690610 0.00793998  0.00008597  0.0519010 0.9200
 21  -3046.2791312429  -0.036165652291 0.00710172  0.00007871  0.0477502 0.9200
 22  -3046.3130445251  -0.033913282209 0.00671719  0.00007450  0.0439329 0.9200
 23  -3046.3447381845  -0.031693659387 0.00797055  0.00007257  0.0404294 0.9200
 24  -3046.3743383196  -0.029600135130 0.00839909  0.00007148  0.0372105 0.9200
 25  -3046.4020245013  -0.027686181606 0.00860542  0.00006987  0.0342468 0.9200
 26  -3046.4280019009  -0.025977399660 0.00896409  0.00006791  0.0315122 0.9200
 27  -3046.4523476535  -0.024345752626 0.00900151  0.00006562  0.0289909 0.9200
 28  -3046.4751554569  -0.022807803326 0.00892560  0.00006318  0.0266810 0.9200
 29  -3046.4965319019  -0.021376445028 0.00881876  0.00006070  0.0245542 0.9200
 30  -3046.5165762856  -0.020044383715 0.00864824  0.00005822  0.0225964 0.9200
 31  -3046.5353701861  -0.018793900508 0.00836232  0.00005571  0.0207952 0.9200
 32  -3046.5529804704  -0.017610284309 0.00797676  0.00005317  0.0191384 0.9200
 33  -3046.5694701973  -0.016489726915 0.00754292  0.00005067  0.0176139 0.9200
 34  -3046.5849019717  -0.015431774330 0.00709513  0.00004822  0.0162109 0.9200
 35  -3046.5993361540  -0.014434182328 0.00663858  0.00004586  0.0149196 0.9200
 36  -3046.6128291020  -0.013492947951 0.00616845  0.00004357  0.0137312 0.9200
 37  -3046.6254334007  -0.012604298719 0.00568659  0.00004138  0.0126377 0.9200
 38  -3046.6371992250  -0.011765824307 0.00534957  0.00003928  0.0116316 0.9200
 39  -3046.6481750449  -0.010975819876 0.00519323  0.00003739  0.0107058 0.9200
               *** Restarting incremental Fock matrix formation ***
                                   *** Resetting DIIS ***
 40  -3046.6584063286  -0.010231283724 0.00420631  0.00003055  0.0098539 0.9200
 41  -3046.6680460648  -0.009639736228 0.00364424  0.00002697  0.0090806 0.9200
 42  -3046.6770059755  -0.008959910703 0.00347838  0.00002555  0.0083664 0.9200
 43  -3046.6853142920  -0.008308316517 0.00354900  0.00002541  0.0077054 0.9200
 44  -3046.6930095849  -0.007695292899 0.00373751  0.00002572  0.0071684 0.9200
 45  -3046.7001348210  -0.007125236033 0.00388169  0.00002552  0.0068329 0.9200
 46  -3046.7067426837  -0.006607862766 0.00397574  0.00002516  0.0064515 0.9200
 47  -3046.7128708049  -0.006128121157 0.00403058  0.00002474  0.0060593 0.9200
 48  -3046.7185536366  -0.005682831714 0.00405964  0.00002427  0.0056870 0.9200
 49  -3046.7238243253  -0.005270688730 0.00407401  0.00002379  0.0053409 0.9200
 50  -3046.7287139029  -0.004889577529 0.00407651  0.00002331  0.0050137 0.9200
 51  -3046.7332505785  -0.004536675601 0.00406179  0.00002286  0.0046986 0.9200
 52  -3046.7374597931  -0.004209214663 0.00403172  0.00002246  0.0043969 0.9200
 53  -3046.7413650041  -0.003905211025 0.00399254  0.00002211  0.0041123 0.9200
 54  -3046.7449881857  -0.003623181549 0.00394807  0.00002181  0.0038460 0.9200
 55  -3046.7483498459  -0.003361660227 0.00389932  0.00002157  0.0035964 0.9200
 56  -3046.7514690961  -0.003119250170 0.00384367  0.00002136  0.0033619 0.9200
 57  -3046.7543637041  -0.002894608038 0.00378023  0.00002120  0.0031415 0.9200
 58  -3046.7570502296  -0.002686525479 0.04638493  0.00026336  0.0029353 0.0000
 59  -3046.7902389472  -0.033188717569 0.00633356  0.00004731  0.0017918 0.0000
               *** Restarting incremental Fock matrix formation ***
                                   *** Resetting DIIS ***
 60  -3046.7905995362  -0.000360589039 0.00655750  0.00004440  0.0018412 0.0000
 61  -3046.7909440324  -0.000344496172 0.00613732  0.00004065  0.0018599 0.0000
 62  -3046.7912640634  -0.000320030987 0.00486577  0.00003184  0.0018892 0.0000
 63  -3046.7915156034  -0.000251540038 0.00318866  0.00002006  0.0019065 0.0000
 64  -3046.7916688160  -0.000153212614 0.00243047  0.00001539  0.0019120 0.0000
 65  -3046.7917871680  -0.000118352021 0.00319129  0.00002179  0.0019181 0.0000
 66  -3046.7919691233  -0.000181955226 0.00352688  0.00002389  0.0019358 0.0000
 67  -3046.7921681981  -0.000199074837 0.00395883  0.00002643  0.0019558 0.0000
 68  -3046.7923903107  -0.000222112561 0.00563993  0.00003954  0.0019864 0.0000
 69  -3046.7927222300  -0.000331919306 0.00585380  0.00003869  0.0020218 0.0000
 70  -3046.7930485274  -0.000326297423 0.00493919  0.00003153  0.0020350 0.0000
 71  -3046.7933153214  -0.000266793955 0.00348392  0.00002142  0.0020465 0.0000
 72  -3046.7934936842  -0.000178362818 0.00327494  0.00002062  0.0020472 0.0000
 73  -3046.7936677382  -0.000174053989 0.00455081  0.00002917  0.0020424 0.0000
 74  -3046.7939219649  -0.000254226752 0.00486820  0.00003081  0.0020446 0.0000
 75  -3046.7941913623  -0.000269397412 0.00522775  0.00003320  0.0020538 0.0000
 76  -3046.7944831604  -0.000291798097 0.00625620  0.00004071  0.0020671 0.0000
 77  -3046.7948408380  -0.000357677584 0.00701171  0.00004518  0.0020849 0.0000
 78  -3046.7952360545  -0.000395216508 0.00731260  0.00004694  0.0020807 0.0000
 79  -3046.7956459427  -0.000409888208 0.00753110  0.00004801  0.0020798 0.0000
               *** Restarting incremental Fock matrix formation ***
                                   *** Resetting DIIS ***
 80  -3046.7960608461  -0.000414903421 0.00770494  0.00004958  0.0020647 0.0000
 81  -3046.7964898555  -0.000429009332 0.00785473  0.00004999  0.0020591 0.0000
 82  -3046.7969187914  -0.000428935945 0.00827477  0.00005457  0.0020274 0.0000
 83  -3046.7973806226  -0.000461831191 0.00876958  0.00005671  0.0020286 0.0000
 84  -3046.7978505623  -0.000469939730 0.01027653  0.00007104  0.0019565 0.0000
 85  -3046.7984210400  -0.000570477634 0.01018198  0.00006823  0.0019649 0.0000
 86  -3046.7989553018  -0.000534261853 0.01507277  0.00010829  0.0018570 0.0000
 87  -3046.7997146782  -0.000759376394 0.00567236  0.00003677  0.0018336 0.0000
 88  -3046.7999819409  -0.000267262674 0.01508726  0.00010234  0.0016972 0.0000
 89  -3046.8006122546  -0.000630313737 0.01108978  0.00007042  0.0016754 0.0000
 90  -3046.8010675487  -0.000455294040 0.01592700  0.00010038  0.0015476 0.0000
 91  -3046.8015960378  -0.000528489109 0.01173902  0.00007315  0.0014100 0.0000
 92  -3046.8019659646  -0.000369926800 0.01045505  0.00006369  0.0012751 0.0000
 93  -3046.8022568742  -0.000290909603 0.01211082  0.00007776  0.0011067 0.0000
 94  -3046.8025300371  -0.000273162883 0.00952046  0.00006001  0.0010274 0.0000
 95  -3046.8027458724  -0.000215835324 0.01011887  0.00006376  0.0008672 0.0000
               *** Restarting incremental Fock matrix formation ***
                                   *** Resetting DIIS ***
 96  -3046.8020516750   0.000694197347 0.00580716  0.00010469  0.0007412 0.0000
 97  -3046.8022840867  -0.000232411618 0.00191800  0.00003602  0.0006031 0.0000
 98  -3046.8023527631  -0.000068676434 0.00197587  0.00002125  0.0006086 0.0000
 99  -3046.8023961221  -0.000043359053 0.00207943  0.00001519  0.0005765 0.0000
100  -3046.8024296613  -0.000033539146 0.00207626  0.00001488  0.0005308 0.0000
101  -3046.8024617293  -0.000032067960 0.00230758  0.00001632  0.0005194 0.0000
102  -3046.8024943042  -0.000032574923 0.00263687  0.00001939  0.0004755 0.0000
103  -3046.8025300297  -0.000035725555 0.00280822  0.00002099  0.0004639 0.0000
104  -3046.8025657552  -0.000035725478 0.00288302  0.00002197  0.0004131 0.0000
105  -3046.8026000554  -0.000034300175 0.00295500  0.00002177  0.0003947 0.0000
106  -3046.8026316940  -0.000031638575 0.00288235  0.00002023  0.0003652 0.0000
107  -3046.8026590836  -0.000027389642 0.00269365  0.00001956  0.0003275 0.0000
108  -3046.8026838508  -0.000024767230 0.00273980  0.00001941  0.0003135 0.0000
109  -3046.8027069803  -0.000023129466 0.00294338  0.00002214  0.0002761 0.0000
110  -3046.8027306025  -0.000023622155 0.00224932  0.00001621  0.0002631 0.0000
111  -3046.8027483703  -0.000017767818 0.00258344  0.00002007  0.0002292 0.0000
112  -3046.8027671746  -0.000018804368 0.00245255  0.00001882  0.0002157 0.0000
113  -3046.8027845561  -0.000017381432 0.00325756  0.00002518  0.0001942 0.0000
114  -3046.8028040241  -0.000019468013 0.00162522  0.00001061  0.0001766 0.0000
115  -3046.8028145493  -0.000010525199 0.00357473  0.00002781  0.0001621 0.0000
               *** Restarting incremental Fock matrix formation ***
                                   *** Resetting DIIS ***
116  -3046.8028327590  -0.000018209738 0.00096182  0.00000628  0.0001698 0.0000
117  -3046.8028387033  -0.000005944247 0.00061785  0.00000461  0.0001468 0.0000
118  -3046.8028432949  -0.000004591659 0.00074180  0.00000540  0.0001443 0.0000
119  -3046.8028473143  -0.000004019324 0.00069084  0.00000500  0.0001345 0.0000
120  -3046.8028510077  -0.000003693422 0.00080081  0.00000551  0.0001341 0.0000
121  -3046.8028546903  -0.000003682584 0.00095022  0.00000674  0.0001317 0.0000
122  -3046.8028589052  -0.000004214971 0.00115590  0.00000793  0.0001299 0.0000
123  -3046.8028636744  -0.000004769152 0.00119343  0.00000780  0.0001294 0.0000
124  -3046.8028681114  -0.000004437004 0.00111979  0.00000737  0.0001257 0.0000
125  -3046.8028723154  -0.000004204024 0.00111523  0.00000710  0.0001236 0.0000
126  -3046.8028760662  -0.000003750764 0.00135447  0.00000917  0.0001207 0.0000
127  -3046.8028807639  -0.000004697684 0.00100984  0.00000623  0.0001172 0.0000
128  -3046.8028839791  -0.000003215219 0.00153018  0.00001038  0.0001126 0.0000
129  -3046.8028887469  -0.000004767810 0.00061483  0.00000365  0.0001102 0.0000
130  -3046.8028906940  -0.000001947131 0.00189313  0.00001309  0.0001035 0.0000
131  -3046.8028960192  -0.000005325190 0.00075562  0.00000456  0.0001024 0.0000
132  -3046.8028984152  -0.000002395995 0.00261404  0.00001791  0.0000952 0.0000
133  -3046.8029046870  -0.000006271805 0.00056951  0.00000356  0.0000974 0.0000
134  -3046.8029065080  -0.000001820946 0.00208833  0.00001455  0.0000845 0.0000
135  -3046.8029111958  -0.000004687813 0.00094189  0.00000550  0.0000901 0.0000
               *** Restarting incremental Fock matrix formation ***
                                   *** Resetting DIIS ***
136  -3046.8029140082  -0.000002812456 0.00045258  0.00000288  0.0000766 0.0000
137  -3046.8029151368  -0.000001128591 0.00036061  0.00000221  0.0000730 0.0000
138  -3046.8029158901  -0.000000753259 0.00039115  0.00000271  0.0000694 0.0000
139  -3046.8029167901  -0.000000899991 0.00041686  0.00000286  0.0000692 0.0000
140  -3046.8029177718  -0.000000981706 0.00048568  0.00000343  0.0000677 0.0000
141  -3046.8029188649  -0.000001093130 0.00056968  0.00000422  0.0000676 0.0000
142  -3046.8029201246  -0.000001259705 0.00071807  0.00000509  0.0000659 0.0000
143  -3046.8029215116  -0.000001387032 0.00045377  0.00000282  0.0000658 0.0000
144  -3046.8029224245  -0.000000912883 0.00067633  0.00000463  0.0000626 0.0000
145  -3046.8029237422  -0.000001317700 0.00054834  0.00000357  0.0000619 0.0000
146  -3046.8029247699  -0.000001027729 0.00086943  0.00000625  0.0000596 0.0000
147  -3046.8029262891  -0.000001519179 0.00033553  0.00000182  0.0000576 0.0000
148  -3046.8029267661  -0.000000476941 0.00106037  0.00000730  0.0000544 0.0000
149  -3046.8029283787  -0.000001612615 0.00038444  0.00000212  0.0000548 0.0000
150  -3046.8029288547  -0.000000476038 0.00119343  0.00000812  0.0000493 0.0000
151  -3046.8029303320  -0.000001477314 0.00034948  0.00000211  0.0000504 0.0000
152  -3046.8029308980  -0.000000566004 0.00141014  0.00001004  0.0000445 0.0000
153  -3046.8029324423  -0.000001544276 0.00038440  0.00000229  0.0000468 0.0000
154  -3046.8029331749  -0.000000732607 0.00061568  0.00000403  0.0000409 0.0000
155  -3046.8029338425  -0.000000667547 0.00071426  0.00000434  0.0000364 0.0000
               *** Restarting incremental Fock matrix formation ***
                                   *** Resetting DIIS ***
156  -3046.8029343066  -0.000000464162 0.00026497  0.00000148  0.0000370 0.0000
157  -3046.8029345817  -0.000000275039 0.00017792  0.00000106  0.0000322 0.0000
158  -3046.8029349246  -0.000000342972 0.00020973  0.00000125  0.0000327 0.0000
159  -3046.8029351816  -0.000000256931 0.00019048  0.00000122  0.0000319 0.0000
160  -3046.8029353037  -0.000000122167 0.00025102  0.00000145  0.0000311 0.0000
161  -3046.8029356302  -0.000000326450 0.00032912  0.00000197  0.0000312 0.0000
                 **** Energy Check signals convergence ****

               *****************************************************
               *                     SUCCESS                       *
               *           SCF CONVERGED AFTER 162 CYCLES          *
               *****************************************************

Old exchange energy                            =   -115.556181855 Eh
New exchange energy                            =   -115.556156230 Eh
Exchange energy change after final integration =      0.000025625 Eh
Total energy after final integration           =  -3046.802910186 Eh
Final COS-X integration done in                =    56.629 sec

----------------
TOTAL SCF ENERGY
----------------

Total Energy       :        -3046.80291019 Eh          -82907.72213 eV

Components:
Nuclear Repulsion  :         5671.39774485 Eh          154326.57845 eV
Electronic Energy  :        -8718.20065503 Eh         -237234.30058 eV
One Electron Energy:       -16264.07215985 Eh         -442567.90319 eV
Two Electron Energy:         7545.87150481 Eh          205333.60260 eV
Max COSX asymmetry :            0.00000849 Eh               0.00023 eV

Virial components:
Potential Energy   :        -4839.78676738 Eh         -131697.29330 eV
Kinetic Energy     :         1792.98385719 Eh           48789.57117 eV
Virial Ratio       :            2.69929188


DFT components:
N(Alpha)           :      148.000016198369 electrons
N(Beta)            :      143.000016144337 electrons
N(Total)           :      291.000032342706 electrons
E(X)               :     -104.098737496671 Eh       
E(C)               :       -8.010768011241 Eh       
E(XC)              :     -112.109505507913 Eh       
DFET-embed. en.    :        0.000000000000 Eh       

---------------
SCF CONVERGENCE
---------------

  Last Energy change         ...   -1.8132e-07  Tolerance :   1.0000e-06
  Last MAX-Density change    ...    0.0000e+00  Tolerance :   1.0000e-05
  Last RMS-Density change    ...    0.0000e+00  Tolerance :   1.0000e-06
  Last DIIS Error            ...    3.0518e-05  Tolerance :   1.0000e-06

             **** THE GBW FILE WAS UPDATED (b2plyp.gbw) ****
             **** DENSITY b2plyp.scfp WAS UPDATED ****
             **** ENERGY FILE WAS UPDATED (b2plyp.en.tmp) ****
----------------------
UHF SPIN CONTAMINATION
----------------------

Warning: in a DFT calculation there is little theoretical justification to 
         calculate <S**2> as in Hartree-Fock theory. We will do it anyways
         but you should keep in mind that the values have only limited relevance

Expectation value of <S**2>     :     8.794294
Ideal value S*(S+1) for S=2.5   :     8.750000
Deviation                       :     0.044294

             **** THE GBW FILE WAS UPDATED (b2plyp.gbw) ****
             **** DENSITY b2plyp.scfp WAS UPDATED ****
----------------
ORBITAL ENERGIES
----------------
                 SPIN UP ORBITALS
  NO   OCC          E(Eh)            E(eV) 
   0   1.0000    -237.623082     -6466.0528 
   1   1.0000     -28.124087      -765.2953 
   2   1.0000     -24.042930      -654.2414 
   3   1.0000     -24.041462      -654.2015 
   4   1.0000     -24.041208      -654.1945 
   5   1.0000      -4.414152      -120.1152 
   6   1.0000      -4.406039      -119.8944 
   7   1.0000      -4.405338      -119.8753 
   8   1.0000      -4.404897      -119.8633 
   9   1.0000      -4.401241      -119.7638 
  10   1.0000      -4.401112      -119.7604 
  11   1.0000      -4.398965      -119.7019 
  12   1.0000      -4.396336      -119.6304 
  13   1.0000      -4.395552      -119.6090 
  14   1.0000      -4.393673      -119.5579 
  15   1.0000      -4.393300      -119.5478 
  16   1.0000      -4.392671      -119.5306 
  17   1.0000      -4.392390      -119.5230 
  18   1.0000      -4.391384      -119.4956 
  19   1.0000      -3.604139       -98.0736 
  20   1.0000      -2.534308       -68.9620 
  21   1.0000      -2.531351       -68.8815 
  22   1.0000      -2.530814       -68.8669 
  23   1.0000      -2.528485       -68.8036 
  24   1.0000      -2.526407       -68.7470 
  25   1.0000      -2.524381       -68.6919 
  26   1.0000      -2.523729       -68.6742 
  27   1.0000      -2.522342       -68.6364 
  28   1.0000      -2.521652       -68.6177 
  29   1.0000      -2.521516       -68.6140 
  30   1.0000      -2.521447       -68.6121 
  31   1.0000      -2.520581       -68.5885 
  32   1.0000      -2.520063       -68.5744 
  33   1.0000      -2.519553       -68.5605 
  34   1.0000      -2.519288       -68.5533 
  35   1.0000      -2.518669       -68.5365 
  36   1.0000      -2.517851       -68.5142 
  37   1.0000      -2.516022       -68.4644 
  38   1.0000      -2.515695       -68.4555 
  39   1.0000      -2.515561       -68.4519 
  40   1.0000      -2.515298       -68.4447 
  41   1.0000      -2.513545       -68.3970 
  42   1.0000      -2.513336       -68.3914 
  43   1.0000      -2.513074       -68.3842 
  44   1.0000      -2.512895       -68.3794 
  45   1.0000      -2.512791       -68.3765 
  46   1.0000      -2.512214       -68.3608 
  47   1.0000      -2.511870       -68.3515 
  48   1.0000      -2.511553       -68.3428 
  49   1.0000      -2.511421       -68.3392 
  50   1.0000      -2.511182       -68.3327 
  51   1.0000      -2.511013       -68.3281 
  52   1.0000      -2.510413       -68.3118 
  53   1.0000      -2.509565       -68.2887 
  54   1.0000      -2.509317       -68.2820 
  55   1.0000      -2.508500       -68.2597 
  56   1.0000      -2.508080       -68.2483 
  57   1.0000      -2.507792       -68.2405 
  58   1.0000      -2.506773       -68.2128 
  59   1.0000      -2.506202       -68.1972 
  60   1.0000      -2.505740       -68.1847 
  61   1.0000      -2.505032       -68.1654 
  62   1.0000      -2.407522       -65.5120 
  63   1.0000      -2.405443       -65.4554 
  64   1.0000      -2.405354       -65.4530 
  65   1.0000      -0.522383       -14.2148 
  66   1.0000      -0.520053       -14.1514 
  67   1.0000      -0.518757       -14.1161 
  68   1.0000      -0.515153       -14.0180 
  69   1.0000      -0.513908       -13.9841 
  70   1.0000      -0.503627       -13.7044 
  71   1.0000      -0.473671       -12.8892 
  72   1.0000      -0.472134       -12.8474 
  73   1.0000      -0.468800       -12.7567 
  74   1.0000      -0.465595       -12.6695 
  75   1.0000      -0.465141       -12.6571 
  76   1.0000      -0.462049       -12.5730 
  77   1.0000      -0.460662       -12.5353 
  78   1.0000      -0.458231       -12.4691 
  79   1.0000      -0.456136       -12.4121 
  80   1.0000      -0.453120       -12.3300 
  81   1.0000      -0.450864       -12.2686 
  82   1.0000      -0.448816       -12.2129 
  83   1.0000      -0.448388       -12.2013 
  84   1.0000      -0.443856       -12.0779 
  85   1.0000      -0.442292       -12.0354 
  86   1.0000      -0.441379       -12.0105 
  87   1.0000      -0.439818       -11.9681 
  88   1.0000      -0.434752       -11.8302 
  89   1.0000      -0.432488       -11.7686 
  90   1.0000      -0.430552       -11.7159 
  91   1.0000      -0.429657       -11.6916 
  92   1.0000      -0.429033       -11.6746 
  93   1.0000      -0.426357       -11.6018 
  94   1.0000      -0.425430       -11.5765 
  95   1.0000      -0.423106       -11.5133 
  96   1.0000      -0.418032       -11.3752 
  97   1.0000      -0.415831       -11.3153 
  98   1.0000      -0.414682       -11.2841 
  99   1.0000      -0.411590       -11.1999 
 100   1.0000      -0.407269       -11.0824 
 101   1.0000      -0.406704       -11.0670 
 102   1.0000      -0.399775       -10.8784 
 103   1.0000      -0.395184       -10.7535 
 104   1.0000      -0.393877       -10.7179 
 105   1.0000      -0.391547       -10.6545 
 106   1.0000      -0.387967       -10.5571 
 107   1.0000      -0.384562       -10.4645 
 108   1.0000      -0.384355       -10.4588 
 109   1.0000      -0.381056       -10.3691 
 110   1.0000      -0.379494       -10.3266 
 111   1.0000      -0.376834       -10.2542 
 112   1.0000      -0.374727       -10.1968 
 113   1.0000      -0.374289       -10.1849 
 114   1.0000      -0.373329       -10.1588 
 115   1.0000      -0.371645       -10.1130 
 116   1.0000      -0.370708       -10.0875 
 117   1.0000      -0.370446       -10.0803 
 118   1.0000      -0.366054        -9.9608 
 119   1.0000      -0.365539        -9.9468 
 120   1.0000      -0.364120        -9.9082 
 121   1.0000      -0.363809        -9.8998 
 122   1.0000      -0.363150        -9.8818 
 123   1.0000      -0.362882        -9.8745 
 124   1.0000      -0.358615        -9.7584 
 125   1.0000      -0.357850        -9.7376 
 126   1.0000      -0.357600        -9.7308 
 127   1.0000      -0.356849        -9.7103 
 128   1.0000      -0.354247        -9.6395 
 129   1.0000      -0.353006        -9.6058 
 130   1.0000      -0.348303        -9.4778 
 131   1.0000      -0.347597        -9.4586 
 132   1.0000      -0.346795        -9.4368 
 133   1.0000      -0.344299        -9.3688 
 134   1.0000      -0.344168        -9.3653 
 135   1.0000      -0.339340        -9.2339 
 136   1.0000      -0.334127        -9.0921 
 137   1.0000      -0.333620        -9.0783 
 138   1.0000      -0.332261        -9.0413 
 139   1.0000      -0.331040        -9.0081 
 140   1.0000      -0.324601        -8.8329 
 141   1.0000      -0.316253        -8.6057 
 142   1.0000      -0.315316        -8.5802 
 143   1.0000      -0.310361        -8.4454 
 144   1.0000      -0.246642        -6.7115 
 145   1.0000      -0.229546        -6.2463 
 146   1.0000      -0.209182        -5.6921 
 147   1.0000      -0.202291        -5.5046 
 148   0.0000      -0.118169        -3.2155 
 149   0.0000      -0.088827        -2.4171 
 150   0.0000      -0.072898        -1.9836 
 151   0.0000      -0.070961        -1.9309 
 152   0.0000      -0.048588        -1.3221 
 153   0.0000      -0.046309        -1.2601 
 154   0.0000      -0.030976        -0.8429 
 155   0.0000      -0.017426        -0.4742 
 156   0.0000      -0.009706        -0.2641 
 157   0.0000      -0.009168        -0.2495 
 158   0.0000      -0.005996        -0.1632 
 159   0.0000      -0.001675        -0.0456 
 160   0.0000       0.026392         0.7182 
 161   0.0000       0.030454         0.8287 
 162   0.0000       0.031267         0.8508 
 163   0.0000       0.032392         0.8814 
 164   0.0000       0.052529         1.4294 
 165   0.0000       0.067873         1.8469 
 166   0.0000       0.069846         1.9006 
 167   0.0000       0.075972         2.0673 
 168   0.0000       0.076454         2.0804 
 169   0.0000       0.080881         2.2009 
 170   0.0000       0.082640         2.2487 
 171   0.0000       0.082961         2.2575 
 172   0.0000       0.085636         2.3303 
 173   0.0000       0.098313         2.6752 
 174   0.0000       0.100531         2.7356 
 175   0.0000       0.102265         2.7828 
 176   0.0000       0.102444         2.7876 
 177   0.0000       0.106059         2.8860 
 178   0.0000       0.112935         3.0731 
 179   0.0000       0.116764         3.1773 
 180   0.0000       0.125914         3.4263 
 181   0.0000       0.127253         3.4627 
 182   0.0000       0.131033         3.5656 
 183   0.0000       0.137572         3.7435 
 184   0.0000       0.139116         3.7855 
 185   0.0000       0.143207         3.8969 
 186   0.0000       0.149998         4.0817 
 187   0.0000       0.153935         4.1888 
 188   0.0000       0.163254         4.4424 
 189   0.0000       0.164189         4.4678 
 190   0.0000       0.175822         4.7844 
 191   0.0000       0.180130         4.9016 
 192   0.0000       0.181313         4.9338 
 193   0.0000       0.188744         5.1360 
 194   0.0000       0.191256         5.2043 
 195   0.0000       0.195272         5.3136 
 196   0.0000       0.197764         5.3814 
 197   0.0000       0.216030         5.8785 
 198   0.0000       0.216277         5.8852 
 199   0.0000       0.227579         6.1927 
 200   0.0000       0.230613         6.2753 
 201   0.0000       0.234699         6.3865 
 202   0.0000       0.236897         6.4463 
 203   0.0000       0.242603         6.6016 
 204   0.0000       0.251911         6.8549 
 205   0.0000       0.259638         7.0651 
 206   0.0000       0.272421         7.4130 
 207   0.0000       0.280678         7.6376 
 208   0.0000       0.281477         7.6594 
 209   0.0000       0.292439         7.9577 
 210   0.0000       0.295152         8.0315 
 211   0.0000       0.302653         8.2356 
 212   0.0000       0.304623         8.2892 
 213   0.0000       0.309291         8.4162 
 214   0.0000       0.310543         8.4503 
 215   0.0000       0.315456         8.5840 
 216   0.0000       0.318355         8.6629 
 217   0.0000       0.321979         8.7615 
 218   0.0000       0.340173         9.2566 
 219   0.0000       0.340938         9.2774 
 220   0.0000       0.344978         9.3873 
 221   0.0000       0.350580         9.5398 
 222   0.0000       0.353498         9.6192 
 223   0.0000       0.365911         9.9570 
 224   0.0000       0.369189        10.0461 
 225   0.0000       0.369307        10.0494 
 226   0.0000       0.377751        10.2791 
 227   0.0000       0.383429        10.4336 
 228   0.0000       0.385236        10.4828 
 229   0.0000       0.396140        10.7795 
 230   0.0000       0.400030        10.8854 
 231   0.0000       0.401212        10.9175 
 232   0.0000       0.408352        11.1118 
 233   0.0000       0.409832        11.1521 
 234   0.0000       0.412890        11.2353 
 235   0.0000       0.421249        11.4628 
 236   0.0000       0.422365        11.4931 
 237   0.0000       0.427154        11.6235 
 238   0.0000       0.428768        11.6674 
 239   0.0000       0.432013        11.7557 
 240   0.0000       0.436508        11.8780 
 241   0.0000       0.442547        12.0423 
 242   0.0000       0.443437        12.0665 
 243   0.0000       0.448828        12.2132 
 244   0.0000       0.454414        12.3652 
 245   0.0000       0.465736        12.6733 
 246   0.0000       0.470852        12.8125 
 247   0.0000       0.471221        12.8226 
 248   0.0000       0.479604        13.0507 
 249   0.0000       0.486482        13.2379 
 250   0.0000       0.489340        13.3156 
 251   0.0000       0.496450        13.5091 
 252   0.0000       0.498124        13.5546 
 253   0.0000       0.499348        13.5880 
 254   0.0000       0.507399        13.8070 
 255   0.0000       0.519173        14.1274 
 256   0.0000       0.520535        14.1645 
 257   0.0000       0.525276        14.2935 
 258   0.0000       0.528650        14.3853 
 259   0.0000       0.533139        14.5075 
 260   0.0000       0.539361        14.6768 
 261   0.0000       0.540196        14.6995 
 262   0.0000       0.556021        15.1301 
 263   0.0000       0.558769        15.2049 
 264   0.0000       0.563403        15.3310 
 265   0.0000       0.565595        15.3906 
 266   0.0000       0.571715        15.5572 
 267   0.0000       0.572161        15.5693 
 268   0.0000       0.579015        15.7558 
 269   0.0000       0.583370        15.8743 
 270   0.0000       0.584777        15.9126 
 271   0.0000       0.587669        15.9913 
 272   0.0000       0.592696        16.1281 
 273   0.0000       0.600058        16.3284 
 274   0.0000       0.605747        16.4832 
 275   0.0000       0.607417        16.5286 
 276   0.0000       0.611448        16.6384 
 277   0.0000       0.614451        16.7201 
 278   0.0000       0.617214        16.7952 
 279   0.0000       0.622501        16.9391 
 280   0.0000       0.628369        17.0988 
 281   0.0000       0.628817        17.1110 
 282   0.0000       0.630532        17.1577 
 283   0.0000       0.631811        17.1925 
 284   0.0000       0.637475        17.3466 
 285   0.0000       0.638501        17.3745 
 286   0.0000       0.640567        17.4307 
 287   0.0000       0.656850        17.8738 
 288   0.0000       0.657256        17.8848 
 289   0.0000       0.692577        18.8460 
 290   0.0000       0.731864        19.9150 
 291   0.0000       0.772842        21.0301 
 292   0.0000       0.784589        21.3498 
 293   0.0000       0.787060        21.4170 
 294   0.0000       0.790341        21.5063 
 295   0.0000       0.825508        22.4632 
 296   0.0000       0.836732        22.7686 
 297   0.0000       0.839927        22.8556 
 298   0.0000       0.847716        23.0675 
 299   0.0000       0.855989        23.2926 
 300   0.0000       0.858699        23.3664 
 301   0.0000       0.864738        23.5307 
 302   0.0000       0.875959        23.8361 
 303   0.0000       0.884801        24.0767 
 304   0.0000       0.892391        24.2832 
 305   0.0000       0.907988        24.7076 
 306   0.0000       0.909506        24.7489 
 307   0.0000       0.929725        25.2991 
 308   0.0000       0.930958        25.3327 
 309   0.0000       0.941298        25.6140 
 310   0.0000       0.955423        25.9984 
 311   0.0000       0.955905        26.0115 
 312   0.0000       0.977166        26.5900 
 313   0.0000       1.000941        27.2370 
 314   0.0000       1.005199        27.3528 
 315   0.0000       1.022066        27.8118 
 316   0.0000       1.029067        28.0023 
 317   0.0000       1.042425        28.3658 
 318   0.0000       1.043006        28.3816 
 319   0.0000       1.046854        28.4863 
 320   0.0000       1.052603        28.6428 
 321   0.0000       1.060521        28.8582 
 322   0.0000       1.068302        29.0700 
 323   0.0000       1.076346        29.2889 
 324   0.0000       1.077220        29.3127 
 325   0.0000       1.088267        29.6132 
 326   0.0000       1.094304        29.7775 
 327   0.0000       1.104964        30.0676 
 328   0.0000       1.119833        30.4722 
 329   0.0000       1.123561        30.5736 
 330   0.0000       1.166124        31.7319 
 331   0.0000       1.199808        32.6484 
 332   0.0000       1.231826        33.5197 
 333   0.0000       1.302175        35.4340 
 334   0.0000       1.345334        36.6084 
 335   0.0000       1.348092        36.6834 
 336   0.0000       1.386034        37.7159 
 337   0.0000       1.395717        37.9794 
 338   0.0000       1.398089        38.0439 
 339   0.0000       1.420105        38.6430 
 340   0.0000       1.423914        38.7467 
 341   0.0000       1.432663        38.9847 
 342   0.0000       1.446025        39.3483 
 343   0.0000       1.459874        39.7252 
 344   0.0000       1.466967        39.9182 
 345   0.0000       1.478007        40.2186 
 346   0.0000       1.479615        40.2624 
 347   0.0000       1.495642        40.6985 
 348   0.0000       1.496933        40.7336 
 349   0.0000       1.508432        41.0465 
 350   0.0000       1.511912        41.1412 
 351   0.0000       1.516950        41.2783 
 352   0.0000       1.522423        41.4272 
 353   0.0000       1.526476        41.5375 
 354   0.0000       1.531610        41.6772 
 355   0.0000       1.537413        41.8351 
 356   0.0000       1.541653        41.9505 
 357   0.0000       1.560005        42.4499 
 358   0.0000       1.566554        42.6281 
 359   0.0000       1.587250        43.1913 
 360   0.0000       1.592828        43.3431 
 361   0.0000       1.597552        43.4716 
 362   0.0000       1.602586        43.6086 
 363   0.0000       1.611660        43.8555 
 364   0.0000       1.613393        43.9026 
 365   0.0000       1.617019        44.0013 
 366   0.0000       1.620598        44.0987 
 367   0.0000       1.622118        44.1401 
 368   0.0000       1.625707        44.2377 
 369   0.0000       1.627766        44.2938 
 370   0.0000       1.628532        44.3146 
 371   0.0000       1.632101        44.4117 
 372   0.0000       1.635249        44.4974 
 373   0.0000       1.639013        44.5998 
 374   0.0000       1.642409        44.6922 
 375   0.0000       1.646144        44.7939 
 376   0.0000       1.649242        44.8782 
 377   0.0000       1.649754        44.8921 
 378   0.0000       1.653297        44.9885 
 379   0.0000       1.656359        45.0718 
 380   0.0000       1.658485        45.1297 
 381   0.0000       1.662642        45.2428 
 382   0.0000       1.664699        45.2988 
 383   0.0000       1.666364        45.3441 
 384   0.0000       1.667946        45.3871 
 385   0.0000       1.671284        45.4779 
 386   0.0000       1.673117        45.5278 
 387   0.0000       1.674991        45.5788 
 388   0.0000       1.677579        45.6492 
 389   0.0000       1.678648        45.6783 
 390   0.0000       1.680034        45.7161 
 391   0.0000       1.684186        45.8290 
 392   0.0000       1.685989        45.8781 
 393   0.0000       1.686793        45.9000 
 394   0.0000       1.689144        45.9640 
 395   0.0000       1.690704        46.0064 
 396   0.0000       1.691873        46.0382 
 397   0.0000       1.692109        46.0446 
 398   0.0000       1.693106        46.0718 
 399   0.0000       1.693895        46.0932 
 400   0.0000       1.697568        46.1932 
 401   0.0000       1.698065        46.2067 
 402   0.0000       1.701319        46.2952 
 403   0.0000       1.701676        46.3050 
 404   0.0000       1.703986        46.3678 
 405   0.0000       1.704255        46.3751 
 406   0.0000       1.704411        46.3794 
 407   0.0000       1.705453        46.4077 
 408   0.0000       1.706094        46.4252 
 409   0.0000       1.706802        46.4445 
 410   0.0000       1.707980        46.4765 
 411   0.0000       1.709497        46.5178 
 412   0.0000       1.710214        46.5373 
 413   0.0000       1.713899        46.6376 
 414   0.0000       1.714403        46.6513 
 415   0.0000       1.715773        46.6886 
 416   0.0000       1.716800        46.7165 
 417   0.0000       1.716993        46.7218 
 418   0.0000       1.721913        46.8556 
 419   0.0000       1.723255        46.8922 
 420   0.0000       1.724418        46.9238 
 421   0.0000       1.725091        46.9421 
 422   0.0000       1.727157        46.9983 
 423   0.0000       1.729154        47.0527 
 424   0.0000       1.729747        47.0688 
 425   0.0000       1.730461        47.0882 
 426   0.0000       1.735132        47.2153 
 427   0.0000       1.736040        47.2401 
 428   0.0000       1.738715        47.3128 
 429   0.0000       1.740762        47.3686 
 430   0.0000       1.745958        47.5099 
 431   0.0000       1.746581        47.5269 
 432   0.0000       1.751444        47.6592 
 433   0.0000       1.752154        47.6785 
 434   0.0000       1.755380        47.7663 
 435   0.0000       1.758213        47.8434 
 436   0.0000       1.759001        47.8649 
 437   0.0000       1.760846        47.9151 
 438   0.0000       1.762631        47.9636 
 439   0.0000       1.763542        47.9884 
 440   0.0000       1.765625        48.0451 
 441   0.0000       1.769156        48.1412 
 442   0.0000       1.771987        48.2182 
 443   0.0000       1.774321        48.2817 
 444   0.0000       1.779073        48.4110 
 445   0.0000       1.780115        48.4394 
 446   0.0000       1.782083        48.4929 
 447   0.0000       1.784032        48.5460 
 448   0.0000       1.786002        48.5996 
 449   0.0000       1.788010        48.6542 
 450   0.0000       1.790351        48.7179 
 451   0.0000       1.796471        48.8845 
 452   0.0000       1.797631        48.9160 
 453   0.0000       1.801746        49.0280 
 454   0.0000       1.803408        49.0732 
 455   0.0000       1.807302        49.1792 
 456   0.0000       1.808503        49.2119 
 457   0.0000       1.810683        49.2712 
 458   0.0000       1.813587        49.3502 
 459   0.0000       1.818302        49.4785 
 460   0.0000       1.819226        49.5037 
 461   0.0000       1.822750        49.5995 
 462   0.0000       1.825512        49.6747 
 463   0.0000       1.832528        49.8656 
 464   0.0000       1.835814        49.9550 
 465   0.0000       1.838611        50.0312 
 466   0.0000       1.846202        50.2377 
 467   0.0000       1.853641        50.4401 
 468   0.0000       1.857912        50.5564 
 469   0.0000       1.866717        50.7960 
 470   0.0000       1.873761        50.9876 
 471   0.0000       1.878861        51.1264 
 472   0.0000       1.880071        51.1593 
 473   0.0000       1.899783        51.6957 
 474   0.0000       1.919349        52.2281 
 475   0.0000       1.928951        52.4894 
 476   0.0000       1.929764        52.5115 
 477   0.0000       1.940489        52.8034 
 478   0.0000       1.945631        52.9433 
 479   0.0000       1.958759        53.3005 
 480   0.0000       1.963865        53.4395 
 481   0.0000       1.967042        53.5259 
 482   0.0000       1.970372        53.6166 
 483   0.0000       1.973794        53.7097 
 484   0.0000       1.980400        53.8894 
 485   0.0000       1.982617        53.9498 
 486   0.0000       1.997652        54.3589 
 487   0.0000       2.002285        54.4850 
 488   0.0000       2.007598        54.6295 
 489   0.0000       2.027462        55.1700 
 490   0.0000       2.028719        55.2042 
 491   0.0000       2.035153        55.3793 
 492   0.0000       2.041973        55.5649 
 493   0.0000       2.051042        55.8117 
 494   0.0000       2.067060        56.2476 
 495   0.0000       2.080506        56.6135 
 496   0.0000       2.084460        56.7210 
 497   0.0000       2.094152        56.9848 
 498   0.0000       2.095289        57.0157 
 499   0.0000       2.116023        57.5799 
 500   0.0000       2.119895        57.6853 
 501   0.0000       2.123447        57.7819 
 502   0.0000       2.185747        59.4772 
 503   0.0000       2.313120        62.9432 
 504   0.0000       2.332892        63.4812 
 505   0.0000       2.400038        65.3083 
 506   0.0000       2.460044        66.9412 
 507   0.0000       2.513855        68.4055 
 508   0.0000       2.526937        68.7614 
 509   0.0000       2.536921        69.0331 
 510   0.0000       2.604517        70.8725 
 511   0.0000       2.676479        72.8307 
 512   0.0000       2.697863        73.4126 
 513   0.0000       2.717085        73.9357 
 514   0.0000       2.723884        74.1207 
 515   0.0000       2.733045        74.3699 
 516   0.0000       2.734576        74.4116 
 517   0.0000       2.758349        75.0585 
 518   0.0000       2.770149        75.3796 
 519   0.0000       2.772862        75.4534 
 520   0.0000       2.808970        76.4360 
 521   0.0000       2.821791        76.7848 
 522   0.0000       3.322287        90.4040 
 523   0.0000       3.455806        94.0373 
 524   0.0000       3.456486        94.0558 
 525   0.0000       3.462499        94.2194 
 526   0.0000       3.466340        94.3239 
 527   0.0000       3.468283        94.3768 
 528   0.0000       3.470378        94.4338 
 529   0.0000       3.475574        94.5752 
 530   0.0000       3.648977        99.2937 
 531   0.0000       3.679684       100.1293 
 532   0.0000       3.717507       101.1585 
 533   0.0000       3.742507       101.8388 
 534   0.0000       3.750956       102.0687 
 535   0.0000      23.919141       650.8729 
 536   0.0000      24.078099       655.1984 
 537   0.0000      24.207479       658.7190 
 538   0.0000      24.460209       665.5961 
 539   0.0000      24.594431       669.2485 
 540   0.0000      24.772186       674.0855 
 541   0.0000      24.932184       678.4392 
 542   0.0000      25.023630       680.9276 
 543   0.0000      25.030733       681.1209 
 544   0.0000      25.433228       692.0733 
 545   0.0000      25.459670       692.7928 
 546   0.0000      25.579759       696.0606 
 547   0.0000      25.609604       696.8728 
 548   0.0000      25.744119       700.5331 
 549   0.0000      25.794276       701.8979 
 550   0.0000      25.870174       703.9632 
 551   0.0000      25.971423       706.7183 
 552   0.0000      25.987749       707.1626 
 553   0.0000      26.168177       712.0723 
 554   0.0000      26.288984       715.3596 
 555   0.0000      26.433561       719.2938 
 556   0.0000      26.543987       722.2986 
 557   0.0000      26.570365       723.0164 
 558   0.0000      26.619599       724.3561 
 559   0.0000      26.635221       724.7812 
 560   0.0000      26.712471       726.8833 
 561   0.0000      26.880665       731.4601 
 562   0.0000      27.016085       735.1451 
 563   0.0000      27.027453       735.4544 
 564   0.0000      27.314815       743.2739 
 565   0.0000      27.321944       743.4679 
 566   0.0000      27.637961       752.0672 
 567   0.0000      27.686977       753.4009 
 568   0.0000      27.822480       757.0882 
 569   0.0000      27.851546       757.8791 
 570   0.0000      27.947588       760.4925 
 571   0.0000      27.954927       760.6922 
 572   0.0000      28.568827       777.3973 
 573   0.0000      29.227196       795.3124 
 574   0.0000      30.249992       823.1441 
[...]
      pz      :    -0.049718  p :    -0.098869
      px      :    -0.013511
      py      :    -0.035639
      dz2     :    -0.006992  d :    -0.001449
      dxz     :     0.001958
      dyz     :     0.004213
      dx2y2   :    -0.004187
      dxy     :     0.003558
      f0      :     0.000014  f :     0.000013
      f+1     :    -0.000000
      f-1     :    -0.000027
      f+2     :    -0.000024
      f-2     :     0.000074
      f+3     :    -0.000041
      f-3     :     0.000017
  5 Aus       :    -0.025248  s :    -0.025248
      pz      :    -0.017307  p :    -0.035230
      px      :    -0.017336
      py      :    -0.000588
      dz2     :    -0.001501  d :     0.000502
      dxz     :    -0.001203
      dyz     :     0.004952
      dx2y2   :    -0.003830
      dxy     :     0.002083
      f0      :     0.000017  f :     0.000043
      f+1     :    -0.000048
      f-1     :     0.000002
      f+2     :    -0.000007
      f-2     :     0.000071
      f+3     :     0.000030
      f-3     :    -0.000023
  6 Aus       :    -0.081936  s :    -0.081936
      pz      :    -0.023786  p :    -0.024506
      px      :     0.003456
      py      :    -0.004176
      dz2     :    -0.004816  d :     0.007593
      dxz     :     0.002780
      dyz     :     0.004405
      dx2y2   :     0.003745
      dxy     :     0.001479
      f0      :     0.000006  f :     0.000173
      f+1     :     0.000010
      f-1     :     0.000023
      f+2     :     0.000023
      f-2     :     0.000094
      f+3     :     0.000001
      f-3     :     0.000016
  7 Aus       :    -0.095304  s :    -0.095304
      pz      :    -0.000168  p :    -0.148978
      px      :    -0.064932
      py      :    -0.083877
      dz2     :     0.004738  d :    -0.009030
      dxz     :    -0.004936
      dyz     :    -0.002593
      dx2y2   :    -0.004097
      dxy     :    -0.002141
      f0      :     0.000085  f :     0.000051
      f+1     :     0.000024
      f-1     :     0.000042
      f+2     :    -0.000023
      f-2     :    -0.000013
      f+3     :    -0.000017
      f-3     :    -0.000047
  8 Aus       :    -0.105043  s :    -0.105043
      pz      :     0.002444  p :    -0.008564
      px      :     0.009719
      py      :    -0.020727
      dz2     :    -0.000164  d :    -0.010266
      dxz     :     0.001190
      dyz     :    -0.004389
      dx2y2   :    -0.002129
      dxy     :    -0.004774
      f0      :     0.000007  f :     0.000107
      f+1     :     0.000027
      f-1     :    -0.000013
      f+2     :     0.000027
      f-2     :     0.000032
      f+3     :     0.000003
      f-3     :     0.000022
  9 Aus       :    -0.098656  s :    -0.098656
      pz      :    -0.005349  p :    -0.012012
      px      :    -0.009777
      py      :     0.003114
      dz2     :     0.004390  d :    -0.009974
      dxz     :    -0.002158
      dyz     :     0.004233
      dx2y2   :    -0.005796
      dxy     :    -0.010643
      f0      :     0.000017  f :     0.000098
      f+1     :    -0.000025
      f-1     :     0.000030
      f+2     :     0.000029
      f-2     :     0.000052
      f+3     :     0.000005
      f-3     :    -0.000011
 10 Aus       :     0.022691  s :     0.022691
      pz      :    -0.025857  p :    -0.063006
      px      :    -0.004336
      py      :    -0.032814
      dz2     :    -0.006034  d :    -0.028454
      dxz     :    -0.013047
      dyz     :     0.000615
      dx2y2   :    -0.005308
      dxy     :    -0.004680
      f0      :    -0.000014  f :    -0.000150
      f+1     :    -0.000063
      f-1     :    -0.000003
      f+2     :    -0.000007
      f-2     :    -0.000035
      f+3     :    -0.000026
      f-3     :    -0.000002
 11 Aus       :     0.021282  s :     0.021282
      pz      :    -0.044629  p :    -0.052149
      px      :    -0.005690
      py      :    -0.001830
      dz2     :    -0.007131  d :    -0.012647
      dxz     :    -0.007543
      dyz     :     0.000762
      dx2y2   :     0.000917
      dxy     :     0.000347
      f0      :    -0.000007  f :    -0.000072
      f+1     :    -0.000026
      f-1     :    -0.000020
      f+2     :    -0.000003
      f-2     :    -0.000007
      f+3     :     0.000008
      f-3     :    -0.000017
 12 Aus       :     0.025465  s :     0.025465
      pz      :    -0.037873  p :    -0.058985
      px      :    -0.021960
      py      :     0.000848
      dz2     :     0.000059  d :    -0.028123
      dxz     :    -0.004327
      dyz     :    -0.019145
      dx2y2   :    -0.000523
      dxy     :    -0.004187
      f0      :    -0.000001  f :    -0.000148
      f+1     :    -0.000010
      f-1     :    -0.000008
      f+2     :    -0.000100
      f-2     :    -0.000020
      f+3     :    -0.000006
      f-3     :    -0.000002
 13 Aus       :    -0.081077  s :    -0.081077
      pz      :    -0.005015  p :    -0.055271
      px      :    -0.029028
      py      :    -0.021228
      dz2     :     0.001671  d :     0.013109
      dxz     :     0.007287
      dyz     :     0.001572
      dx2y2   :     0.000635
      dxy     :     0.001944
      f0      :     0.000012  f :     0.000121
      f+1     :     0.000033
      f-1     :     0.000000
      f+2     :     0.000029
      f-2     :     0.000052
      f+3     :    -0.000008
      f-3     :     0.000003
 14 Mns       :     0.018505  s :     0.018505
      pz      :     0.010855  p :     0.028333
      px      :     0.007146
      py      :     0.010332
      dz2     :     0.902675  d :     4.416508
      dxz     :     0.873602
      dyz     :     0.812687
      dx2y2   :     0.920553
      dxy     :     0.906992
      f0      :     0.000002  f :     0.000017
      f+1     :     0.000003
      f-1     :     0.000004
      f+2     :     0.000002
      f-2     :     0.000001
      f+3     :     0.000004
      f-3     :     0.000001


                      *****************************
                      * MAYER POPULATION ANALYSIS *
                      *****************************

  NA   - Mulliken gross atomic population
  ZA   - Total nuclear charge
  QA   - Mulliken gross atomic charge
  VA   - Mayer's total valence
  BVA  - Mayer's bonded valence
  FA   - Mayer's free valence

  ATOM       NA         ZA         QA         VA         BVA        FA
  0 Au    18.7171    19.0000     0.2829     1.2953     1.2732     0.0221
  1 Au    18.9339    19.0000     0.0661     1.6917     1.6572     0.0346
  2 Au    18.7770    19.0000     0.2230     1.4128     1.4112     0.0017
  3 Au    18.6851    19.0000     0.3149     1.3361     1.3322     0.0039
  4 Au    18.7103    19.0000     0.2897     1.2915     1.2669     0.0245
  5 Au    18.6866    19.0000     0.3134     1.3358     1.3320     0.0038
  6 Au    18.9288    19.0000     0.0712     1.6906     1.6497     0.0409
  7 Au    18.6804    19.0000     0.3196     1.3523     1.2840     0.0683
  8 Au    19.0981    19.0000    -0.0981     1.8555     1.7861     0.0694
  9 Au    19.1060    19.0000    -0.1060     1.8549     1.7924     0.0625
 10 Au    18.6771    19.0000     0.3229     1.3092     1.3024     0.0068
 11 Au    18.8027    19.0000     0.1973     1.4465     1.4396     0.0069
 12 Au    18.6817    19.0000     0.3183     1.3108     1.3045     0.0063
 13 Au    19.2459    19.0000    -0.2459     1.9728     1.9236     0.0492
 14 Mn    27.2692    25.0000    -2.2692     9.5085     5.0230     4.4855

  Mayer bond orders larger than 0.100000
B(  0-Au,  5-Au) :   0.1955 B(  0-Au,  6-Au) :   0.1885 B(  0-Au,  7-Au) :   0.1213 
B(  0-Au,  8-Au) :   0.1279 B(  0-Au, 14-Mn) :   0.4337 B(  1-Au,  3-Au) :   0.1749 
B(  1-Au,  4-Au) :   0.1879 B(  1-Au,  9-Au) :   0.1208 B(  1-Au, 12-Au) :   0.3076 
B(  1-Au, 13-Au) :   0.1495 B(  1-Au, 14-Mn) :   0.4653 B(  2-Au,  3-Au) :   0.1271 
B(  2-Au,  5-Au) :   0.1330 B(  2-Au, 13-Au) :   0.2996 B(  2-Au, 14-Mn) :   0.4991 
B(  3-Au,  4-Au) :   0.1990 B(  3-Au,  5-Au) :   0.2296 B(  3-Au, 14-Mn) :   0.3836 
B(  4-Au,  7-Au) :   0.1181 B(  4-Au,  9-Au) :   0.1243 B(  4-Au, 14-Mn) :   0.4345 
B(  5-Au,  6-Au) :   0.1697 B(  5-Au, 14-Mn) :   0.3834 B(  6-Au,  8-Au) :   0.1279 
B(  6-Au, 10-Au) :   0.2991 B(  6-Au, 13-Au) :   0.1454 B(  6-Au, 14-Mn) :   0.4651 
B(  7-Au,  8-Au) :   0.1917 B(  7-Au,  9-Au) :   0.2046 B(  7-Au, 14-Mn) :   0.4397 
B(  8-Au,  9-Au) :   0.2083 B(  8-Au, 10-Au) :   0.2481 B(  8-Au, 11-Au) :   0.2450 
B(  8-Au, 14-Mn) :   0.4547 B(  9-Au, 11-Au) :   0.2527 B(  9-Au, 12-Au) :   0.2444 
B(  9-Au, 14-Mn) :   0.4547 B( 10-Au, 11-Au) :   0.2208 B( 10-Au, 13-Au) :   0.2574 
B( 11-Au, 12-Au) :   0.2210 B( 11-Au, 13-Au) :   0.2345 B( 12-Au, 13-Au) :   0.2511 
B( 13-Au, 14-Mn) :   0.3454 

-------
TIMINGS
-------

Total SCF time: 0 days 0 hours 10 min 43 sec 

Total time                  ....     643.288 sec
Sum of individual times     ....     639.559 sec  ( 99.4%)

Fock matrix formation       ....     614.892 sec  ( 95.6%)
  Split-RI-J                ....      41.908 sec  (  6.8% of F)
  Chain of spheres X        ....     502.556 sec  ( 81.7% of F)
  XC integration            ....      68.362 sec  ( 11.1% of F)
    Basis function eval.    ....       9.137 sec  ( 13.4% of XC)
    Density eval.           ....      34.021 sec  ( 49.8% of XC)
    XC-Functional eval.     ....       0.917 sec  (  1.3% of XC)
    XC-Potential eval.      ....      19.194 sec  ( 28.1% of XC)
Diagonalization             ....      12.509 sec  (  1.9%)
Density matrix formation    ....       0.374 sec  (  0.1%)
Population analysis         ....       0.289 sec  (  0.0%)
Initial guess               ....       0.675 sec  (  0.1%)
Orbital Transformation      ....       0.000 sec  (  0.0%)
Orbital Orthonormalization  ....       0.601 sec  (  0.1%)
DIIS solution               ....       4.725 sec  (  0.7%)
Grid generation             ....       6.096 sec  (  0.9%)

Maximum memory used throughout the entire SCF-calculation: 148.0 MB


           ************************************************************
           *        Program running with 6 parallel MPI-processes     *
           *              working on a common directory               *
           ************************************************************

------------------------------------------------------------------------------
                                ORCA  MP2 
------------------------------------------------------------------------------

Freezing NCore=10 chemical core electrons

   <<< Use J-auxbasis for calculation of Separable RI-J derivative contributions (Dim=1335) >>> 


-------------
RI-MP2 ENERGY
-------------
Dimension of the basis                    ...  605
Memory devoted to MP2                     ...  256 MB   
Data format for buffers                   ... DOUBLE
Compression type for matrix containers    ... UNCOMPRESSED
Overall scaling of the MP2 energy         ...   2.700e-01
Calculating two index integrals           ... done (    0.079 sec)
Cholesky decomposition of V**-1           ... done (    0.968 sec)

-----------------
RI-TRANSFORMATION (AUX index driven)
-----------------

Dimension of the orbital-basis         ... 605
Dimension of the aux-basis             ... 2296
Transformation of internal/external MOs...    5- 146 to  147- 604
Number Format for Storage              ... Double (8 Byte)
Integral mode                          ... Direct

First Phase: integral generation and transformation of MO indices
  Aux angular momentum 0               ... done (    0.765 sec)
  Aux angular momentum 1               ... done (    1.743 sec)
  Aux angular momentum 2               ... done (    2.651 sec)
  Aux angular momentum 3               ... done (    2.164 sec)
  Aux angular momentum 4               ... done (    1.328 sec)
  Aux angular momentum 5               ... done (    1.115 sec)
Closing buffer VIA ( 1.11 GB; CompressionRatio= 1.00)
  Phase 1 completed in    12.321 sec
Second Phase: sorting and transformation of aux index

IA-Transformation
Memory available                       ... 164 MB 
Max. # MO pairs treated in a batch     ... 19    
# of internal orbitals                 ... 142
# batches for internal orbitals        ... 2
Closing buffer IAV ( 1.11 GB; CompressionRatio= 1.00)
(ia|v) transformation done in    13.092 sec

  Phase 2 completed in    13.659 sec
RI-Integral transformation completed in    25.981 sec

-----------------
RI-TRANSFORMATION (AUX index driven)
-----------------

Dimension of the orbital-basis         ... 605
Dimension of the aux-basis             ... 2296
Transformation of internal/external MOs...    5- 143 to  144- 604
Number Format for Storage              ... Double (8 Byte)
Integral mode                          ... Direct

First Phase: integral generation and transformation of MO indices
  Aux angular momentum 0               ... done (    0.732 sec)
  Aux angular momentum 1               ... done (    1.771 sec)
  Aux angular momentum 2               ... done (    2.663 sec)
  Aux angular momentum 3               ... done (    2.730 sec)
  Aux angular momentum 4               ... done (    2.293 sec)
  Aux angular momentum 5               ... done (    1.947 sec)
Closing buffer VIA ( 1.10 GB; CompressionRatio= 1.00)
  Phase 1 completed in    12.294 sec
Second Phase: sorting and transformation of aux index

IA-Transformation
Memory available                       ... 164 MB 
Max. # MO pairs treated in a batch     ... 19    
# of internal orbitals                 ... 139
# batches for internal orbitals        ... 2
Closing buffer IAV ( 1.10 GB; CompressionRatio= 1.00)
(ia|v) transformation done in    13.239 sec

  Phase 2 completed in    13.533 sec
RI-Integral transformation completed in    25.828 sec
Opening buffers                              ... done

Starting loop over batches of integrals:

Operator 0  - window                       ... (  5-146)x(147-604)
Operator 0  - Memory available             ...   256 MB
Operator 0  - Memory needed per MO         ...   8.0 MB
Operator 0  - Number of orbitals per batch ... 22
Operator 0  - Number of batches            ... 2

OPERATOR  0   PASS   0:  MOs     5 ...   26 +   27 ...   48 +   49 ...   70 +   71 ...   92
                            +   93 ...  114 +  115 ...  136
  Reading integrals       ... ok
  Internal MO   7
  Internal MO  10
  Internal MO  13
  Internal MO  16
  Internal MO  19
  Internal MO  22
  Internal MO  25
OPERATOR  0   PASS   1:  MOs   137 ...  138 +  139 ...  140 +  141 ...  142 +  143 ...  144
                            +  145 ...  145 +  146 ...  146
  Reading integrals       ... ok

Operator 1  - window                       ... (  5-143)x(144-604)
Operator 1  - Memory available             ...   256 MB
Operator 1  - Memory needed per MO         ...   8.1 MB
Operator 1  - Number of orbitals per batch ... 22
Operator 1  - Number of batches            ... 2

OPERATOR  1   PASS   0:  MOs     5 ...   26 +   27 ...   48 +   49 ...   70 +   71 ...   92
                            +   93 ...  114 +  115 ...  136
  Reading integrals       ... ok
  Internal MO   7
  Internal MO  10
  Internal MO  13
  Internal MO  16
  Internal MO  19
  Internal MO  22
  Internal MO  25
OPERATOR  1   PASS   1:  MOs   137 ...  138 +  139 ...  139 +  140 ...  140 +  141 ...  141
                            +  142 ...  142 +  143 ...  143
  Reading integrals       ... ok
Time spent in pair loops =   844.611 sec
Deleting buffer (Ka|jb)[aa] ...done
Deleting buffer (Ka|jb)[ba] ...done
Deleting buffer (Ka|jb)[ab] ...done
Deleting buffer (Ka|jb)[bb] ...done

Correlation energy components}
 E2 and T2 for alpha/alpha pairs :     -0.424690958 Eh      0.000000000
 E2 and T2 for beta/beta   pairs :     -0.419561035 Eh      0.000000000
 E2 and T2 for alpha/beta  pairs :     -1.422009867 Eh      0.000000000


-----------------------------------------------
 RI-MP2 CORRELATION ENERGY:     -2.266261861 Eh
-----------------------------------------------


-------
TIMINGS
-------

Total time                :  911.253 sec
Integral trafo            :   51.849 sec (  5.7%)
I/O of integrals          :    0.273 sec (  0.0%)
K(i,j) Operators          :  510.971 sec ( 56.1%)
T(i,j) pair energies      :    5.758 sec (  0.6%)
V-calculation             :    0.079 sec (  0.0%)
V**(-1/2)                 :    0.968 sec (  0.1%)
Gamma(ia|P)               :    0.000 sec (  0.0%)
Gamma-Trafo               :    0.000 sec (  0.0%)
D(virtual)                :    0.000 sec (  0.0%)
D(internal)               :    0.000 sec (  0.0%)
W(virtual)                :    0.000 sec (  0.0%)
W(internal)               :    0.000 sec (  0.0%)
L(virtual)                :    0.000 sec (  0.0%)
L(internal)               :    0.000 sec (  0.0%)
G(D)                      :    0.000 sec (  0.0%)
G(Z)                      :    0.000 sec (  0.0%)
Z-Vector Solution         :    0.000 sec (  0.0%)
3-Index Derivative        :    0.000 sec (  0.0%)
2-Index Derivative        :    0.000 sec (  0.0%)
Separable Gradient (RIJ)  :    0.000 sec (  0.0%)
Separable Gradient (COSX) :    0.000 sec (  0.0%)


---------------------------------------
MP2 TOTAL ENERGY:    -3049.064692261 Eh
---------------------------------------

Maximum memory used throughout the entire MP2-calculation: 300.2 MB

-------------------------   --------------------
FINAL SINGLE POINT ENERGY     -3049.064692261386
-------------------------   --------------------


                            ***************************************
                            *     ORCA property calculations      *
                            ***************************************


  WARNING: The energy has been calculated at the MP2 level but the densities
           used in the property calculations are still SCF densities
           MP2 response densities have not been calculated 
           use %mp2 Density relaxed end
           or  %mp2 Density unrelaxed end

                                    ---------------------
                                    Active property flags
                                    ---------------------
   (+) Dipole Moment


------------------------------------------------------------------------------
                       ORCA ELECTRIC PROPERTIES CALCULATION
------------------------------------------------------------------------------

Dipole Moment Calculation                       ... on
Quadrupole Moment Calculation                   ... off
Polarizability Calculation                      ... off
GBWName                                         ... b2plyp_job2.gbw
Electron density                                ... b2plyp_job2.scfp
The origin for moment calculation is the CENTER OF MASS  = (13.899067, 15.099965 13.863515)

-------------
DIPOLE MOMENT
-------------
                                X             Y             Z
Electronic contribution:    -23.63270      11.30638      -2.50586
Nuclear contribution   :     23.52579     -11.26818       2.51209
                        -----------------------------------------
Total Dipole Moment    :     -0.10691       0.03819       0.00623
                        -----------------------------------------
Magnitude (a.u.)       :      0.11370
Magnitude (Debye)      :      0.28901



--------------------
Rotational spectrum 
--------------------
 
Rotational constants in cm-1:     0.001161     0.001028     0.000926 
Rotational constants in MHz :    34.813629    30.830963    27.761768 

 Dipole components along the rotational axes: 
x,y,z [a.u.] :     0.112624    -0.008876    -0.012860 
x,y,z [Debye]:     0.286267    -0.022560    -0.032687 

 

Timings for individual modules:

Sum of individual times         ...     1579.468 sec (=  26.324 min)
GTO integral calculation        ...       24.002 sec (=   0.400 min)   1.5 %
SCF iterations                  ...      643.555 sec (=  10.726 min)  40.7 %
MP2 module                      ...      911.912 sec (=  15.199 min)  57.7 %



                             ****ORCA TERMINATED NORMALLY****
TOTAL RUN TIME: 0 days 1 hours 31 minutes 57 seconds 774 msec
