
                                 *****************
                                 * O   R   C   A *
                                 *****************

                                            #,                                       
                                            ###                                      
                                            ####                                     
                                            #####                                    
                                            ######                                   
                                           ########,                                 
                                     ,,################,,,,,                         
                               ,,#################################,,                 
                          ,,##########################################,,             
                       ,#########################################, ''#####,          
                    ,#############################################,,   '####,        
                  ,##################################################,,,,####,       
                ,###########''''           ''''###############################       
              ,#####''   ,,,,##########,,,,          '''####'''          '####       
            ,##' ,,,,###########################,,,                        '##       
           ' ,,###''''                  '''############,,,                           
         ,,##''                                '''############,,,,        ,,,,,,###''
      ,#''                                            '''#######################'''  
     '                                                          ''''####''''         
             ,#######,   #######,   ,#######,      ##                                
            ,#'     '#,  ##    ##  ,#'     '#,    #''#        ######   ,####,        
            ##       ##  ##   ,#'  ##            #'  '#       #        #'  '#        
            ##       ##  #######   ##           ,######,      #####,   #    #        
            '#,     ,#'  ##    ##  '#,     ,#' ,#      #,         ##   #,  ,#        
             '#######'   ##     ##  '#######'  #'      '#     #####' # '####'        



                  #######################################################
                  #                        -***-                        #
                  #          Department of theory and spectroscopy      #
                  #    Directorship and core code : Frank Neese         #
                  #        Max Planck Institute fuer Kohlenforschung    #
                  #                Kaiser Wilhelm Platz 1               #
                  #                 D-45470 Muelheim/Ruhr               #
                  #                      Germany                        #
                  #                                                     #
                  #                  All rights reserved                #
                  #                        -***-                        #
                  #######################################################


                         Program Version 5.0.3 -  RELEASE  -


 With contributions from (in alphabetic order):
   Daniel Aravena         : Magnetic Suceptibility
   Michael Atanasov       : Ab Initio Ligand Field Theory (pilot matlab implementation)
   Alexander A. Auer      : GIAO ZORA, VPT2 properties, NMR spectrum
   Ute Becker             : Parallelization
   Giovanni Bistoni       : ED, misc. LED, open-shell LED, HFLD
   Martin Brehm           : Molecular dynamics
   Dmytro Bykov           : SCF Hessian
   Vijay G. Chilkuri      : MRCI spin determinant printing, contributions to CSF-ICE
   Dipayan Datta          : RHF DLPNO-CCSD density
   Achintya Kumar Dutta   : EOM-CC, STEOM-CC
   Dmitry Ganyushin       : Spin-Orbit,Spin-Spin,Magnetic field MRCI
   Miquel Garcia          : C-PCM and meta-GGA Hessian, CC/C-PCM, Gaussian charge scheme
   Yang Guo               : DLPNO-NEVPT2, F12-NEVPT2, CIM, IAO-localization
   Andreas Hansen         : Spin unrestricted coupled pair/coupled cluster methods
   Benjamin Helmich-Paris : MC-RPA, TRAH-SCF, COSX integrals
   Lee Huntington         : MR-EOM, pCC
   Robert Izsak           : Overlap fitted RIJCOSX, COSX-SCS-MP3, EOM
   Marcus Kettner         : VPT2
   Christian Kollmar      : KDIIS, OOCD, Brueckner-CCSD(T), CCSD density, CASPT2, CASPT2-K
   Simone Kossmann        : Meta GGA functionals, TD-DFT gradient, OOMP2, MP2 Hessian
   Martin Krupicka        : Initial AUTO-CI
   Lucas Lang             : DCDCAS
   Marvin Lechner         : AUTO-CI (C++ implementation), FIC-MRCC
   Dagmar Lenk            : GEPOL surface, SMD
   Dimitrios Liakos       : Extrapolation schemes; Compound Job, initial MDCI parallelization
   Dimitrios Manganas     : Further ROCIS development; embedding schemes
   Dimitrios Pantazis     : SARC Basis sets
   Anastasios Papadopoulos: AUTO-CI, single reference methods and gradients
   Taras Petrenko         : DFT Hessian,TD-DFT gradient, ASA, ECA, R-Raman, ABS, FL, XAS/XES, NRVS
   Peter Pinski           : DLPNO-MP2, DLPNO-MP2 Gradient
   Christoph Reimann      : Effective Core Potentials
   Marius Retegan         : Local ZFS, SOC
   Christoph Riplinger    : Optimizer, TS searches, QM/MM, DLPNO-CCSD(T), (RO)-DLPNO pert. Triples
   Tobias Risthaus        : Range-separated hybrids, TD-DFT gradient, RPA, STAB
   Michael Roemelt        : Original ROCIS implementation
   Masaaki Saitow         : Open-shell DLPNO-CCSD energy and density
   Barbara Sandhoefer     : DKH picture change effects
   Avijit Sen             : IP-ROCIS
   Kantharuban Sivalingam : CASSCF convergence, NEVPT2, FIC-MRCI
   Bernardo de Souza      : ESD, SOC TD-DFT
   Georgi Stoychev        : AutoAux, RI-MP2 NMR, DLPNO-MP2 response
   Willem Van den Heuvel  : Paramagnetic NMR
   Boris Wezisla          : Elementary symmetry handling
   Frank Wennmohs         : Technical directorship


 We gratefully acknowledge several colleagues who have allowed us to
 interface, adapt or use parts of their codes:
   Stefan Grimme, W. Hujo, H. Kruse, P. Pracht,  : VdW corrections, initial TS optimization,
                  C. Bannwarth, S. Ehlert          DFT functionals, gCP, sTDA/sTD-DF
   Ed Valeev, F. Pavosevic, A. Kumar             : LibInt (2-el integral package), F12 methods
   Garnet Chan, S. Sharma, J. Yang, R. Olivares  : DMRG
   Ulf Ekstrom                                   : XCFun DFT Library
   Mihaly Kallay                                 : mrcc  (arbitrary order and MRCC methods)
   Jiri Pittner, Ondrej Demel                    : Mk-CCSD
   Frank Weinhold                                : gennbo (NPA and NBO analysis)
   Christopher J. Cramer and Donald G. Truhlar   : smd solvation model
   Lars Goerigk                                  : TD-DFT with DH, B97 family of functionals
   V. Asgeirsson, H. Jonsson                     : NEB implementation
   FAccTs GmbH                                   : IRC, NEB, NEB-TS, DLPNO-Multilevel, CI-OPT
                                                   MM, QMMM, 2- and 3-layer-ONIOM, Crystal-QMMM,
                                                   LR-CPCM, SF, NACMEs, symmetry and pop. for TD-DFT,
                                                   nearIR, NL-DFT gradient (VV10), updates on ESD,
                                                   ML-optimized integration grids
   S Lehtola, MJT Oliveira, MAL Marques          : LibXC Library
   Liviu Ungur et al                             : ANISO software


 Your calculation uses the libint2 library for the computation of 2-el integrals
 For citations please refer to: http://libint.valeyev.net

 Your ORCA version has been built with support for libXC version: 5.1.0
 For citations please refer to: https://tddft.org/programs/libxc/

 This ORCA versions uses:
   CBLAS   interface :  Fast vector & matrix operations
   LAPACKE interface :  Fast linear algebra routines
   SCALAPACK package :  Parallel linear algebra routines
   Shared memory     :  Shared parallel matrices
   BLAS/LAPACK       :  OpenBLAS 0.3.15  USE64BITINT DYNAMIC_ARCH NO_AFFINITY Haswell SINGLE_THREADED
        Core in use  :  Haswell
   Copyright (c) 2011-2014, The OpenBLAS Project




***************************************
The coordinates will be read from file: 6.xyz
***************************************


================================================================================

cite the ECPs for Au [Def2-ECP] as follows:
Ce-Yb(ecp-28): M. Dolg, H. Stoll, H.Preuss, J. Chem. Phys., 1989, 90, 1730-1734.
Y-Cd(ecp-28), Hf-Hg(ecp-46): D. Andrae,U. Haeussermann, M. Dolg, H. Stoll, H. Preuss, Theor. Chim. Acta, 1990, 77, 123-141.
In-Sb(ecp-28), Tl-Bi(ecp-46): B. Metz, H. Stoll, M. Dolg, J. Chem. Phys., 2000, 113, 2563-2569.
Te-Xe(ecp-28), Po-Rn(ecp-46): K. A. Peterson, D. Figgen, E. Goll, H. Stoll, M. Dolg, J. Chem. Phys., 2003, 119, 11113-11123.
Rb(ecp-28), Cs(ecp-46): T. Leininger, A. Nicklass, W. Kuechle, H. Stoll, M. Dolg, A. Bergner, Chem. Phys. Lett., 1996, 255, 274-280.
Sr(ecp-28), Ba(ecp-46): M. Kaupp, P. V. Schleyer, H. Stoll and H. Preuss, J. Chem. Phys., 1991, 94, 1360-1366.
La(ecp-46): M. Dolg, H. Stoll, A. Savin, H. Preuss, Theor. Chim. Acta, 1989, 75, 173-194.
Lu(ecp-28): X. Cao, M. Dolg, J. Chem. Phys., 2001, 115, 7348-7355.

ECP parameters for Au [Def2-ECP] have been obtained from:
TURBOMOLE (7.0.2)

----- Orbital basis set information -----
Your calculation utilizes the basis: def2-TZVP
   F. Weigend and R. Ahlrichs, Phys. Chem. Chem. Phys. 7, 3297 (2005).

----- AuxJ basis set information -----
Your calculation utilizes the auxiliary basis: def2/J
   F. Weigend, Phys. Chem. Chem. Phys. 8, 1057 (2006).

================================================================================
                                        WARNINGS
                       Please study these warnings very carefully!
================================================================================


WARNING: your system is open-shell and RHF/RKS was chosen
  ===> : WILL SWITCH to UHF/UKS


WARNING: Geometry Optimization
  ===> : Switching off AutoStart
         For restart on a previous wavefunction, please use MOREAD

INFO   : the flag for use of the SHARK integral package has been found!

================================================================================
                                       INPUT FILE
================================================================================
NAME = pbe.inp
|  1> %pal nprocs 1 end 
|  2> 
|  3> !PBE def2-TZVP OPT UNO
|  4> !SLOWCONV
|  5> 
|  6> *xyzfile 0 5 6.xyz                           ****END OF INPUT****
================================================================================

                       *****************************
                       * Geometry Optimization Run *
                       *****************************

Geometry optimization settings:
Update method            Update   .... BFGS
Choice of coordinates    CoordSys .... Z-matrix Internals
Initial Hessian          InHess   .... Almoef's Model

Convergence Tolerances:
Energy Change            TolE     ....  5.0000e-06 Eh
Max. Gradient            TolMAXG  ....  3.0000e-04 Eh/bohr
RMS Gradient             TolRMSG  ....  1.0000e-04 Eh/bohr
Max. Displacement        TolMAXD  ....  4.0000e-03 bohr
RMS Displacement         TolRMSD  ....  2.0000e-03 bohr
Strict Convergence                ....  False
------------------------------------------------------------------------------
                        ORCA OPTIMIZATION COORDINATE SETUP
------------------------------------------------------------------------------

The optimization will be done in new redundant internal coordinates
Making redundant internal coordinates   ...  (new redundants) done
Evaluating the initial hessian          ...  (Almloef) done
Evaluating the coordinates              ...  done
Calculating the B-matrix                .... done
Calculating the G-matrix                .... done
Diagonalizing the G-matrix              .... done
The first mode is                       ....  710
The number of degrees of freedom        ....   39

    -----------------------------------------------------------------
                    Redundant Internal Coordinates


    -----------------------------------------------------------------
         Definition                    Initial Value    Approx d2E/dq
    -----------------------------------------------------------------
      1. B(Au  2,Au  1)                  2.8888         0.004916   
      2. B(Au  2,Au  0)                  2.8053         0.006683   
      3. B(Au  3,Au  1)                  2.7327         0.008723   
      4. B(Au  4,Au  3)                  2.9423         0.004040   
      5. B(Au  4,Au  1)                  2.9258         0.004292   
      6. B(Au  4,Au  2)                  2.7834         0.007241   
      7. B(Au  6,Au  3)                  2.7831         0.007250   
      8. B(Au  7,Au  3)                  2.8424         0.005832   
      9. B(Au 10,Au  2)                  2.8193         0.006348   
     10. B(Au 10,Au  1)                  2.7797         0.007341   
     11. B(Au 10,Au  0)                  2.9850         0.003454   
     12. B(Au 12,Au  9)                  2.7995         0.006826   
     13. B(Au 12,Au 10)                  2.7674         0.007680   
     14. B(Au 12,Au 11)                  2.8378         0.005931   
     15. B(Au 12,Au  0)                  2.9326         0.004185   
     16. B(Au 13,Au 10)                  2.8899         0.004897   
     17. B(Au 13,Au 12)                  2.9430         0.004029   
     18. B(Au 13,Au  1)                  2.8233         0.006254   
     19. B(Fe 14,Au  9)                  2.8082         0.048055   
     20. B(Fe 14,Au  3)                  3.4010         0.005446   
     21. B(Fe 14,Au  8)                  2.8036         0.048878   
     22. B(Fe 14,Au  5)                  2.7671         0.055902   
     23. B(Fe 14,Au 10)                  3.4819         0.004045   
     24. B(Fe 14,Au  7)                  2.5482         0.124894   
     25. B(Fe 14,Au 13)                  2.6992         0.071728   
     26. B(Fe 14,Au 12)                  3.0175         0.022281   
     27. B(Fe 14,Au  1)                  3.0681         0.018502   
     28. B(Fe 14,Au 11)                  2.7395         0.061861   
     29. B(Fe 14,Au  6)                  2.8995         0.034364   
     30. B(Fe 14,Au  4)                  2.7099         0.068968   
     31. B(Fe 14,Au  0)                  2.5920         0.106333   
     32. A(Au 12,Au  0,Fe 14)           65.8750         0.180922   
     33. A(Au 10,Au  0,Au 12)           55.7559         0.126734   
     34. A(Au  2,Au  0,Au 10)           58.1754         0.130951   
     35. A(Au  2,Au  0,Au 12)          113.6436         0.132816   
     36. A(Au  2,Au  0,Fe 14)           94.5443         0.191193   
     37. A(Au 10,Au  0,Fe 14)           76.9086         0.177010   
     38. A(Au 13,Au  1,Fe 14)           54.3450         0.156765   
     39. A(Au  3,Au  1,Au 13)           94.2085         0.139968   
     40. A(Au  2,Au  1,Fe 14)           83.4628         0.153171   
     41. A(Au  3,Au  1,Au  4)           62.5515         0.135805   
     42. A(Au 10,Au  1,Fe 14)           72.8975         0.159269   
     43. A(Au  2,Au  1,Au 13)          115.3071         0.133763   
     44. A(Au  4,Au  1,Fe 14)           53.6951         0.151232   
     45. A(Au  3,Au  1,Au 10)          144.3078         0.141850   
     46. A(Au  4,Au  1,Au 10)           97.8833         0.134014   
     47. A(Au  2,Au  1,Au  4)           57.1964         0.130108   
     48. A(Au 10,Au  1,Au 13)           62.0930         0.138017   
     49. A(Au  4,Au  1,Au 13)          108.0286         0.132410   
     50. A(Au  2,Au  1,Au  3)          118.2424         0.137264   
     51. A(Au  3,Au  1,Fe 14)           71.5233         0.162065   
     52. A(Au  2,Au  1,Au 10)           59.6132         0.135417   
     53. A(Au  0,Au  2,Au  4)           67.1018         0.138603   
     54. A(Au  4,Au  2,Au 10)          100.3579         0.138028   
     55. A(Au  1,Au  2,Au  4)           62.0690         0.135272   
     56. A(Au  0,Au  2,Au 10)           64.1054         0.137147   
     57. A(Au  0,Au  2,Au  1)           88.7845         0.134440   
     58. A(Au  1,Au  2,Au 10)           58.2679         0.133914   
     59. A(Au  1,Au  3,Au  6)          109.6456         0.141700   
     60. A(Au  1,Au  3,Fe 14)           58.8273         0.144398   
     61. A(Au  1,Au  3,Au  7)           88.3061         0.139167   
     62. A(Au  6,Au  3,Fe 14)           54.8264         0.142126   
     63. A(Au  7,Au  3,Fe 14)           47.1353         0.139572   
     64. A(Au  4,Au  3,Fe 14)           49.9407         0.135540   
     65. A(Au  1,Au  3,Au  4)           61.9385         0.135167   
     66. A(Au  6,Au  3,Au  7)           62.9306         0.137109   
     67. A(Au  4,Au  3,Au  7)           95.3415         0.131145   
     68. A(Au  4,Au  3,Au  6)           59.3817         0.133274   
     69. A(Au  1,Au  4,Fe 14)           65.8378         0.172820   
     70. A(Au  1,Au  4,Au  3)           55.5100         0.128321   
     71. A(Au  2,Au  4,Fe 14)           92.4669         0.183350   
     72. A(Au  3,Au  4,Fe 14)           73.8562         0.171676   
     73. A(Au  1,Au  4,Au  2)           60.7346         0.133874   
     74. A(Au  2,Au  4,Au  3)          114.8379         0.133261   
     75. A(Au  3,Au  6,Fe 14)           73.4910         0.169609   
     76. A(Au  3,Au  7,Fe 14)           78.0239         0.191763   
     77. A(Au 12,Au  9,Fe 14)           65.1072         0.174788   
     78. A(Au  1,Au 10,Au 12)          110.4080         0.140349   
     79. A(Au  1,Au 10,Fe 14)           57.3713         0.138811   
     80. A(Au 13,Au 10,Fe 14)           49.0513         0.134449   
     81. A(Au  0,Au 10,Fe 14)           46.4760         0.130995   
     82. A(Au 12,Au 10,Au 13)           62.6489         0.135853   
     83. A(Au  0,Au 10,Au 12)           61.1646         0.132292   
     84. A(Au  1,Au 10,Au 13)           59.6945         0.135377   
     85. A(Au  0,Au 10,Au 13)           93.9137         0.128100   
     86. A(Au  0,Au 10,Au  1)           87.3560         0.131852   
     87. A(Au 12,Au 10,Fe 14)           56.3564         0.139322   
     88. A(Au  2,Au 10,Fe 14)           77.2541         0.137198   
     89. A(Au  1,Au 10,Au  2)           62.1188         0.138181   
     90. A(Au  0,Au 10,Au  2)           57.7193         0.130464   
     91. A(Au  2,Au 10,Au 12)          118.5674         0.138687   
     92. A(Au  2,Au 10,Au 13)          115.4013         0.133875   
     93. A(Au 12,Au 11,Fe 14)           65.4800         0.176990   
     94. A(Au 10,Au 12,Au 13)           60.7133         0.133830   
     95. A(Au  0,Au 12,Au 13)           93.9112         0.128074   
     96. A(Au  9,Au 12,Au 11)           63.0050         0.136639   
     97. A(Au  0,Au 12,Au 11)          102.8882         0.131647   
     98. A(Au  9,Au 12,Au 10)          119.8871         0.139510   
     99. A(Au  0,Au 12,Au 10)           63.0795         0.134217   
    100. A(Au  0,Au 12,Au  9)           59.5807         0.133025   
    101. A(Au 10,Au 12,Au 11)          116.6080         0.137928   
    102. A(Au 11,Au 12,Au 13)           59.2201         0.131282   
    103. A(Au  9,Au 12,Au 13)          106.5355         0.132648   
    104. A(Au 13,Au 12,Fe 14)           53.8362         0.152982   
    105. A(Au 11,Au 12,Fe 14)           55.6903         0.158832   
    106. A(Au 10,Au 12,Fe 14)           73.8696         0.163040   
    107. A(Au  9,Au 12,Fe 14)           57.5862         0.161089   
    108. A(Au  0,Au 12,Fe 14)           51.6267         0.153535   
    109. A(Au  1,Au 13,Au 12)          104.3463         0.131793   
    110. A(Au 12,Au 13,Fe 14)           64.4918         0.172365   
    111. A(Au 10,Au 13,Au 12)           56.6379         0.129488   
    112. A(Au  1,Au 13,Fe 14)           67.4546         0.181088   
    113. A(Au  1,Au 13,Au 10)           58.2125         0.133725   
    114. A(Au 10,Au 13,Fe 14)           76.9843         0.176128   
    115. A(Au  7,Fe 14,Au 12)          115.5184         0.245100   
    116. A(Au  5,Fe 14,Au 12)          111.3316         0.219132   
    117. A(Au  6,Fe 14,Au 13)          127.1895         0.240872   
    118. A(Au  0,Fe 14,Au 12)           62.4983         0.239518   
    119. A(Au  5,Fe 14,Au 13)          172.6142         0.258554   
    120. A(Au  0,Fe 14,Au  9)           63.5647         0.268119   
    121. A(Au  4,Fe 14,Au 13)          118.6534         0.266810   
    122. A(Au  0,Fe 14,Au 13)          108.4760         0.285116   
    123. A(Au  7,Fe 14,Au  8)           67.6107         0.275477   
    124. A(Au  4,Fe 14,Au  7)          108.8225         0.290591   
    125. A(Au  9,Fe 14,Au 11)           64.1322         0.247452   
    126. A(Au  8,Fe 14,Au 11)           61.6419         0.248061   
    127. A(Au  6,Fe 14,Au  8)           58.7010         0.228244   
    128. A(Au  3,Fe 14,Au 13)           82.8630         0.189093   
    129. A(Au  7,Fe 14,Au 11)           64.6414         0.285689   
    130. A(Au  3,Fe 14,Au 11)          118.3715         0.185796   
    131. A(Au  1,Fe 14,Au 10)           49.7313         0.157863   
    132. A(Au  3,Fe 14,Au 10)           99.3379         0.141212   
    133. A(Au  3,Fe 14,Au  9)          160.2550         0.180418   
    134. A(Au  6,Fe 14,Au 11)          111.9501         0.235870   
    135. A(Au  5,Fe 14,Au  8)           63.8752         0.244456   
    136. A(Au  5,Fe 14,Au  6)           60.1727         0.232541   
    137. A(Au  4,Fe 14,Au  5)           63.0976         0.257055   
    138. A(Au 10,Fe 14,Au 13)           53.9644         0.182579   
    139. A(Au 10,Fe 14,Au 11)           99.4052         0.179497   
    140. A(Au  3,Fe 14,Au  8)          101.8735         0.180770   
    141. A(Au  9,Fe 14,Au 10)           99.4377         0.174469   
    142. A(Au  8,Fe 14,Au 10)          156.6176         0.174798   
    143. A(Au  3,Fe 14,Au  7)           54.8408         0.202479   
    144. A(Au  5,Fe 14,Au 11)          115.9194         0.252969   
    145. A(Au  7,Fe 14,Au 10)          118.7590         0.195095   
    146. A(Au  6,Fe 14,Au 10)          144.5862         0.168222   
    147. A(Au  3,Fe 14,Au  6)           51.6827         0.173736   
    148. A(Au  5,Fe 14,Au 10)          120.2290         0.177446   
    149. A(Au  4,Fe 14,Au 10)           87.1158         0.181752   
    150. A(Au  3,Fe 14,Au  5)          103.2926         0.183602   
    151. A(Au  4,Fe 14,Au 11)          172.4051         0.260953   
    152. A(Au  4,Fe 14,Au  8)          112.9245         0.252025   
    153. A(Au  4,Fe 14,Au 12)          128.7640         0.225468   
    154. A(Au  0,Fe 14,Au 10)           56.6154         0.191301   
    155. A(Au  6,Fe 14,Au 12)          164.9658         0.205561   
    156. A(Au  3,Fe 14,Au  4)           56.2030         0.188208   
    157. A(Au  8,Fe 14,Au 12)          106.8438         0.215237   
    158. A(Au  0,Fe 14,Au  3)          123.6988         0.198421   
    159. A(Au  0,Fe 14,Au 11)          115.6261         0.278656   
    160. A(Au  8,Fe 14,Au  9)           60.9671         0.239224   
    161. A(Au  0,Fe 14,Au  8)          116.8322         0.268809   
    162. A(Au  4,Fe 14,Au  6)           60.7050         0.239530   
    163. A(Au  7,Fe 14,Au  9)          119.4407         0.274762   
    164. A(Au  1,Fe 14,Au  3)           49.6494         0.162656   
    165. A(Au  1,Fe 14,Au 13)           58.2004         0.221014   
    166. A(Au  6,Fe 14,Au  9)          108.6212         0.227710   
    167. A(Au  6,Fe 14,Au  7)           64.8686         0.261184   
    168. A(Au  1,Fe 14,Au 11)          121.2225         0.216665   
    169. A(Au  1,Fe 14,Au  9)          148.2848         0.209573   
    170. A(Au 11,Fe 14,Au 13)           63.3903         0.262487   
    171. A(Au  1,Fe 14,Au  8)          150.7316         0.210037   
    172. A(Au  1,Fe 14,Au  7)           86.9977         0.238670   
    173. A(Au  9,Fe 14,Au 13)          113.3809         0.252849   
    174. A(Au  5,Fe 14,Au  9)           61.5020         0.243860   
    175. A(Au  1,Fe 14,Au  6)           98.1010         0.200760   
    176. A(Au 10,Fe 14,Au 12)           49.7740         0.160822   
    177. A(Au  1,Fe 14,Au 12)           96.9227         0.190320   
    178. A(Au  1,Fe 14,Au  5)          122.8434         0.213772   
    179. A(Au  8,Fe 14,Au 13)          119.2897         0.253479   
    180. A(Au  3,Fe 14,Au 12)          142.0659         0.165821   
    181. A(Au 12,Fe 14,Au 13)           61.6720         0.226685   
    182. A(Au  1,Fe 14,Au  4)           60.4671         0.219847   
    183. A(Au 11,Fe 14,Au 12)           58.8297         0.222150   
    184. A(Au  9,Fe 14,Au 12)           57.3066         0.214753   
    185. A(Au  0,Fe 14,Au  1)           89.0610         0.233318   
    186. A(Au  7,Fe 14,Au 13)           67.2545         0.292389   
    187. A(Au  4,Fe 14,Au  9)          118.8755         0.251400   
    188. A(Au  5,Fe 14,Au  7)          119.5834         0.281231   
    189. A(Au  0,Fe 14,Au  6)          118.2525         0.255027   
    190. A(Au  0,Fe 14,Au  5)           64.7842         0.274357   
    191. A(Au  0,Fe 14,Au  4)           71.2247         0.283382   
    192. D(Au  0,Au  2,Au  1,Au 13)    -31.3043         0.001501   
    193. D(Au  4,Au  2,Au  1,Au 13)    -95.8846         0.001501   
    194. D(Au  4,Au  2,Au  1,Au 10)   -124.5493         0.001501   
    195. D(Au  4,Au  2,Au  1,Fe 14)    -50.5679         0.001501   
    196. D(Au  0,Au  2,Au  1,Au  3)     78.9469         0.001501   
    197. D(Au  4,Au  2,Au  0,Au 12)    109.0474         0.001502   
    198. D(Au  0,Au  2,Au  1,Au  4)     64.5803         0.001501   
    199. D(Au 10,Au  2,Au  1,Au  3)    138.9160         0.001501   
    200. D(Au  4,Au  2,Au  1,Au  3)     14.3666         0.001501   
    201. D(Au  0,Au  2,Au  1,Fe 14)     14.0124         0.001501   
    202. D(Au  1,Au  2,Au  0,Au 10)     54.9369         0.001502   
    203. D(Au  4,Au  2,Au  0,Fe 14)     43.4278         0.001502   
    204. D(Au 10,Au  2,Au  1,Au 13)     28.6647         0.001501   
    205. D(Au  4,Au  2,Au  0,Au 10)    114.9614         0.001502   
    206. D(Au 10,Au  2,Au  0,Fe 14)    -71.5335         0.001502   
    207. D(Au 10,Au  2,Au  1,Fe 14)     73.9814         0.001501   
    208. D(Au  0,Au  2,Au  1,Au 10)    -59.9690         0.001501   
    209. D(Au 10,Au  2,Au  1,Au  4)    124.5493         0.001501   
    210. D(Au  1,Au  2,Au  0,Au 12)     49.0229         0.001502   
    211. D(Au  1,Au  2,Au  0,Fe 14)    -16.5966         0.001502   
    212. D(Au 10,Au  2,Au  0,Au 12)     -5.9140         0.001502   
    213. D(Au  7,Au  3,Au  1,Au  4)    -96.9674         0.001503   
    214. D(Au  7,Au  3,Au  1,Au 13)     11.1807         0.001503   
    215. D(Fe 14,Au  3,Au  1,Au  4)    -58.0020         0.001503   
    216. D(Au  4,Au  3,Au  1,Fe 14)     58.0020         0.001503   
    217. D(Au  7,Au  3,Au  1,Au  2)   -110.5599         0.001503   
    218. D(Fe 14,Au  3,Au  1,Au  2)    -71.5945         0.001503   
    219. D(Au  4,Au  3,Au  1,Au 10)     62.7319         0.001503   
    220. D(Au  4,Au  3,Au  1,Au  2)    -13.5925         0.001503   
    221. D(Au  7,Au  3,Au  1,Fe 14)    -38.9654         0.001503   
    222. D(Au  6,Au  3,Au  1,Au  4)    -36.5688         0.001503   
    223. D(Au  6,Au  3,Au  1,Au 10)     26.1630         0.001503   
    224. D(Au  4,Au  3,Au  1,Au 13)    108.1481         0.001503   
    225. D(Au  7,Au  3,Au  1,Au 10)    -34.2355         0.001503   
    226. D(Fe 14,Au  3,Au  1,Au 13)     50.1461         0.001503   
    227. D(Fe 14,Au  3,Au  1,Au 10)      4.7299         0.001503   
    228. D(Au  6,Au  3,Au  1,Au  2)    -50.1613         0.001503   
    229. D(Au  6,Au  3,Au  1,Fe 14)     21.4332         0.001503   
    230. D(Au  6,Au  3,Au  1,Au 13)     71.5793         0.001503   
    231. D(Au  3,Au  4,Au  2,Au 10)    -58.3351         0.001502   
    232. D(Fe 14,Au  4,Au  3,Au  6)     67.8565         0.001501   
    233. D(Fe 14,Au  4,Au  3,Au  1)    -71.4500         0.001501   
    234. D(Au  1,Au  4,Au  3,Au  7)     85.2110         0.001501   
    235. D(Au  2,Au  4,Au  3,Au  1)     13.6965         0.001501   
    236. D(Au  1,Au  4,Au  3,Au  6)    139.3066         0.001501   
    237. D(Fe 14,Au  4,Au  1,Au  2)   -107.7868         0.001501   
    238. D(Fe 14,Au  4,Au  1,Au  3)     86.4728         0.001501   
    239. D(Fe 14,Au  4,Au  2,Au 10)     15.0024         0.001502   
    240. D(Fe 14,Au  4,Au  1,Au 13)      1.1817         0.001501   
    241. D(Au  3,Au  4,Au  1,Au 13)    -85.2911         0.001501   
    242. D(Au  3,Au  4,Au  1,Fe 14)    -86.4728         0.001501   
    243. D(Au  3,Au  4,Au  2,Au  1)    -12.9272         0.001502   
    244. D(Au  3,Au  4,Au  1,Au 10)   -148.4297         0.001501   
    245. D(Au  2,Au  4,Au  1,Au  3)   -165.7404         0.001501   
    246. D(Fe 14,Au  4,Au  3,Au  7)     13.7610         0.001501   
    247. D(Au  1,Au  4,Au  2,Au 10)    -45.4079         0.001502   
    248. D(Au  1,Au  4,Au  2,Au  0)   -101.4123         0.001502   
    249. D(Au  2,Au  4,Au  3,Au  7)     98.9075         0.001501   
    250. D(Au  3,Au  4,Au  1,Au  2)    165.7404         0.001501   
    251. D(Fe 14,Au  4,Au  2,Au  0)    -41.0020         0.001502   
    252. D(Fe 14,Au  4,Au  2,Au  1)     60.4103         0.001502   
    253. D(Fe 14,Au  4,Au  1,Au 10)    -61.9569         0.001501   
    254. D(Au  1,Au  4,Au  3,Fe 14)     71.4500         0.001501   
    255. D(Au  2,Au  4,Au  1,Au 10)     45.8299         0.001501   
    256. D(Au  2,Au  4,Au  1,Fe 14)    107.7868         0.001501   
    257. D(Au  2,Au  4,Au  3,Fe 14)     85.1466         0.001501   
    258. D(Au  2,Au  4,Au  1,Au 13)    108.9685         0.001501   
    259. D(Au  3,Au  4,Au  2,Au  0)   -114.3395         0.001502   
    260. D(Au  2,Au  4,Au  3,Au  6)    153.0031         0.001501   
    261. D(Fe 14,Au  6,Au  3,Au  7)     54.9388         0.001502   
    262. D(Fe 14,Au  6,Au  3,Au  4)    -60.1446         0.001502   
    263. D(Fe 14,Au  6,Au  3,Au  1)    -22.4882         0.001502   
    264. D(Au  3,Au  7,Au  0,Au 10)    -81.7316         0.001500   
    265. D(Fe 14,Au  7,Au  3,Au  6)    -65.9018         0.001501   
    266. D(Fe 14,Au  7,Au  3,Au  4)    -14.3824         0.001501   
    267. D(Au  3,Au  7,Au  0,Au 12)   -140.6914         0.001500   
    268. D(Au  3,Au  7,Au  0,Au  2)    -25.9293         0.001500   
    269. D(Fe 14,Au  7,Au  3,Au  1)     47.2294         0.001501   
    270. D(Au  1,Au 10,Au  2,Au  4)     47.7101         0.001502   
    271. D(Au 12,Au 10,Au  2,Au  1)    -99.2721         0.001502   
    272. D(Fe 14,Au 10,Au  2,Au  0)     46.1922         0.001502   
    273. D(Au  2,Au 10,Au  1,Fe 14)    -92.4267         0.001502   
    274. D(Fe 14,Au 10,Au  2,Au  4)    -11.9094         0.001502   
    275. D(Au 13,Au 10,Au  2,Au  1)    -27.9691         0.001502   
    276. D(Au 12,Au 10,Au  1,Au  2)    112.3575         0.001502   
    277. D(Au 12,Au 10,Au  1,Au  3)     15.2373         0.001502   
    278. D(Au  2,Au 10,Au  1,Au  3)    -97.1202         0.001502   
    279. D(Fe 14,Au 10,Au  1,Au  2)     92.4267         0.001502   
    280. D(Au 13,Au 10,Au  1,Au  4)    106.2737         0.001502   
    281. D(Au 12,Au 10,Au  1,Au 13)    -38.2550         0.001502   
    282. D(Au 13,Au 10,Au  1,Au  2)    150.6125         0.001502   
    283. D(Au  1,Au 10,Au  0,Fe 14)     45.5280         0.001501   
    284. D(Au 13,Au 10,Au  1,Fe 14)     58.1858         0.001502   
    285. D(Au 13,Au 10,Au  1,Au  3)     53.4923         0.001502   
    286. D(Au 13,Au 10,Au  0,Fe 14)    -13.8422         0.001501   
    287. D(Au  0,Au 10,Au  1,Fe 14)    -37.9066         0.001502   
    288. D(Au  1,Au 10,Au  0,Au  2)    -58.3622         0.001501   
    289. D(Au 13,Au 10,Au  0,Au  2)   -117.7324         0.001501   
    290. D(Fe 14,Au 10,Au  0,Au 12)     69.5535         0.001501   
    291. D(Au  0,Au 10,Au  1,Au  3)    -42.6001         0.001502   
    292. D(Au 12,Au 10,Au  0,Au  2)   -173.4437         0.001501   
    293. D(Fe 14,Au 10,Au  0,Au  2)   -103.8902         0.001501   
    294. D(Au 12,Au 10,Au  0,Fe 14)    -69.5535         0.001501   
    295. D(Au 13,Au 10,Au  0,Au 12)     55.7113         0.001501   
    296. D(Au  2,Au 10,Au  0,Fe 14)    103.8902         0.001501   
    297. D(Au  0,Au 10,Au  1,Au 13)    -96.0924         0.001502   
    298. D(Au  0,Au 10,Au  1,Au  4)     10.1813         0.001502   
    299. D(Au  2,Au 10,Au  0,Au 12)    173.4437         0.001501   
    300. D(Au  0,Au 10,Au  1,Au  2)     54.5201         0.001502   
    301. D(Au  1,Au 10,Au  0,Au 12)    115.0815         0.001501   
    302. D(Fe 14,Au 10,Au  1,Au  3)     -4.6935         0.001502   
    303. D(Au 12,Au 10,Au  1,Au  4)     68.0187         0.001502   
    304. D(Fe 14,Au 10,Au  1,Au 13)    -58.1858         0.001502   
    305. D(Au 12,Au 10,Au  1,Fe 14)     19.9308         0.001502   
    306. D(Au  2,Au 10,Au  1,Au  4)    -44.3388         0.001502   
    307. D(Au  0,Au 10,Au  2,Au  1)   -105.8116         0.001502   
    308. D(Au  1,Au 10,Au  2,Au  0)    105.8116         0.001502   
    309. D(Au  0,Au 10,Au  2,Au  4)    -58.1016         0.001502   
    310. D(Au 13,Au 10,Au  2,Au  4)     19.7409         0.001502   
    311. D(Fe 14,Au 10,Au  2,Au  1)    -59.6194         0.001502   
    312. D(Au 12,Au 10,Au  2,Au  0)      6.5395         0.001502   
    313. D(Au  2,Au 10,Au  1,Au 13)   -150.6125         0.001502   
    314. D(Au 12,Au 10,Au  2,Au  4)    -51.5621         0.001502   
    315. D(Fe 14,Au 10,Au  1,Au  4)     48.0879         0.001502   
    316. D(Au 13,Au 10,Au  2,Au  0)     77.8425         0.001502   
    317. D(Au 13,Au 12,Au  0,Fe 14)     36.0422         0.001501   
    318. D(Au 13,Au 12,Au 10,Fe 14)     57.1739         0.001502   
    319. D(Au 10,Au 12,Au 11,Fe 14)    -44.1079         0.001501   
    320. D(Au 13,Au 12,Au 11,Fe 14)    -64.8456         0.001501   
    321. D(Au  9,Au 12,Au 11,Fe 14)     67.6249         0.001501   
    322. D(Au  0,Au 12,Au 11,Fe 14)     22.0104         0.001501   
    323. D(Fe 14,Au 12,Au 10,Au  2)     48.3862         0.001502   
    324. D(Fe 14,Au 12,Au 10,Au 13)    -57.1739         0.001502   
    325. D(Fe 14,Au 12,Au 10,Au  1)    -20.1726         0.001502   
    326. D(Fe 14,Au 12,Au 10,Au  0)     54.6965         0.001502   
    327. D(Au 13,Au 12,Au 10,Au  2)    105.5600         0.001502   
    328. D(Au 13,Au 12,Au 10,Au  1)     37.0012         0.001502   
    329. D(Au 13,Au 12,Au 10,Au  0)    111.8704         0.001502   
    330. D(Au 11,Au 12,Au 10,Au  2)     85.1464         0.001502   
    331. D(Au 11,Au 12,Au 10,Au 13)    -20.4136         0.001502   
    332. D(Au 11,Au 12,Au 10,Au  1)     16.5876         0.001502   
    333. D(Au 11,Au 12,Au 10,Au  0)     91.4568         0.001502   
    334. D(Au  9,Au 12,Au 10,Fe 14)    -35.9231         0.001502   
    335. D(Au  9,Au 12,Au 10,Au 13)    -93.0970         0.001502   
    336. D(Au  9,Au 12,Au 10,Au  1)    -56.0957         0.001502   
    337. D(Au  9,Au 12,Au 10,Au  0)     18.7734         0.001502   
    338. D(Au  0,Au 12,Au 10,Au  2)     -6.3103         0.001502   
    339. D(Au  0,Au 12,Au 10,Fe 14)    -54.6965         0.001502   
    340. D(Au  0,Au 12,Au 10,Au 13)   -111.8704         0.001502   
    341. D(Au  9,Au 12,Au 10,Au  2)     12.4631         0.001502   
    342. D(Au  0,Au 12,Au 10,Au  1)    -74.8692         0.001502   
    343. D(Au 13,Au 12,Au  9,Fe 14)    -23.4127         0.001502   
    344. D(Au 11,Au 12,Au  9,Fe 14)    -64.7937         0.001502   
    345. D(Au 11,Au 12,Au 10,Fe 14)     36.7603         0.001502   
    346. D(Au 10,Au 12,Au  9,Fe 14)     41.8834         0.001502   
    347. D(Au 13,Au 12,Au  0,Au  2)    -48.1439         0.001501   
    348. D(Au  9,Au 12,Au  0,Au 10)   -161.1212         0.001501   
    349. D(Au  9,Au 12,Au  0,Fe 14)    -70.8558         0.001501   
    350. D(Fe 14,Au 12,Au  0,Au  2)    -84.1861         0.001501   
    351. D(Au 11,Au 12,Au  0,Au 10)   -113.5228         0.001501   
    352. D(Au 11,Au 12,Au  0,Fe 14)    -23.2574         0.001501   
    353. D(Au 10,Au 12,Au  0,Au  2)      6.0793         0.001501   
    354. D(Au 11,Au 12,Au  0,Au  2)   -107.4435         0.001501   
    355. D(Fe 14,Au 12,Au  0,Au 10)    -90.2654         0.001501   
    356. D(Au 10,Au 12,Au  0,Fe 14)     90.2654         0.001501   
    357. D(Au  0,Au 12,Au  9,Fe 14)     61.3197         0.001502   
    358. D(Au  9,Au 12,Au  0,Au  2)   -155.0419         0.001501   
    359. D(Au 13,Au 12,Au  0,Au 10)    -54.2232         0.001501   
    360. D(Au 10,Au 13,Au 12,Au  9)    115.4326         0.001501   
    361. D(Au  1,Au 13,Au 12,Au 10)    -34.9749         0.001501   
    362. D(Fe 14,Au 13,Au 12,Au 10)    -90.8820         0.001501   
    363. D(Fe 14,Au 13,Au 12,Au  0)    -34.8453         0.001501   
    364. D(Au 12,Au 13,Au 10,Au  2)   -110.5097         0.001501   
    365. D(Au 12,Au 13,Au 10,Fe 14)    -67.8519         0.001501   
    366. D(Au  1,Au 13,Au 10,Au 12)    139.2063         0.001501   
    367. D(Fe 14,Au 13,Au 10,Au 12)     67.8519         0.001501   
    368. D(Fe 14,Au 13,Au  1,Au 10)     88.3032         0.001502   
    369. D(Au 12,Au 13,Au  1,Au 10)     34.2801         0.001502   
    370. D(Au 12,Au 13,Au  1,Au  3)   -117.6716         0.001502   
    371. D(Au 10,Au 13,Au  1,Au  2)    -27.9202         0.001502   
    372. D(Au 10,Au 13,Au  1,Fe 14)    -88.3032         0.001502   
    373. D(Au 10,Au 13,Au  1,Au  4)    -89.4752         0.001502   
    374. D(Au 12,Au 13,Au  1,Au  4)    -55.1951         0.001502   
    375. D(Au 10,Au 13,Au  1,Au  3)   -151.9516         0.001502   
    376. D(Au 12,Au 13,Au  1,Fe 14)    -54.0231         0.001502   
    377. D(Fe 14,Au 13,Au  1,Au  2)     60.3829         0.001502   
    378. D(Fe 14,Au 13,Au 10,Au  0)     13.2782         0.001501   
    379. D(Fe 14,Au 13,Au  1,Au  4)     -1.1720         0.001502   
    380. D(Fe 14,Au 13,Au 10,Au  1)    -71.3544         0.001501   
    381. D(Au 12,Au 13,Au  1,Au  2)      6.3599         0.001502   
    382. D(Fe 14,Au 13,Au  1,Au  3)    -63.6485         0.001502   
    383. D(Au  1,Au 13,Au 10,Fe 14)     71.3544         0.001501   
    384. D(Au  1,Au 13,Au 10,Au  0)     84.6326         0.001501   
    385. D(Au 12,Au 13,Au 10,Au  0)    -54.5737         0.001501   
    386. D(Au  1,Au 13,Au 10,Au  2)     28.6966         0.001501   
    387. D(Au 12,Au 13,Au 10,Au  1)   -139.2063         0.001501   
    388. D(Fe 14,Au 13,Au 10,Au  2)    -42.6578         0.001501   
    389. D(Fe 14,Au 13,Au 12,Au 11)     67.8344         0.001501   
    390. D(Au  1,Au 13,Au 12,Au  0)     21.0618         0.001501   
    391. D(Au  1,Au 13,Au 12,Au  9)     80.4577         0.001501   
    392. D(Fe 14,Au 13,Au 12,Au  9)     24.5506         0.001501   
    393. D(Au  1,Au 13,Au 12,Fe 14)     55.9071         0.001501   
    394. D(Au  1,Au 13,Au 12,Au 11)    123.7415         0.001501   
    395. D(Au 10,Au 13,Au 12,Au  0)     56.0367         0.001501   
    396. D(Au 10,Au 13,Au 12,Fe 14)     90.8820         0.001501   
    397. D(Au 10,Au 13,Au 12,Au 11)    158.7164         0.001501   
    398. D(Au  6,Fe 14,Au  1,Au 13)   -129.0593         0.001503   
    399. D(Au 11,Fe 14,Au 12,Au  0)   -152.2253         0.001504   
    400. D(Au  6,Fe 14,Au  1,Au  3)    -19.4908         0.001503   
    401. D(Au  5,Fe 14,Au  1,Au 10)    103.7988         0.001503   
    402. D(Au  8,Fe 14,Au 12,Au 10)    179.8817         0.001504   
    403. D(Au  8,Fe 14,Au 12,Au  9)    -37.1711         0.001504   
    404. D(Au  5,Fe 14,Au  1,Au  4)    -10.0379         0.001503   
    405. D(Au  4,Fe 14,Au  1,Au  2)     53.6675         0.001503   
    406. D(Au  6,Fe 14,Au 12,Au 11)     55.3882         0.001504   
    407. D(Au  4,Fe 14,Au  1,Au 13)   -178.6171         0.001503   
    408. D(Au  0,Fe 14,Au  1,Au  2)    -15.1902         0.001503   
    409. D(Au  0,Fe 14,Au  1,Au 10)     44.9789         0.001503   
    410. D(Au  5,Fe 14,Au 12,Au  9)     30.7630         0.001504   
    411. D(Au  5,Fe 14,Au 12,Au  0)    -44.0334         0.001504   
    412. D(Au  0,Fe 14,Au  1,Au 13)    112.5252         0.001503   
    413. D(Au  0,Fe 14,Au  1,Au  3)   -137.9063         0.001503   
    414. D(Au  0,Fe 14,Au 12,Au 10)    -68.1507         0.001504   
    415. D(Au 12,Fe 14,Au  0,Au 10)     58.0701         0.001561   
    416. D(Au 10,Fe 14,Au  0,Au 12)    -58.0701         0.001561   
    417. D(Au  8,Fe 14,Au 11,Au 12)   -135.3441         0.001521   
    418. D(Au  7,Fe 14,Au 11,Au 12)    147.5516         0.001521   
    419. D(Au  1,Fe 14,Au  0,Au 12)    -98.3047         0.001561   
    420. D(Au  1,Fe 14,Au  0,Au 10)    -40.2345         0.001561   
    421. D(Au  0,Fe 14,Au 11,Au 12)    -27.2859         0.001521   
    422. D(Au  3,Fe 14,Au  0,Au  2)    -22.2827         0.001561   
    423. D(Au  1,Fe 14,Au  0,Au  2)     15.6002         0.001561   
    424. D(Au  3,Fe 14,Au 11,Au 12)    136.1325         0.001521   
    425. D(Au 10,Fe 14,Au  0,Au  2)     55.8347         0.001561   
    426. D(Au  0,Fe 14,Au 12,Au 11)    152.2253         0.001504   
    427. D(Au 12,Fe 14,Au  0,Au  2)    113.9048         0.001561   
    428. D(Au  4,Fe 14,Au 12,Au  9)    102.7405         0.001504   
    429. D(Au  0,Fe 14,Au  1,Au  4)    -68.8577         0.001503   
    430. D(Au  3,Fe 14,Au  0,Au 12)   -136.1876         0.001561   
    431. D(Au  5,Fe 14,Au 12,Au 10)   -112.1841         0.001504   
    432. D(Au  5,Fe 14,Au 12,Au 13)   -177.3897         0.001504   
    433. D(Au  4,Fe 14,Au  1,Au  3)    -69.0485         0.001503   
    434. D(Au  6,Fe 14,Au 12,Au 13)    129.8066         0.001504   
    435. D(Au  4,Fe 14,Au  1,Au 10)    113.8366         0.001503   
    436. D(Au  7,Fe 14,Au 12,Au 10)    107.1273         0.001504   
    437. D(Au  5,Fe 14,Au  1,Au  3)    -79.0864         0.001503   
    438. D(Au 12,Fe 14,Au 10,Au  1)    157.4325         0.001500   
    439. D(Au  5,Fe 14,Au  1,Au 13)    171.3451         0.001503   
    440. D(Au  9,Fe 14,Au 12,Au  0)    -74.7964         0.001504   
    441. D(Au  5,Fe 14,Au  1,Au  2)     43.6297         0.001503   
    442. D(Au 11,Fe 14,Au 12,Au  9)    -77.4288         0.001504   
    443. D(Au  6,Fe 14,Au  1,Au  4)     49.5577         0.001503   
    444. D(Au 13,Fe 14,Au 12,Au  0)    133.3563         0.001504   
    445. D(Au  6,Fe 14,Au  1,Au 10)    163.3943         0.001503   
    446. D(Au 12,Fe 14,Au 10,Au  0)    -80.3911         0.001500   
    447. D(Au  3,Fe 14,Au  0,Au 10)    -78.1174         0.001561   
    448. D(Au 13,Fe 14,Au  0,Au  2)     71.4657         0.001561   
    449. D(Au  1,Fe 14,Au 10,Au  0)    122.1764         0.001500   
    450. D(Au 13,Fe 14,Au  0,Au 12)    -42.4392         0.001561   
    451. D(Au  3,Fe 14,Au 10,Au  2)     67.1103         0.001500   
    452. D(Au  3,Fe 14,Au 10,Au 12)   -155.2046         0.001500   
    453. D(Au 13,Fe 14,Au  0,Au 10)     15.6310         0.001561   
    454. D(Au  3,Fe 14,Au 10,Au 13)    -74.0183         0.001500   
    455. D(Au  3,Fe 14,Au 10,Au  1)      2.2279         0.001500   
    456. D(Au 11,Fe 14,Au  0,Au  2)    140.1505         0.001561   
    457. D(Au 11,Fe 14,Au  0,Au 12)     26.2456         0.001561   
    458. D(Au 13,Fe 14,Au 10,Au  1)     76.2462         0.001500   
    459. D(Au 11,Fe 14,Au  0,Au 10)     84.3158         0.001561   
    460. D(Au  9,Fe 14,Au  0,Au  2)    178.9921         0.001561   
    461. D(Au 11,Fe 14,Au 10,Au 12)    -34.1826         0.001500   
    462. D(Au 11,Fe 14,Au 10,Au 13)     47.0038         0.001500   
    463. D(Au  9,Fe 14,Au  0,Au 12)     65.0873         0.001561   
    464. D(Au  9,Fe 14,Au  0,Au 10)    123.1574         0.001561   
    465. D(Au  9,Fe 14,Au 10,Au 12)     30.9339         0.001500   
    466. D(Au  8,Fe 14,Au  0,Au  2)   -150.1975         0.001561   
    467. D(Au  8,Fe 14,Au  0,Au 12)     95.8977         0.001561   
    468. D(Au  9,Fe 14,Au 10,Au  0)    -49.4572         0.001500   
    469. D(Au  8,Fe 14,Au 10,Au  2)   -137.9702         0.001500   
    470. D(Au  8,Fe 14,Au  0,Au 10)    153.9678         0.001561   
    471. D(Au  6,Fe 14,Au  0,Au  2)    -83.0957         0.001561   
    472. D(Au  8,Fe 14,Au 10,Au  0)    -80.6763         0.001500   
    473. D(Au  6,Fe 14,Au  0,Au 12)    162.9994         0.001561   
    474. D(Au  6,Fe 14,Au  0,Au 10)   -138.9304         0.001561   
    475. D(Au  7,Fe 14,Au 10,Au 13)    -19.1494         0.001500   
    476. D(Au  7,Fe 14,Au 10,Au  1)     57.0968         0.001500   
    477. D(Au  5,Fe 14,Au  0,Au  2)   -111.7919         0.001561   
    478. D(Au  5,Fe 14,Au  0,Au 12)    134.3032         0.001561   
    479. D(Au  6,Fe 14,Au 10,Au 13)   -105.4720         0.001500   
    480. D(Au  5,Fe 14,Au  0,Au 10)   -167.6266         0.001561   
    481. D(Au  6,Fe 14,Au 10,Au  0)     92.9506         0.001500   
    482. D(Au  4,Fe 14,Au  0,Au  2)    -43.3939         0.001561   
    483. D(Au  5,Fe 14,Au 10,Au  2)    -44.3280         0.001500   
    484. D(Au  5,Fe 14,Au 10,Au 12)     93.3571         0.001500   
    485. D(Au  4,Fe 14,Au  0,Au 12)   -157.2988         0.001561   
    486. D(Au  4,Fe 14,Au  0,Au 10)    -99.2286         0.001561   
    487. D(Au  5,Fe 14,Au 10,Au  0)     12.9660         0.001500   
    488. D(Au  4,Fe 14,Au 10,Au  2)     12.0505         0.001500   
    489. D(Au  4,Fe 14,Au 10,Au 13)   -129.0781         0.001500   
    490. D(Au  4,Fe 14,Au 10,Au  1)    -52.8319         0.001500   
    491. D(Au  4,Fe 14,Au 10,Au  0)     69.3445         0.001500   
    492. D(Au  0,Fe 14,Au 10,Au 12)     80.3911         0.001500   
    493. D(Au  0,Fe 14,Au 10,Au 13)    161.5774         0.001500   
    494. D(Au  0,Fe 14,Au 10,Au  1)   -122.1764         0.001500   
    495. D(Au 10,Fe 14,Au  9,Au 12)    -27.7984         0.001513   
    496. D(Au  1,Fe 14,Au  9,Au 12)    -39.9906         0.001513   
    497. D(Au  3,Fe 14,Au  9,Au 12)    170.4012         0.001513   
    498. D(Au 13,Fe 14,Au  9,Au 12)     26.9026         0.001513   
    499. D(Au  8,Fe 14,Au  9,Au 12)    138.5944         0.001513   
    500. D(Au  7,Fe 14,Au  9,Au 12)    103.0355         0.001513   
    501. D(Au  6,Fe 14,Au  9,Au 12)    174.1042         0.001513   
    502. D(Au  4,Fe 14,Au  9,Au 12)   -119.7135         0.001513   
    503. D(Au  0,Fe 14,Au  9,Au 12)    -72.9217         0.001513   
    504. D(Au 12,Fe 14,Au  7,Au  3)   -137.1195         0.001578   
    505. D(Au  1,Fe 14,Au  7,Au  3)    -40.8787         0.001578   
    506. D(Au 13,Fe 14,Au  7,Au  3)    -97.4992         0.001578   
    507. D(Au 11,Fe 14,Au  7,Au  3)   -167.6972         0.001578   
    508. D(Au  9,Fe 14,Au  7,Au  3)    157.5796         0.001578   
    509. D(Au  8,Fe 14,Au  7,Au  3)    124.2182         0.001578   
    510. D(Au  6,Fe 14,Au  7,Au  3)     59.5184         0.001578   
    511. D(Au  5,Fe 14,Au  7,Au  3)     85.6145         0.001578   
    512. D(Au 12,Fe 14,Au  6,Au  3)   -158.9398         0.001507   
    513. D(Au 10,Fe 14,Au  6,Au  3)     41.0153         0.001507   
    514. D(Au  1,Fe 14,Au  6,Au  3)     18.9105         0.001507   
    515. D(Au 11,Fe 14,Au  6,Au  3)   -109.5426         0.001507   
    516. D(Au  9,Fe 14,Au  6,Au  3)   -178.4064         0.001507   
    517. D(Au  8,Fe 14,Au  6,Au  3)   -141.9399         0.001507   
    518. D(Au  5,Fe 14,Au  6,Au  3)    142.2675         0.001507   
    519. D(Au  4,Fe 14,Au  6,Au  3)     68.3113         0.001507   
    520. D(Au  0,Fe 14,Au  6,Au  3)    112.2183         0.001507   
    521. D(Au 12,Fe 14,Au  4,Au  2)     17.6570         0.001527   
    522. D(Au 12,Fe 14,Au  4,Au  1)     73.9036         0.001527   
    523. D(Au 12,Fe 14,Au  4,Au  3)    132.8223         0.001527   
    524. D(Au 10,Fe 14,Au  4,Au  2)    -11.9140         0.001527   
    525. D(Au 10,Fe 14,Au  4,Au  3)    103.2513         0.001527   
    526. D(Au  1,Fe 14,Au  4,Au  2)    -56.2465         0.001527   
    527. D(Au  1,Fe 14,Au  4,Au  3)     58.9187         0.001527   
    528. D(Au  3,Fe 14,Au  4,Au  1)    -58.9187         0.001527   
    529. D(Au 13,Fe 14,Au  4,Au  2)    -57.5859         0.001527   
    530. D(Au 13,Fe 14,Au  4,Au  1)     -1.3394         0.001527   
    531. D(Au 11,Fe 14,Au  4,Au  2)   -161.2466         0.001527   
    532. D(Au 11,Fe 14,Au  4,Au  1)   -105.0001         0.001527   
    533. D(Au 11,Fe 14,Au  4,Au  3)    -46.0814         0.001527   
    534. D(Au  9,Fe 14,Au  4,Au  2)     87.2761         0.001527   
    535. D(Au  9,Fe 14,Au  4,Au  1)    143.5226         0.001527   
    536. D(Au  9,Fe 14,Au  4,Au  3)   -157.5587         0.001527   
    537. D(Au  8,Fe 14,Au  4,Au  2)    155.6521         0.001527   
    538. D(Au  8,Fe 14,Au  4,Au  1)   -148.1014         0.001527   
    539. D(Au  8,Fe 14,Au  4,Au  3)    -89.1827         0.001527   
    540. D(Au  7,Fe 14,Au  4,Au  2)   -131.3717         0.001527   
    541. D(Au  7,Fe 14,Au  4,Au  1)    -75.1251         0.001527   
    542. D(Au  7,Fe 14,Au  4,Au  3)    -16.2064         0.001527   
    543. D(Au  6,Fe 14,Au  4,Au  2)   -176.4830         0.001527   
    544. D(Au  6,Fe 14,Au  4,Au  1)   -120.2364         0.001527   
    545. D(Au  6,Fe 14,Au  4,Au  3)    -61.3177         0.001527   
    546. D(Au  5,Fe 14,Au  4,Au  2)    114.3022         0.001527   
    547. D(Au  5,Fe 14,Au  4,Au  1)    170.5487         0.001527   
    548. D(Au  5,Fe 14,Au  4,Au  3)   -130.5326         0.001527   
    549. D(Au 13,Fe 14,Au  4,Au  3)     57.5794         0.001527   
    550. D(Au  0,Fe 14,Au  4,Au  2)     43.6982         0.001527   
    551. D(Au  0,Fe 14,Au  4,Au  1)     99.9447         0.001527   
    552. D(Au  0,Fe 14,Au  4,Au  3)    158.8635         0.001527   
    553. D(Au  3,Fe 14,Au  4,Au  2)   -115.1653         0.001527   
    554. D(Au 12,Fe 14,Au  3,Au  1)    -33.6201         0.001500   
    555. D(Au 12,Fe 14,Au  3,Au  7)     87.3335         0.001500   
    556. D(Au 12,Fe 14,Au  3,Au  6)    171.2788         0.001500   
    557. D(Au 10,Fe 14,Au  4,Au  1)     44.3326         0.001527   
    558. D(Au 12,Fe 14,Au  3,Au  4)   -111.5185         0.001500   
    559. D(Au 10,Fe 14,Au  3,Au  1)     -2.2306         0.001500   
    560. D(Au 10,Fe 14,Au  3,Au  7)    118.7230         0.001500   
    561. D(Au 10,Fe 14,Au  3,Au  6)   -157.3317         0.001500   
    562. D(Au 10,Fe 14,Au  3,Au  4)    -80.1290         0.001500   
    563. D(Au  1,Fe 14,Au  3,Au  7)    120.9537         0.001500   
    564. D(Au  1,Fe 14,Au  3,Au  6)   -155.1011         0.001500   
    565. D(Au  7,Fe 14,Au  6,Au  3)    -63.8968         0.001507   
    566. D(Au  1,Fe 14,Au  3,Au  4)    -77.8984         0.001500   
    567. D(Au 13,Fe 14,Au  3,Au  1)    -53.8097         0.001500   
    568. D(Au 13,Fe 14,Au  3,Au  7)     67.1439         0.001500   
    569. D(Au 13,Fe 14,Au  6,Au  3)    -37.0245         0.001507   
    570. D(Au 13,Fe 14,Au  3,Au  6)    151.0892         0.001500   
    571. D(Au 13,Fe 14,Au  3,Au  4)   -131.7082         0.001500   
    572. D(Au 11,Fe 14,Au  3,Au  1)   -108.3132         0.001500   
    573. D(Au  4,Fe 14,Au  7,Au  3)     16.4807         0.001578   
    574. D(Au 11,Fe 14,Au  3,Au  7)     12.6404         0.001500   
    575. D(Au 11,Fe 14,Au  3,Au  6)     96.5857         0.001500   
    576. D(Au 11,Fe 14,Au  3,Au  4)    173.7884         0.001500   
    577. D(Au  9,Fe 14,Au  3,Au  1)    159.5752         0.001500   
    578. D(Au  9,Fe 14,Au  3,Au  7)    -79.4711         0.001500   
    579. D(Au  9,Fe 14,Au  3,Au  6)      4.4741         0.001500   
    580. D(Au  9,Fe 14,Au  3,Au  4)     81.6768         0.001500   
    581. D(Au 10,Fe 14,Au  7,Au  3)    -80.7829         0.001578   
    582. D(Au  8,Fe 14,Au  3,Au  1)   -172.3319         0.001500   
    583. D(Au  8,Fe 14,Au  3,Au  7)    -51.3783         0.001500   
    584. D(Au  8,Fe 14,Au  3,Au  6)     32.5670         0.001500   
    585. D(Au  5,Fe 14,Au  9,Au 12)   -147.1709         0.001513   
    586. D(Au  8,Fe 14,Au  3,Au  4)    109.7697         0.001500   
    587. D(Au  7,Fe 14,Au  3,Au  1)   -120.9537         0.001500   
    588. D(Au  7,Fe 14,Au  3,Au  6)     83.9452         0.001500   
    589. D(Au 11,Fe 14,Au  9,Au 12)     68.1427         0.001513   
    590. D(Au  7,Fe 14,Au  3,Au  4)    161.1479         0.001500   
    591. D(Au  6,Fe 14,Au  3,Au  1)    155.1011         0.001500   
    592. D(Au  6,Fe 14,Au  3,Au  7)    -83.9452         0.001500   
    593. D(Au  6,Fe 14,Au  3,Au  4)     77.2027         0.001500   
    594. D(Au  5,Fe 14,Au  3,Au  1)    122.0407         0.001500   
    595. D(Au  5,Fe 14,Au  3,Au  7)   -117.0056         0.001500   
    596. D(Au  5,Fe 14,Au  3,Au  6)    -33.0604         0.001500   
    597. D(Au  0,Fe 14,Au 10,Au  2)    -57.2940         0.001500   
    598. D(Au  5,Fe 14,Au  3,Au  4)     44.1423         0.001500   
    599. D(Au  4,Fe 14,Au  3,Au  1)     77.8984         0.001500   
    600. D(Au  4,Fe 14,Au  3,Au  7)   -161.1479         0.001500   
    601. D(Au  4,Fe 14,Au 10,Au 12)    149.7356         0.001500   
    602. D(Au  4,Fe 14,Au  3,Au  6)    -77.2027         0.001500   
    603. D(Au  0,Fe 14,Au  3,Au  1)     53.6710         0.001500   
    604. D(Au  5,Fe 14,Au 10,Au  1)   -109.2104         0.001500   
    605. D(Au  5,Fe 14,Au 10,Au 13)    174.5434         0.001500   
    606. D(Au  0,Fe 14,Au  3,Au  7)    174.6247         0.001500   
    607. D(Au  0,Fe 14,Au  3,Au  6)   -101.4300         0.001500   
    608. D(Au  0,Fe 14,Au  3,Au  4)    -24.2274         0.001500   
    609. D(Au  6,Fe 14,Au 10,Au  1)    -29.2258         0.001500   
    610. D(Au 12,Fe 14,Au  1,Au  2)    -77.3363         0.001503   
    611. D(Au  6,Fe 14,Au 10,Au 12)    173.3417         0.001500   
    612. D(Au  6,Fe 14,Au 10,Au  2)     35.6566         0.001500   
    613. D(Au  7,Fe 14,Au 10,Au  0)    179.2732         0.001500   
    614. D(Au 12,Fe 14,Au  1,Au 10)    -17.1673         0.001503   
    615. D(Au 12,Fe 14,Au  1,Au 13)     50.3791         0.001503   
    616. D(Au  7,Fe 14,Au 10,Au 12)   -100.3358         0.001500   
    617. D(Au  7,Fe 14,Au 10,Au  2)    121.9792         0.001500   
    618. D(Au 12,Fe 14,Au  1,Au  4)   -131.0039         0.001503   
    619. D(Au  8,Fe 14,Au 10,Au  1)    157.1474         0.001500   
    620. D(Au  8,Fe 14,Au 10,Au 13)     80.9012         0.001500   
    621. D(Au  8,Fe 14,Au 10,Au 12)     -0.2852         0.001500   
    622. D(Au 12,Fe 14,Au  1,Au  3)    159.9476         0.001503   
    623. D(Au 10,Fe 14,Au  1,Au  2)    -60.1691         0.001503   
    624. D(Au  9,Fe 14,Au 10,Au  1)   -171.6336         0.001500   
    625. D(Au  9,Fe 14,Au 10,Au 13)    112.1202         0.001500   
    626. D(Au 10,Fe 14,Au  1,Au 13)     67.5463         0.001503   
    627. D(Au  9,Fe 14,Au 10,Au  2)   -106.7512         0.001500   
    628. D(Au 11,Fe 14,Au 10,Au  0)   -114.5736         0.001500   
    629. D(Au 11,Fe 14,Au 10,Au  1)    123.2500         0.001500   
    630. D(Au 10,Fe 14,Au  1,Au  4)   -113.8366         0.001503   
    631. D(Au 10,Fe 14,Au  1,Au  3)    177.1148         0.001503   
    632. D(Au 11,Fe 14,Au 10,Au  2)   -171.8676         0.001500   
    633. D(Au 13,Fe 14,Au 10,Au  0)   -161.5774         0.001500   
    634. D(Au  3,Fe 14,Au  1,Au  2)    122.7161         0.001503   
    635. D(Au 13,Fe 14,Au 10,Au 12)    -81.1864         0.001500   
    636. D(Au 13,Fe 14,Au 10,Au  2)    141.1286         0.001500   
    637. D(Au  3,Fe 14,Au 10,Au  0)    124.4043         0.001500   
    638. D(Au  3,Fe 14,Au  1,Au 10)   -177.1148         0.001503   
    639. D(Au  3,Fe 14,Au  1,Au 13)   -109.5685         0.001503   
    640. D(Au  3,Fe 14,Au  1,Au  4)     69.0485         0.001503   
    641. D(Au 13,Fe 14,Au  1,Au  2)   -127.7154         0.001503   
    642. D(Au 13,Fe 14,Au  1,Au 10)    -67.5463         0.001503   
    643. D(Au  1,Fe 14,Au 10,Au 13)    -76.2462         0.001500   
    644. D(Au  1,Fe 14,Au 10,Au 12)   -157.4325         0.001500   
    645. D(Au  1,Fe 14,Au 10,Au  2)     64.8824         0.001500   
    646. D(Au 10,Fe 14,Au 13,Au 12)     58.9962         0.001529   
    647. D(Au 13,Fe 14,Au  1,Au  4)    178.6171         0.001503   
    648. D(Au 12,Fe 14,Au 10,Au 13)     81.1864         0.001500   
    649. D(Au 12,Fe 14,Au 10,Au  2)   -137.6850         0.001500   
    650. D(Au 13,Fe 14,Au  1,Au  3)    109.5685         0.001503   
    651. D(Au  4,Fe 14,Au 11,Au 12)    179.0010         0.001521   
    652. D(Au  5,Fe 14,Au 11,Au 12)   -100.2944         0.001521   
    653. D(Au  6,Fe 14,Au 11,Au 12)   -166.6928         0.001521   
    654. D(Au  1,Fe 14,Au 13,Au 10)     60.6964         0.001529   
    655. D(Au  3,Fe 14,Au 13,Au 12)    166.0524         0.001529   
    656. D(Au  9,Fe 14,Au 11,Au 12)    -65.9041         0.001521   
    657. D(Au 13,Fe 14,Au 11,Au 12)     71.5041         0.001521   
    658. D(Au 11,Fe 14,Au  1,Au  2)   -134.9181         0.001503   
    659. D(Au  1,Fe 14,Au 11,Au 12)     78.3491         0.001521   
    660. D(Au 10,Fe 14,Au 11,Au 12)     30.0885         0.001521   
    661. D(Au  0,Fe 14,Au 12,Au  9)     74.7964         0.001504   
    662. D(Au 11,Fe 14,Au  1,Au 10)    -74.7490         0.001503   
    663. D(Au 11,Fe 14,Au 13,Au 10)   -126.1912         0.001529   
    664. D(Au  0,Fe 14,Au 12,Au 13)   -133.3563         0.001504   
    665. D(Au  4,Fe 14,Au 12,Au  0)     27.9441         0.001504   
    666. D(Au 11,Fe 14,Au  1,Au 13)     -7.2027         0.001503   
    667. D(Au  4,Fe 14,Au 12,Au 10)    -40.2067         0.001504   
    668. D(Au  4,Fe 14,Au 12,Au 11)   -179.8307         0.001504   
    669. D(Au  4,Fe 14,Au 12,Au 13)   -105.4122         0.001504   
    670. D(Au  9,Fe 14,Au 13,Au 12)    -25.6324         0.001529   
    671. D(Au 11,Fe 14,Au  1,Au  4)    171.4144         0.001503   
    672. D(Au  9,Fe 14,Au 13,Au 10)    -84.6286         0.001529   
    673. D(Au  5,Fe 14,Au 12,Au 11)    108.1918         0.001504   
    674. D(Au  9,Fe 14,Au 13,Au  1)   -145.3251         0.001529   
    675. D(Au  6,Fe 14,Au 12,Au  0)    -96.8371         0.001504   
    676. D(Au  6,Fe 14,Au 12,Au  9)    -22.0407         0.001504   
    677. D(Au  6,Fe 14,Au 12,Au 10)   -164.9878         0.001504   
    678. D(Au 11,Fe 14,Au  1,Au  3)    102.3658         0.001503   
    679. D(Au  9,Fe 14,Au  1,Au  2)    -44.3241         0.001503   
    680. D(Au  7,Fe 14,Au 12,Au  0)    175.2780         0.001504   
    681. D(Au  7,Fe 14,Au 12,Au  9)   -109.9256         0.001504   
    682. D(Au  7,Fe 14,Au 13,Au 12)   -139.1727         0.001529   
    683. D(Au  7,Fe 14,Au 12,Au 11)    -32.4968         0.001504   
    684. D(Au  7,Fe 14,Au 12,Au 13)     41.9217         0.001504   
    685. D(Au  8,Fe 14,Au 12,Au  0)   -111.9675         0.001504   
    686. D(Au  9,Fe 14,Au  1,Au 10)     15.8450         0.001503   
    687. D(Au  9,Fe 14,Au  1,Au 13)     83.3913         0.001503   
    688. D(Au  8,Fe 14,Au 12,Au 11)     40.2577         0.001504   
    689. D(Au  8,Fe 14,Au 12,Au 13)    114.6762         0.001504   
    690. D(Au  6,Fe 14,Au 13,Au 12)   -165.5144         0.001529   
    691. D(Au  9,Fe 14,Au 12,Au 10)   -142.9472         0.001504   
    692. D(Au  9,Fe 14,Au 12,Au 11)     77.4288         0.001504   
    693. D(Au  9,Fe 14,Au 12,Au 13)    151.8473         0.001504   
    694. D(Au  6,Fe 14,Au 13,Au 10)    135.4894         0.001529   
    695. D(Au  9,Fe 14,Au  1,Au  4)    -97.9916         0.001503   
    696. D(Au 11,Fe 14,Au 12,Au 10)    139.6240         0.001504   
    697. D(Au 11,Fe 14,Au 12,Au 13)     74.4185         0.001504   
    698. D(Au  9,Fe 14,Au  1,Au  3)   -167.0402         0.001503   
    699. D(Au 13,Fe 14,Au 12,Au  9)   -151.8473         0.001504   
    700. D(Au 13,Fe 14,Au 12,Au 10)     65.2056         0.001504   
    701. D(Au 13,Fe 14,Au 12,Au 11)    -74.4185         0.001504   
    702. D(Au  5,Fe 14,Au 13,Au  1)   -100.4236         0.001529   
    703. D(Au  8,Fe 14,Au  1,Au  2)    138.2071         0.001503   
    704. D(Au  8,Fe 14,Au  1,Au 10)   -161.6238         0.001503   
    705. D(Au  4,Fe 14,Au 13,Au  1)      1.3712         0.001529   
    706. D(Au  0,Fe 14,Au 13,Au 12)     42.8424         0.001529   
    707. D(Au  8,Fe 14,Au  1,Au 13)    -94.0775         0.001503   
    708. D(Au  8,Fe 14,Au  1,Au  4)     84.5395         0.001503   
    709. D(Au 10,Fe 14,Au 12,Au 13)    -65.2056         0.001504   
    710. D(Au 10,Fe 14,Au 12,Au 11)   -139.6240         0.001504   
    711. D(Au  8,Fe 14,Au  1,Au  3)     15.4910         0.001503   
    712. D(Au 10,Fe 14,Au 12,Au  9)    142.9472         0.001504   
    713. D(Au 10,Fe 14,Au 12,Au  0)     68.1507         0.001504   
    714. D(Au  7,Fe 14,Au  1,Au  2)    167.3107         0.001503   
    715. D(Au  1,Fe 14,Au 12,Au 13)    -48.0495         0.001504   
    716. D(Au  0,Fe 14,Au 13,Au  1)    -76.8503         0.001529   
    717. D(Au  0,Fe 14,Au 13,Au 10)    -16.1539         0.001529   
    718. D(Au  1,Fe 14,Au 12,Au 11)   -122.4679         0.001504   
    719. D(Au  7,Fe 14,Au  1,Au 10)   -132.5203         0.001503   
    720. D(Au  4,Fe 14,Au 13,Au 10)     62.0676         0.001529   
    721. D(Au  4,Fe 14,Au 13,Au 12)    121.0639         0.001529   
    722. D(Au  1,Fe 14,Au 12,Au 10)     17.1561         0.001504   
    723. D(Au  5,Fe 14,Au 13,Au 10)    -39.7271         0.001529   
    724. D(Au  5,Fe 14,Au 13,Au 12)     19.2691         0.001529   
    725. D(Au  6,Fe 14,Au 13,Au  1)     74.7930         0.001529   
    726. D(Au  1,Fe 14,Au 12,Au  9)    160.1032         0.001504   
    727. D(Au  7,Fe 14,Au  1,Au 13)    -64.9739         0.001503   
    728. D(Au  7,Fe 14,Au 13,Au  1)    101.1346         0.001529   
    729. D(Au  7,Fe 14,Au 13,Au 10)    161.8310         0.001529   
    730. D(Au  1,Fe 14,Au 12,Au  0)     85.3068         0.001504   
    731. D(Au  8,Fe 14,Au 13,Au  1)    146.0032         0.001529   
    732. D(Au  8,Fe 14,Au 13,Au 10)   -153.3003         0.001529   
    733. D(Au  8,Fe 14,Au 13,Au 12)    -94.3041         0.001529   
    734. D(Au  3,Fe 14,Au 12,Au 13)    -22.8950         0.001504   
    735. D(Au  7,Fe 14,Au  1,Au  4)    113.6431         0.001503   
    736. D(Au  3,Fe 14,Au 12,Au 11)    -97.3135         0.001504   
    737. D(Au 11,Fe 14,Au 13,Au  1)    173.1124         0.001529   
    738. D(Au  3,Fe 14,Au 12,Au 10)     42.3105         0.001504   
    739. D(Au 11,Fe 14,Au 13,Au 12)    -67.1949         0.001529   
    740. D(Au  3,Fe 14,Au 13,Au  1)     46.3597         0.001529   
    741. D(Au  3,Fe 14,Au 13,Au 10)    107.0562         0.001529   
    742. D(Au  7,Fe 14,Au  1,Au  3)     44.5946         0.001503   
    743. D(Au  3,Fe 14,Au 12,Au  9)   -174.7423         0.001504   
    744. D(Au  1,Fe 14,Au 13,Au 12)    119.6927         0.001529   
    745. D(Au 10,Fe 14,Au 13,Au  1)    -60.6964         0.001529   
    746. D(Au  3,Fe 14,Au 12,Au  0)    110.4613         0.001504   
    747. D(Au 12,Fe 14,Au 13,Au  1)   -119.6927         0.001529   
    748. D(Au 12,Fe 14,Au 13,Au 10)    -58.9962         0.001529   
    749. D(Au  6,Fe 14,Au  1,Au  2)    103.2253         0.001503   
    -----------------------------------------------------------------

Number of atoms                         .... 15
Number of degrees of freedom            .... 749

         *************************************************************
         *                GEOMETRY OPTIMIZATION CYCLE   1            *
         *************************************************************
---------------------------------
CARTESIAN COORDINATES (ANGSTROEM)
---------------------------------
  Au     5.145931    8.143230    7.421090
  Au     8.057004   10.463903    8.839251
  Au     5.280514   10.851023    8.141633
  Au     9.900510   10.402351    6.822928
  Au     7.055729   10.182856    6.104560
  Au     6.386589    7.684995    4.868661
  Au     9.069939    8.624111    4.849693
  Au    10.255834    7.631281    7.346262
  Au     8.673068    5.927255    5.474765
  Au     6.158335    5.562596    6.758391
  Au     6.068100    9.008588   10.124917
  Au     8.680048    5.471029    8.278466
  Au     6.242131    6.330618    9.449178
  Au     8.712975    7.890801    9.798356
  Fe     7.716557    7.837494    7.290356

----------------------------
CARTESIAN COORDINATES (A.U.)
----------------------------
  NO LB      ZA    FRAG     MASS         X           Y           Z
   0 Au   19.0000*   0   196.966    9.724400   15.388474   14.023827
   1 Au   19.0000*   0   196.966   15.225531   19.773910   16.703763
   2 Au   19.0000*   0   196.966    9.978724   20.505461   15.385456
   3 Au   19.0000*   0   196.966   18.709253   19.657594   12.893466
   4 Au   19.0000*   0   196.966   13.333396   19.242808   11.535947
   5 Au   19.0000*   0   196.966   12.068904   14.522536    9.200435
   6 Au   19.0000*   0   196.966   17.139701   16.297208    9.164591
   7 Au   19.0000*   0   196.966   19.380717   14.421031   13.882423
   8 Au   19.0000*   0   196.966   16.389723   11.200889   10.345807
   9 Au   19.0000*   0   196.966   11.637566   10.511783   12.771508
  10 Au   19.0000*   0   196.966   11.467048   17.023764   19.133321
  11 Au   19.0000*   0   196.966   16.402913   10.338746   15.644034
  12 Au   19.0000*   0   196.966   11.795918   11.963134   17.856359
  13 Au   19.0000*   0   196.966   16.465136   14.911452   18.516210
  14 Fe   26.0000    0    55.850   14.582180   14.810717   13.776776
* core charge reduced due to ECP

--------------------------------
INTERNAL COORDINATES (ANGSTROEM)
--------------------------------
 Au     0   0   0     0.000000000000     0.00000000     0.00000000
 Au     1   0   0     3.983848794558     0.00000000     0.00000000
 Au     1   2   0     2.805251918241    46.46687810     0.00000000
 Au     2   1   3     2.732738518607   102.54275731   242.34406217
 Au     3   1   2     2.783433784547    67.10180928    60.02445653
 Au     5   3   1     2.866095715843   112.07965013    16.86068688
 Au     4   2   1     2.783099671707   109.64558715   354.89744718
 Au     4   2   1     2.842350901443    88.30609762   294.49888742
 Au     7   4   2     2.796650308975   120.00162040   299.93780834
 Au     9   7   4     2.846849680169   110.46613792    79.41354383
 Au     2   1   3     2.779679251649    48.45760887    86.20804450
 Au     8   4   2     2.831748047216   137.28901530    31.29010407
 Au    11   2   1     2.767387392571   110.40803358    57.83742436
 Au     2   1   3     2.823301987790    76.10213792   151.06059538
 Fe     8   4   2     2.548249047454    78.02390078    47.22941555

---------------------------
INTERNAL COORDINATES (A.U.)
---------------------------
 Au     0   0   0     0.000000000000     0.00000000     0.00000000
 Au     1   0   0     7.528383180668     0.00000000     0.00000000
 Au     1   2   0     5.301157862133    46.46687810     0.00000000
 Au     2   1   3     5.164127395785   102.54275731   242.34406217
 Au     3   1   2     5.259927564699    67.10180928    60.02445653
 Au     5   3   1     5.416135976548   112.07965013    16.86068688
 Au     4   2   1     5.259296182932   109.64558715   354.89744718
 Au     4   2   1     5.371264780232    88.30609762   294.49888742
 Au     7   4   2     5.284903176309   120.00162040   299.93780834
 Au     9   7   4     5.379766239961   110.46613792    79.41354383
 Au     2   1   3     5.252832525760    48.45760887    86.20804450
 Au     8   4   2     5.351228289505   137.28901530    31.29010407
 Au    11   2   1     5.229604278425   110.40803358    57.83742436
 Au     2   1   3     5.335267550279    76.10213792   151.06059538
 Fe     8   4   2     4.815492820713    78.02390078    47.22941555

---------------------
BASIS SET INFORMATION
---------------------
There are 2 groups of distinct atoms

 Group   1 Type Au  : 8s7p6d1f contracted to 6s4p3d1f pattern {311111/4111/411/1}
 Group   2 Type Fe  : 17s11p7d1f contracted to 6s4p4d1f pattern {842111/6311/4111/1}

Atom   0Au   basis set group =>   1
Atom   1Au   basis set group =>   1
Atom   2Au   basis set group =>   1
Atom   3Au   basis set group =>   1
Atom   4Au   basis set group =>   1
Atom   5Au   basis set group =>   1
Atom   6Au   basis set group =>   1
Atom   7Au   basis set group =>   1
Atom   8Au   basis set group =>   1
Atom   9Au   basis set group =>   1
Atom  10Au   basis set group =>   1
Atom  11Au   basis set group =>   1
Atom  12Au   basis set group =>   1
Atom  13Au   basis set group =>   1
Atom  14Fe   basis set group =>   2
---------------------------------
AUXILIARY/J BASIS SET INFORMATION
---------------------------------
There are 2 groups of distinct atoms

 Group   1 Type Au  : 11s5p5d3f3g contracted to 8s5p5d2f3g pattern {41111111/11111/11111/21/111}
 Group   2 Type Fe  : 19s5p5d3f3g contracted to 8s5p5d2f3g pattern {121111111/11111/11111/21/111}

Atom   0Au   basis set group =>   1
Atom   1Au   basis set group =>   1
Atom   2Au   basis set group =>   1
Atom   3Au   basis set group =>   1
Atom   4Au   basis set group =>   1
Atom   5Au   basis set group =>   1
Atom   6Au   basis set group =>   1
Atom   7Au   basis set group =>   1
Atom   8Au   basis set group =>   1
Atom   9Au   basis set group =>   1
Atom  10Au   basis set group =>   1
Atom  11Au   basis set group =>   1
Atom  12Au   basis set group =>   1
Atom  13Au   basis set group =>   1
Atom  14Fe   basis set group =>   2
-------------------------
ECP PARAMETER INFORMATION
-------------------------

 Group 1, Type Au ECP Def2-ECP (replacing 60 core electrons, lmax=3)

Atom   0Au   ECP group =>   1
Atom   1Au   ECP group =>   1
Atom   2Au   ECP group =>   1
Atom   3Au   ECP group =>   1
Atom   4Au   ECP group =>   1
Atom   5Au   ECP group =>   1
Atom   6Au   ECP group =>   1
Atom   7Au   ECP group =>   1
Atom   8Au   ECP group =>   1
Atom   9Au   ECP group =>   1
Atom  10Au   ECP group =>   1
Atom  11Au   ECP group =>   1
Atom  12Au   ECP group =>   1
Atom  13Au   ECP group =>   1

------------------------------------------------------------------------------
                           ORCA GTO INTEGRAL CALCULATION
                           -- RI-GTO INTEGRALS CHOSEN --
------------------------------------------------------------------------------
------------------------------------------------------------------------------
                   ___                                                        
                  /   \      - P O W E R E D   B Y -                         
                 /     \                                                     
                 |  |  |   _    _      __       _____    __    __             
                 |  |  |  | |  | |    /  \     |  _  \  |  |  /  |          
                  \  \/   | |  | |   /    \    | | | |  |  | /  /          
                 / \  \   | |__| |  /  /\  \   | |_| |  |  |/  /          
                |  |  |   |  __  | /  /__\  \  |    /   |      \           
                |  |  |   | |  | | |   __   |  |    \   |  |\   \          
                \     /   | |  | | |  |  |  |  | |\  \  |  | \   \       
                 \___/    |_|  |_| |__|  |__|  |_| \__\ |__|  \__/        
                                                                              
                      - O R C A' S   B I G   F R I E N D -                    
                                      &                                       
                       - I N T E G R A L  F E E D E R -                       
                                                                              
 v1 FN, 2020, v2 2021                                                         
------------------------------------------------------------------------------


Reading SHARK input file pbe.SHARKINP.tmp ... ok
----------------------
SHARK INTEGRAL PACKAGE
----------------------

Number of atoms                             ...     15
Number of basis functions                   ...    605
Number of shells                            ...    211
Maximum angular momentum                    ...      3
Integral batch strategy                     ... SHARK/LIBINT Hybrid
RI-J (if used) integral strategy            ... SPLIT-RIJ (Revised 2003 algorithm where possible)
Printlevel                                  ...      1
Contraction scheme used                     ... SEGMENTED contraction
Coulomb Range Separation                    ... NOT USED
Exchange Range Separation                   ... NOT USED
Finite Nucleus Model                        ... NOT USED
Auxiliary Coulomb fitting basis             ... AVAILABLE
   # of basis functions in Aux-J            ...   1335
   # of shells in Aux-J                     ...    345
   Maximum angular momentum in Aux-J        ...      4
Auxiliary J/K fitting basis                 ... NOT available
Auxiliary Correlation fitting basis         ... NOT available
Auxiliary 'external' fitting basis          ... NOT available
Integral threshold                          ...     2.500000e-11
Primitive cut-off                           ...     2.500000e-12
Primitive pair pre-selection threshold      ...     2.500000e-12

Calculating pre-screening integrals         ... done (  0.4 sec) Dimension = 211
Organizing shell pair data                  ... done (  0.5 sec)
Shell pair information
Total number of shell pairs                 ...     22366
Shell pairs after pre-screening             ...     18156
Total number of primitive shell pairs       ...     59609
Primitive shell pairs kept                  ...     35043
          la=0 lb=0:   2831 shell pairs
          la=1 lb=0:   4151 shell pairs
          la=1 lb=1:   1557 shell pairs
          la=2 lb=0:   3602 shell pairs
          la=2 lb=1:   2531 shell pairs
          la=2 lb=2:   1045 shell pairs
          la=3 lb=0:    951 shell pairs
          la=3 lb=1:    744 shell pairs
          la=3 lb=2:    642 shell pairs
          la=3 lb=3:    102 shell pairs

Calculating one electron integrals          ... done (  0.2 sec)
Calculating ECP integrals                   ... done ( 13.8 sec)
Calculating RI/J V-Matrix + Cholesky decomp.... done (  0.1 sec)
Calculating Nuclear repulsion               ... done (  0.0 sec) ENN=   5745.138717854250 Eh

SHARK setup successfully completed in  15.6 seconds

Maximum memory used throughout the entire GTOINT-calculation: 522.1 MB
-------------------------------------------------------------------------------
                                 ORCA SCF
-------------------------------------------------------------------------------

------------
SCF SETTINGS
------------
Hamiltonian:
 Density Functional     Method          .... DFT(GTOs)
 Exchange Functional    Exchange        .... PBE
   PBE kappa parameter   XKappa         ....  0.804000
   PBE mue parameter    XMuePBE         ....  0.219520
 Correlation Functional Correlation     .... PBE
   PBE beta parameter  CBetaPBE         ....  0.066725
 LDA part of GGA corr.  LDAOpt          .... PW91-LDA
 Gradients option       PostSCFGGA      .... off
   Density functional embedding theory  .... OFF
   NL short-range parameter             ....  6.400000
 RI-approximation to the Coulomb term is turned on
   Number of AuxJ basis functions       .... 1335


General Settings:
 Integral files         IntName         .... pbe
 Hartree-Fock type      HFTyp           .... UHF
 Total Charge           Charge          ....    0
 Multiplicity           Mult            ....    5
 Number of Electrons    NEL             ....  292
 Basis Dimension        Dim             ....  605
 Nuclear Repulsion      ENuc            ....   5745.1387178542 Eh

Convergence Acceleration:
 DIIS                   CNVDIIS         .... on
   Start iteration      DIISMaxIt       ....     0
   Startup error        DIISStart       ....  0.200000
   # of expansion vecs  DIISMaxEq       ....     5
   Bias factor          DIISBfac        ....   1.050
   Max. coefficient     DIISMaxC        ....  10.000
 Trust-Rad. Augm. Hess. CNVTRAH         .... auto
   Auto Start mean grad. ratio tolernc. ....  1.125000
   Auto Start start iteration           ....    20
   Auto Start num. interpolation iter.  ....    10
   Max. Number of Micro iterations      ....    16
   Max. Number of Macro iterations      .... Maxiter - #DIIS iter
   Number of Davidson start vectors     ....     2
   Converg. threshold I  (grad. norm)   ....   1.000e-05
   Converg. threshold II (energy diff.) ....   1.000e-08
   Grad. Scal. Fac. for Micro threshold ....   0.100
   Minimum threshold for Micro iter.    ....   0.010
   NR start threshold (gradient norm)   ....   0.001
   Initial trust radius                 ....   0.400
   Minimum AH scaling param. (alpha)    ....   1.000
   Maximum AH scaling param. (alpha)    .... 1000.000
   Orbital update algorithm             .... Taylor
   White noise on init. David. guess    .... on
   Maximum white noise                  ....   0.010
   Quad. conv. algorithm                .... NR
 SOSCF                  CNVSOSCF        .... off
 Level Shifting         CNVShift        .... on
   Level shift para.    LevelShift      ....    0.2500
   Turn off err/grad.   ShiftErr        ....    0.0000
 Zerner damping         CNVZerner       .... off
 Static damping         CNVDamp         .... on
   Fraction old density DampFac         ....    0.8500
   Max. Damping (<1)    DampMax         ....    0.9800
   Min. Damping (>=0)   DampMin         ....    0.0000
   Turn off err/grad.   DampErr         ....    0.0300
 Fernandez-Rico         CNVRico         .... off

SCF Procedure:
 Maximum # iterations   MaxIter         ....   125
 SCF integral mode      SCFMode         .... Direct
   Integral package                     .... SHARK and LIBINT hybrid scheme
 Reset frequency        DirectResetFreq ....    20
 Integral Threshold     Thresh          ....  2.500e-11 Eh
 Primitive CutOff       TCut            ....  2.500e-12 Eh

Convergence Tolerance:
 Convergence Check Mode ConvCheckMode   .... Total+1el-Energy
 Convergence forced     ConvForced      .... 0
 Energy Change          TolE            ....  1.000e-08 Eh
 1-El. energy change                    ....  1.000e-05 Eh
 DIIS Error             TolErr          ....  5.000e-07


Diagonalization of the overlap matrix:
Smallest eigenvalue                        ... 3.365e-04
Time for diagonalization                   ...    0.096 sec
Threshold for overlap eigenvalues          ... 1.000e-08
Number of eigenvalues below threshold      ... 0
Time for construction of square roots      ...    0.044 sec
Total time needed                          ...    0.141 sec

Time for model grid setup =    1.644 sec

------------------------------
INITIAL GUESS: MODEL POTENTIAL
------------------------------
Loading Hartree-Fock densities                     ... done
  calling /media/Programs/ORCA501/orca pbe_atom79.inp > pbe_atom79.out in order to generate an atomic fitting density for atom 0 (Au with ECP) on-the-fly... 
    atom 0 (Au), assumed electronic state with S=2: 1s2 2s2 2p6 3s2 3p6 4s2 3d10 4p6 5s2 4d10 5p6 6s1 4f14 5d10           ... done
Calculating cut-offs                               ... done
Initializing the effective Hamiltonian             ... done
Setting up the integral package (SHARK)            ... done
Starting the Coulomb interaction                   ... done (   4.5 sec)
Reading the grid                                   ... done
Mapping shells                                     ... done
Starting the XC term evaluation                    ... done (   4.7 sec)
  promolecular density results
     # of electrons  =   1132.014114547
     EX              =  -5175.602542501
[...]
 220( 0) :     0.257722 a.u.     7.013 eV
 221( 0) :     0.262715 a.u.     7.149 eV
 222( 0) :     0.270172 a.u.     7.352 eV
 223( 0) :     0.276865 a.u.     7.534 eV
 224( 0) :     0.279412 a.u.     7.603 eV
 225( 0) :     0.282117 a.u.     7.677 eV
 226( 0) :     0.283621 a.u.     7.718 eV
 227( 0) :     0.291599 a.u.     7.935 eV
 228( 0) :     0.293821 a.u.     7.995 eV
 229( 0) :     0.295794 a.u.     8.049 eV
 230( 0) :     0.302838 a.u.     8.241 eV
 231( 0) :     0.307159 a.u.     8.358 eV
 232( 0) :     0.310420 a.u.     8.447 eV
 233( 0) :     0.317836 a.u.     8.649 eV
 234( 0) :     0.322243 a.u.     8.769 eV
 235( 0) :     0.325423 a.u.     8.855 eV
 236( 0) :     0.333794 a.u.     9.083 eV
 237( 0) :     0.335199 a.u.     9.121 eV
 238( 0) :     0.340201 a.u.     9.257 eV
 239( 0) :     0.345358 a.u.     9.398 eV
 240( 0) :     0.349575 a.u.     9.512 eV
 241( 0) :     0.356608 a.u.     9.704 eV
 242( 0) :     0.358297 a.u.     9.750 eV
 243( 0) :     0.361921 a.u.     9.848 eV
 244( 0) :     0.368524 a.u.    10.028 eV
 245( 0) :     0.374770 a.u.    10.198 eV
 246( 0) :     0.380733 a.u.    10.360 eV
 247( 0) :     0.383915 a.u.    10.447 eV
 248( 0) :     0.386147 a.u.    10.508 eV
 249( 0) :     0.397557 a.u.    10.818 eV
 250( 0) :     0.404947 a.u.    11.019 eV
 251( 0) :     0.408786 a.u.    11.124 eV
 252( 0) :     0.409690 a.u.    11.148 eV
 253( 0) :     0.416532 a.u.    11.334 eV
 254( 0) :     0.423299 a.u.    11.519 eV
 255( 0) :     0.426013 a.u.    11.592 eV
 256( 0) :     0.434330 a.u.    11.819 eV
 257( 0) :     0.438331 a.u.    11.928 eV
 258( 0) :     0.441020 a.u.    12.001 eV
 259( 0) :     0.445099 a.u.    12.112 eV
 260( 0) :     0.450246 a.u.    12.252 eV
 261( 0) :     0.452136 a.u.    12.303 eV
 262( 0) :     0.457683 a.u.    12.454 eV
 263( 0) :     0.460036 a.u.    12.518 eV
 264( 0) :     0.463262 a.u.    12.606 eV
 265( 0) :     0.468121 a.u.    12.738 eV
 266( 0) :     0.471362 a.u.    12.826 eV
 267( 0) :     0.476314 a.u.    12.961 eV
 268( 0) :     0.480215 a.u.    13.067 eV
 269( 0) :     0.483781 a.u.    13.164 eV
 270( 0) :     0.491850 a.u.    13.384 eV
 271( 0) :     0.494043 a.u.    13.444 eV
 272( 0) :     0.497235 a.u.    13.530 eV
 273( 0) :     0.497908 a.u.    13.549 eV
 274( 0) :     0.502116 a.u.    13.663 eV
 275( 0) :     0.504314 a.u.    13.723 eV
 276( 0) :     0.507902 a.u.    13.821 eV
 277( 0) :     0.513487 a.u.    13.973 eV
 278( 0) :     0.517383 a.u.    14.079 eV
 279( 0) :     0.520452 a.u.    14.162 eV
 280( 0) :     0.524348 a.u.    14.268 eV
 281( 0) :     0.527420 a.u.    14.352 eV
 282( 0) :     0.532679 a.u.    14.495 eV
 283( 0) :     0.537949 a.u.    14.638 eV
 284( 0) :     0.548156 a.u.    14.916 eV
 285( 0) :     0.552487 a.u.    15.034 eV
 286( 0) :     0.555168 a.u.    15.107 eV
 287( 0) :     0.563791 a.u.    15.342 eV
 288( 0) :     0.584128 a.u.    15.895 eV
 289( 0) :     0.610472 a.u.    16.612 eV
 290( 0) :     0.650253 a.u.    17.694 eV
 291( 0) :     0.653187 a.u.    17.774 eV
 292( 0) :     0.658035 a.u.    17.906 eV
 293( 0) :     0.675839 a.u.    18.391 eV
 294( 0) :     0.681166 a.u.    18.535 eV
 295( 0) :     0.695124 a.u.    18.915 eV
 296( 0) :     0.696132 a.u.    18.943 eV
 297( 0) :     0.705510 a.u.    19.198 eV
 298( 0) :     0.707254 a.u.    19.245 eV
 299( 0) :     0.711731 a.u.    19.367 eV
 300( 0) :     0.716907 a.u.    19.508 eV
 301( 0) :     0.722288 a.u.    19.654 eV
 302( 0) :     0.739915 a.u.    20.134 eV
 303( 0) :     0.753239 a.u.    20.497 eV
 304( 0) :     0.761592 a.u.    20.724 eV
 305( 0) :     0.772441 a.u.    21.019 eV
 306( 0) :     0.777976 a.u.    21.170 eV
 307( 0) :     0.781063 a.u.    21.254 eV
 308( 0) :     0.788767 a.u.    21.463 eV
 309( 0) :     0.797208 a.u.    21.693 eV
 310( 0) :     0.798122 a.u.    21.718 eV
 311( 0) :     0.808873 a.u.    22.011 eV
 312( 0) :     0.813126 a.u.    22.126 eV
 313( 0) :     0.822456 a.u.    22.380 eV
 314( 0) :     0.831957 a.u.    22.639 eV
 315( 0) :     0.835643 a.u.    22.739 eV
 316( 0) :     0.847527 a.u.    23.062 eV
 317( 0) :     0.856179 a.u.    23.298 eV
 318( 0) :     0.866034 a.u.    23.566 eV
 319( 0) :     0.878703 a.u.    23.911 eV
 320( 0) :     0.881480 a.u.    23.986 eV
 321( 0) :     0.890605 a.u.    24.235 eV
 322( 0) :     0.891483 a.u.    24.258 eV
 323( 0) :     0.899295 a.u.    24.471 eV
 324( 0) :     0.911278 a.u.    24.797 eV
 325( 0) :     0.921902 a.u.    25.086 eV
 326( 0) :     0.939954 a.u.    25.577 eV
 327( 0) :     0.950325 a.u.    25.860 eV
 328( 0) :     0.953108 a.u.    25.935 eV
 329( 0) :     0.963748 a.u.    26.225 eV
 330( 0) :     0.995412 a.u.    27.087 eV
 331( 0) :     1.124945 a.u.    30.611 eV
 332( 0) :     1.141856 a.u.    31.071 eV
 333( 0) :     1.173071 a.u.    31.921 eV
 334( 0) :     1.179096 a.u.    32.085 eV
 335( 0) :     1.193789 a.u.    32.485 eV
 336( 0) :     1.207638 a.u.    32.861 eV
 337( 0) :     1.211714 a.u.    32.972 eV
 338( 0) :     1.228235 a.u.    33.422 eV
 339( 0) :     1.233688 a.u.    33.570 eV
 340( 0) :     1.249432 a.u.    33.999 eV
 341( 0) :     1.259857 a.u.    34.282 eV
 342( 0) :     1.267708 a.u.    34.496 eV
 343( 0) :     1.274665 a.u.    34.685 eV
 344( 0) :     1.278182 a.u.    34.781 eV
 345( 0) :     1.280487 a.u.    34.844 eV
 346( 0) :     1.288143 a.u.    35.052 eV
 347( 0) :     1.293044 a.u.    35.186 eV
 348( 0) :     1.295299 a.u.    35.247 eV
 349( 0) :     1.302163 a.u.    35.434 eV
 350( 0) :     1.318353 a.u.    35.874 eV
 351( 0) :     1.328022 a.u.    36.137 eV
 352( 0) :     1.347240 a.u.    36.660 eV
 353( 0) :     1.351355 a.u.    36.772 eV
 354( 0) :     1.356492 a.u.    36.912 eV
 355( 0) :     1.365885 a.u.    37.168 eV
 356( 0) :     1.372462 a.u.    37.347 eV
 357( 0) :     1.381097 a.u.    37.582 eV
 358( 0) :     1.385535 a.u.    37.702 eV
 359( 0) :     1.392641 a.u.    37.896 eV
 360( 0) :     1.398989 a.u.    38.068 eV
 361( 0) :     1.401450 a.u.    38.135 eV
 362( 0) :     1.406764 a.u.    38.280 eV
 363( 0) :     1.410428 a.u.    38.380 eV
 364( 0) :     1.414998 a.u.    38.504 eV
 365( 0) :     1.417339 a.u.    38.568 eV
 366( 0) :     1.418199 a.u.    38.591 eV
 367( 0) :     1.422429 a.u.    38.706 eV
 368( 0) :     1.427439 a.u.    38.843 eV
 369( 0) :     1.430533 a.u.    38.927 eV
 370( 0) :     1.432327 a.u.    38.976 eV
 371( 0) :     1.435662 a.u.    39.066 eV
 372( 0) :     1.437311 a.u.    39.111 eV
 373( 0) :     1.440772 a.u.    39.205 eV
 374( 0) :     1.446696 a.u.    39.367 eV
 375( 0) :     1.450622 a.u.    39.473 eV
 376( 0) :     1.455221 a.u.    39.599 eV
 377( 0) :     1.455794 a.u.    39.614 eV
 378( 0) :     1.459055 a.u.    39.703 eV
 379( 0) :     1.459940 a.u.    39.727 eV
 380( 0) :     1.461402 a.u.    39.767 eV
 381( 0) :     1.469129 a.u.    39.977 eV
 382( 0) :     1.470880 a.u.    40.025 eV
 383( 0) :     1.474932 a.u.    40.135 eV
 384( 0) :     1.476008 a.u.    40.164 eV
 385( 0) :     1.476709 a.u.    40.183 eV
 386( 0) :     1.480151 a.u.    40.277 eV
 387( 0) :     1.480876 a.u.    40.297 eV
 388( 0) :     1.482266 a.u.    40.335 eV
 389( 0) :     1.484544 a.u.    40.397 eV
 390( 0) :     1.488179 a.u.    40.495 eV
 391( 0) :     1.489116 a.u.    40.521 eV
 392( 0) :     1.491639 a.u.    40.590 eV
 393( 0) :     1.492008 a.u.    40.600 eV
 394( 0) :     1.493536 a.u.    40.641 eV
 395( 0) :     1.495549 a.u.    40.696 eV
 396( 0) :     1.496445 a.u.    40.720 eV
 397( 0) :     1.498217 a.u.    40.769 eV
 398( 0) :     1.499223 a.u.    40.796 eV
 399( 0) :     1.500829 a.u.    40.840 eV
 400( 0) :     1.501460 a.u.    40.857 eV
 401( 0) :     1.503852 a.u.    40.922 eV
 402( 0) :     1.505054 a.u.    40.955 eV
 403( 0) :     1.506618 a.u.    40.997 eV
 404( 0) :     1.507282 a.u.    41.015 eV
 405( 0) :     1.508155 a.u.    41.039 eV
 406( 0) :     1.510164 a.u.    41.094 eV
 407( 0) :     1.510980 a.u.    41.116 eV
 408( 0) :     1.512129 a.u.    41.147 eV
 409( 0) :     1.513595 a.u.    41.187 eV
 410( 0) :     1.514322 a.u.    41.207 eV
 411( 0) :     1.517223 a.u.    41.286 eV
 412( 0) :     1.518031 a.u.    41.308 eV
 413( 0) :     1.520353 a.u.    41.371 eV
 414( 0) :     1.520905 a.u.    41.386 eV
 415( 0) :     1.523078 a.u.    41.445 eV
 416( 0) :     1.524465 a.u.    41.483 eV
 417( 0) :     1.527184 a.u.    41.557 eV
 418( 0) :     1.529320 a.u.    41.615 eV
 419( 0) :     1.530345 a.u.    41.643 eV
 420( 0) :     1.531852 a.u.    41.684 eV
 421( 0) :     1.533176 a.u.    41.720 eV
 422( 0) :     1.536798 a.u.    41.818 eV
 423( 0) :     1.540654 a.u.    41.923 eV
 424( 0) :     1.540968 a.u.    41.932 eV
 425( 0) :     1.541711 a.u.    41.952 eV
 426( 0) :     1.545787 a.u.    42.063 eV
 427( 0) :     1.547107 a.u.    42.099 eV
 428( 0) :     1.548189 a.u.    42.128 eV
 429( 0) :     1.551942 a.u.    42.230 eV
 430( 0) :     1.553381 a.u.    42.270 eV
 431( 0) :     1.557078 a.u.    42.370 eV
 432( 0) :     1.558180 a.u.    42.400 eV
 433( 0) :     1.562044 a.u.    42.505 eV
 434( 0) :     1.562795 a.u.    42.526 eV
 435( 0) :     1.566159 a.u.    42.617 eV
 436( 0) :     1.567091 a.u.    42.643 eV
 437( 0) :     1.568291 a.u.    42.675 eV
 438( 0) :     1.572198 a.u.    42.782 eV
 439( 0) :     1.573299 a.u.    42.812 eV
 440( 0) :     1.574565 a.u.    42.846 eV
 441( 0) :     1.575663 a.u.    42.876 eV
 442( 0) :     1.579289 a.u.    42.975 eV
 443( 0) :     1.581597 a.u.    43.037 eV
 444( 0) :     1.583202 a.u.    43.081 eV
 445( 0) :     1.583911 a.u.    43.100 eV
 446( 0) :     1.587388 a.u.    43.195 eV
 447( 0) :     1.589318 a.u.    43.248 eV
 448( 0) :     1.593918 a.u.    43.373 eV
 449( 0) :     1.596637 a.u.    43.447 eV
 450( 0) :     1.599728 a.u.    43.531 eV
 451( 0) :     1.600589 a.u.    43.554 eV
 452( 0) :     1.606770 a.u.    43.722 eV
 453( 0) :     1.608307 a.u.    43.764 eV
 454( 0) :     1.614543 a.u.    43.934 eV
 455( 0) :     1.617639 a.u.    44.018 eV
 456( 0) :     1.619396 a.u.    44.066 eV
 457( 0) :     1.623031 a.u.    44.165 eV
 458( 0) :     1.624882 a.u.    44.215 eV
 459( 0) :     1.629729 a.u.    44.347 eV
 460( 0) :     1.630588 a.u.    44.371 eV
 461( 0) :     1.636888 a.u.    44.542 eV
 462( 0) :     1.640055 a.u.    44.628 eV
 463( 0) :     1.642677 a.u.    44.700 eV
 464( 0) :     1.645372 a.u.    44.773 eV
 465( 0) :     1.652953 a.u.    44.979 eV
 466( 0) :     1.656200 a.u.    45.068 eV
 467( 0) :     1.659593 a.u.    45.160 eV
 468( 0) :     1.671008 a.u.    45.470 eV
 469( 0) :     1.682547 a.u.    45.784 eV
 470( 0) :     1.684233 a.u.    45.830 eV
 471( 0) :     1.693911 a.u.    46.094 eV
 472( 0) :     1.701586 a.u.    46.303 eV
 473( 0) :     1.703573 a.u.    46.357 eV
 474( 0) :     1.718161 a.u.    46.754 eV
 475( 0) :     1.720267 a.u.    46.811 eV
 476( 0) :     1.725737 a.u.    46.960 eV
 477( 0) :     1.748955 a.u.    47.591 eV
 478( 0) :     1.759834 a.u.    47.888 eV
 479( 0) :     1.760935 a.u.    47.917 eV
 480( 0) :     1.762713 a.u.    47.966 eV
 481( 0) :     1.775008 a.u.    48.300 eV
 482( 0) :     1.779064 a.u.    48.411 eV
 483( 0) :     1.788645 a.u.    48.672 eV
 484( 0) :     1.789655 a.u.    48.699 eV
 485( 0) :     1.798823 a.u.    48.948 eV
 486( 0) :     1.803397 a.u.    49.073 eV
 487( 0) :     1.808125 a.u.    49.202 eV
 488( 0) :     1.814188 a.u.    49.367 eV
 489( 0) :     1.818032 a.u.    49.471 eV
 490( 0) :     1.823743 a.u.    49.627 eV
 491( 0) :     1.828114 a.u.    49.746 eV
 492( 0) :     1.840279 a.u.    50.077 eV
 493( 0) :     1.848714 a.u.    50.306 eV
 494( 0) :     1.851852 a.u.    50.391 eV
 495( 0) :     1.860228 a.u.    50.619 eV
 496( 0) :     1.866596 a.u.    50.793 eV
 497( 0) :     1.870561 a.u.    50.901 eV
 498( 0) :     1.913288 a.u.    52.063 eV
 499( 0) :     1.919802 a.u.    52.240 eV
 500( 0) :     1.945547 a.u.    52.941 eV
 501( 0) :     2.043826 a.u.    55.615 eV
 502( 0) :     2.069268 a.u.    56.308 eV
 503( 0) :     2.085762 a.u.    56.756 eV
 504( 0) :     2.116781 a.u.    57.601 eV
 505( 0) :     2.172395 a.u.    59.114 eV
 506( 0) :     2.268100 a.u.    61.718 eV
 507( 0) :     2.286846 a.u.    62.228 eV
 508( 0) :     2.309849 a.u.    62.854 eV
 509( 0) :     2.392498 a.u.    65.103 eV
 510( 0) :     2.418368 a.u.    65.807 eV
 511( 0) :     2.439941 a.u.    66.394 eV
 512( 0) :     2.454977 a.u.    66.803 eV
 513( 0) :     2.468400 a.u.    67.169 eV
 514( 0) :     2.476531 a.u.    67.390 eV
 515( 0) :     2.486215 a.u.    67.653 eV
 516( 0) :     2.489169 a.u.    67.734 eV
 517( 0) :     2.506052 a.u.    68.193 eV
 518( 0) :     2.517346 a.u.    68.500 eV
 519( 0) :     2.534052 a.u.    68.955 eV
 520( 0) :     2.558352 a.u.    69.616 eV
 521( 0) :     2.564084 a.u.    69.772 eV
 522( 0) :     3.402821 a.u.    92.595 eV
 523( 0) :     3.602690 a.u.    98.034 eV
 524( 0) :     3.629376 a.u.    98.760 eV
 525( 0) :     3.682624 a.u.   100.209 eV
 526( 0) :     3.715002 a.u.   101.090 eV
 527( 0) :     3.788619 a.u.   103.094 eV
 528( 0) :     3.880266 a.u.   105.587 eV
 529( 0) :     3.886656 a.u.   105.761 eV
 530( 0) :     3.888824 a.u.   105.820 eV
 531( 0) :     3.891132 a.u.   105.883 eV
 532( 0) :     3.896346 a.u.   106.025 eV
 533( 0) :     3.898294 a.u.   106.078 eV
 534( 0) :     3.898911 a.u.   106.095 eV
 535( 0) :    23.737831 a.u.   645.939 eV
 536( 0) :    24.010411 a.u.   653.356 eV
 537( 0) :    24.096007 a.u.   655.686 eV
 538( 0) :    24.230419 a.u.   659.343 eV
 539( 0) :    24.422264 a.u.   664.564 eV
 540( 0) :    24.469108 a.u.   665.838 eV
 541( 0) :    24.562268 a.u.   668.373 eV
 542( 0) :    24.856819 a.u.   676.388 eV
 543( 0) :    24.895039 a.u.   677.428 eV
 544( 0) :    25.141755 a.u.   684.142 eV
 545( 0) :    25.278322 a.u.   687.858 eV
 546( 0) :    25.331498 a.u.   689.305 eV
 547( 0) :    25.375854 a.u.   690.512 eV
 548( 0) :    25.470110 a.u.   693.077 eV
 549( 0) :    25.573786 a.u.   695.898 eV
 550( 0) :    25.780039 a.u.   701.511 eV
 551( 0) :    25.857833 a.u.   703.627 eV
 552( 0) :    25.929994 a.u.   705.591 eV
 553( 0) :    26.008385 a.u.   707.724 eV
 554( 0) :    26.113534 a.u.   710.585 eV
 555( 0) :    26.228265 a.u.   713.707 eV
 556( 0) :    26.308505 a.u.   715.891 eV
 557( 0) :    26.401463 a.u.   718.420 eV
 558( 0) :    26.440485 a.u.   719.482 eV
 559( 0) :    26.502053 a.u.   721.158 eV
 560( 0) :    26.639887 a.u.   724.908 eV
 561( 0) :    26.814617 a.u.   729.663 eV
 562( 0) :    26.821893 a.u.   729.861 eV
 563( 0) :    26.912014 a.u.   732.313 eV
 564( 0) :    27.012661 a.u.   735.052 eV
 565( 0) :    27.324739 a.u.   743.544 eV
 566( 0) :    27.438585 a.u.   746.642 eV
 567( 0) :    27.515405 a.u.   748.732 eV
 568( 0) :    27.793766 a.u.   756.307 eV
 569( 0) :    27.968333 a.u.   761.057 eV
 570( 0) :    28.069685 a.u.   763.815 eV
 571( 0) :    28.325432 a.u.   770.774 eV
 572( 0) :    29.058036 a.u.   790.709 eV
 573( 0) :    29.365335 a.u.   799.071 eV
 574( 0) :    29.946694 a.u.   814.891 eV
 575( 0) :    30.421122 a.u.   827.801 eV
 576( 0) :    31.585036 a.u.   859.473 eV
 577( 0) :    43.916844 a.u.  1195.038 eV
 578( 0) :    44.030412 a.u.  1198.128 eV
 579( 0) :    44.054368 a.u.  1198.780 eV
 580( 0) :    44.079831 a.u.  1199.473 eV
 581( 0) :    44.117888 a.u.  1200.509 eV
 582( 0) :    44.126696 a.u.  1200.748 eV
 583( 0) :    44.133057 a.u.  1200.922 eV
 584( 0) :    44.147039 a.u.  1201.302 eV
 585( 0) :    44.158250 a.u.  1201.607 eV
 586( 0) :    44.163386 a.u.  1201.747 eV
 587( 0) :    44.181429 a.u.  1202.238 eV
 588( 0) :    44.189806 a.u.  1202.466 eV
 589( 0) :    44.211318 a.u.  1203.051 eV
 590( 0) :    44.252982 a.u.  1204.185 eV
 591( 0) :   205.091445 a.u.  5580.822 eV
 592( 0) :   205.142206 a.u.  5582.203 eV
 593( 0) :   205.152291 a.u.  5582.478 eV
 594( 0) :   205.160321 a.u.  5582.696 eV
 595( 0) :   205.179549 a.u.  5583.219 eV
 596( 0) :   205.185018 a.u.  5583.368 eV
 597( 0) :   205.188275 a.u.  5583.457 eV
 598( 0) :   205.192478 a.u.  5583.571 eV
 599( 0) :   205.196352 a.u.  5583.677 eV
 600( 0) :   205.198159 a.u.  5583.726 eV
 601( 0) :   205.202788 a.u.  5583.852 eV
 602( 0) :   205.208049 a.u.  5583.995 eV
 603( 0) :   205.216446 a.u.  5584.223 eV
 604( 0) :   205.234664 a.u.  5584.719 eV
-------
TIMINGS
-------

Total SCF time: 0 days 0 hours 4 min 8 sec 

Total time                  ....     248.564 sec
Sum of individual times     ....     237.638 sec  ( 95.6%)

Fock matrix formation       ....     228.991 sec  ( 92.1%)
  Split-RI-J                ....      75.497 sec  ( 33.0% of F)
  XC integration            ....     143.886 sec  ( 62.8% of F)
    Basis function eval.    ....      25.835 sec  ( 18.0% of XC)
    Density eval.           ....      71.699 sec  ( 49.8% of XC)
    XC-Functional eval.     ....       3.682 sec  (  2.6% of XC)
    XC-Potential eval.      ....      36.870 sec  ( 25.6% of XC)
Diagonalization             ....       3.256 sec  (  1.3%)
Density matrix formation    ....       0.484 sec  (  0.2%)
Population analysis         ....       0.721 sec  (  0.3%)
Initial guess               ....       0.173 sec  (  0.1%)
Orbital Transformation      ....       0.000 sec  (  0.0%)
Orbital Orthonormalization  ....       0.144 sec  (  0.1%)
DIIS solution               ....       1.209 sec  (  0.5%)
Grid generation             ....       2.803 sec  (  1.1%)

Maximum memory used throughout the entire SCF-calculation: 599.0 MB

-------------------------   --------------------
FINAL SINGLE POINT ENERGY     -3165.075510504783
-------------------------   --------------------

                                *** OPTIMIZATION RUN DONE ***

                            ***************************************
                            *     ORCA property calculations      *
                            ***************************************

                                    ---------------------
                                    Active property flags
                                    ---------------------
   (+) Dipole Moment


------------------------------------------------------------------------------
                       ORCA ELECTRIC PROPERTIES CALCULATION
------------------------------------------------------------------------------

Dipole Moment Calculation                       ... on
Quadrupole Moment Calculation                   ... off
Polarizability Calculation                      ... off
GBWName                                         ... pbe.gbw
Electron density                                ... pbe.scfp
The origin for moment calculation is the CENTER OF MASS  = (14.276293, 15.390189 14.063652)

-------------
DIPOLE MOMENT
-------------
                                X             Y             Z
Electronic contribution:     -4.57130       8.10321       3.44478
Nuclear contribution   :      4.50896      -8.15157      -3.47729
                        -----------------------------------------
Total Dipole Moment    :     -0.06235      -0.04836      -0.03251
                        -----------------------------------------
Magnitude (a.u.)       :      0.08534
Magnitude (Debye)      :      0.21692



--------------------
Rotational spectrum 
--------------------
 
Rotational constants in cm-1:     0.001165     0.001071     0.000970 
Rotational constants in MHz :    34.925974    32.095562    29.077280 

 Dipole components along the rotational axes: 
x,y,z [a.u.] :    -0.010160    -0.056309    -0.063319 
x,y,z [Debye]:    -0.025826    -0.143125    -0.160945 

 

Timings for individual modules:

Sum of individual times         ...    26292.121 sec (= 438.202 min)
GTO integral calculation        ...      564.404 sec (=   9.407 min)   2.1 %
SCF iterations                  ...    21897.695 sec (= 364.962 min)  83.3 %
SCF Gradient evaluation         ...     3773.463 sec (=  62.891 min)  14.4 %
Geometry relaxation             ...       56.559 sec (=   0.943 min)   0.2 %
                             ****ORCA TERMINATED NORMALLY****
TOTAL RUN TIME: 0 days 7 hours 19 minutes 8 seconds 70 msec
