
                                 *****************
                                 * O   R   C   A *
                                 *****************

                                            #,                                       
                                            ###                                      
                                            ####                                     
                                            #####                                    
                                            ######                                   
                                           ########,                                 
                                     ,,################,,,,,                         
                               ,,#################################,,                 
                          ,,##########################################,,             
                       ,#########################################, ''#####,          
                    ,#############################################,,   '####,        
                  ,##################################################,,,,####,       
                ,###########''''           ''''###############################       
              ,#####''   ,,,,##########,,,,          '''####'''          '####       
            ,##' ,,,,###########################,,,                        '##       
           ' ,,###''''                  '''############,,,                           
         ,,##''                                '''############,,,,        ,,,,,,###''
      ,#''                                            '''#######################'''  
     '                                                          ''''####''''         
             ,#######,   #######,   ,#######,      ##                                
            ,#'     '#,  ##    ##  ,#'     '#,    #''#        ######   ,####,        
            ##       ##  ##   ,#'  ##            #'  '#       #        #'  '#        
            ##       ##  #######   ##           ,######,      #####,   #    #        
            '#,     ,#'  ##    ##  '#,     ,#' ,#      #,         ##   #,  ,#        
             '#######'   ##     ##  '#######'  #'      '#     #####' # '####'        



                  #######################################################
                  #                        -***-                        #
                  #          Department of theory and spectroscopy      #
                  #    Directorship and core code : Frank Neese         #
                  #        Max Planck Institute fuer Kohlenforschung    #
                  #                Kaiser Wilhelm Platz 1               #
                  #                 D-45470 Muelheim/Ruhr               #
                  #                      Germany                        #
                  #                                                     #
                  #                  All rights reserved                #
                  #                        -***-                        #
                  #######################################################


                         Program Version 5.0.3 -  RELEASE  -


 With contributions from (in alphabetic order):
   Daniel Aravena         : Magnetic Suceptibility
   Michael Atanasov       : Ab Initio Ligand Field Theory (pilot matlab implementation)
   Alexander A. Auer      : GIAO ZORA, VPT2 properties, NMR spectrum
   Ute Becker             : Parallelization
   Giovanni Bistoni       : ED, misc. LED, open-shell LED, HFLD
   Martin Brehm           : Molecular dynamics
   Dmytro Bykov           : SCF Hessian
   Vijay G. Chilkuri      : MRCI spin determinant printing, contributions to CSF-ICE
   Dipayan Datta          : RHF DLPNO-CCSD density
   Achintya Kumar Dutta   : EOM-CC, STEOM-CC
   Dmitry Ganyushin       : Spin-Orbit,Spin-Spin,Magnetic field MRCI
   Miquel Garcia          : C-PCM and meta-GGA Hessian, CC/C-PCM, Gaussian charge scheme
   Yang Guo               : DLPNO-NEVPT2, F12-NEVPT2, CIM, IAO-localization
   Andreas Hansen         : Spin unrestricted coupled pair/coupled cluster methods
   Benjamin Helmich-Paris : MC-RPA, TRAH-SCF, COSX integrals
   Lee Huntington         : MR-EOM, pCC
   Robert Izsak           : Overlap fitted RIJCOSX, COSX-SCS-MP3, EOM
   Marcus Kettner         : VPT2
   Christian Kollmar      : KDIIS, OOCD, Brueckner-CCSD(T), CCSD density, CASPT2, CASPT2-K
   Simone Kossmann        : Meta GGA functionals, TD-DFT gradient, OOMP2, MP2 Hessian
   Martin Krupicka        : Initial AUTO-CI
   Lucas Lang             : DCDCAS
   Marvin Lechner         : AUTO-CI (C++ implementation), FIC-MRCC
   Dagmar Lenk            : GEPOL surface, SMD
   Dimitrios Liakos       : Extrapolation schemes; Compound Job, initial MDCI parallelization
   Dimitrios Manganas     : Further ROCIS development; embedding schemes
   Dimitrios Pantazis     : SARC Basis sets
   Anastasios Papadopoulos: AUTO-CI, single reference methods and gradients
   Taras Petrenko         : DFT Hessian,TD-DFT gradient, ASA, ECA, R-Raman, ABS, FL, XAS/XES, NRVS
   Peter Pinski           : DLPNO-MP2, DLPNO-MP2 Gradient
   Christoph Reimann      : Effective Core Potentials
   Marius Retegan         : Local ZFS, SOC
   Christoph Riplinger    : Optimizer, TS searches, QM/MM, DLPNO-CCSD(T), (RO)-DLPNO pert. Triples
   Tobias Risthaus        : Range-separated hybrids, TD-DFT gradient, RPA, STAB
   Michael Roemelt        : Original ROCIS implementation
   Masaaki Saitow         : Open-shell DLPNO-CCSD energy and density
   Barbara Sandhoefer     : DKH picture change effects
   Avijit Sen             : IP-ROCIS
   Kantharuban Sivalingam : CASSCF convergence, NEVPT2, FIC-MRCI
   Bernardo de Souza      : ESD, SOC TD-DFT
   Georgi Stoychev        : AutoAux, RI-MP2 NMR, DLPNO-MP2 response
   Willem Van den Heuvel  : Paramagnetic NMR
   Boris Wezisla          : Elementary symmetry handling
   Frank Wennmohs         : Technical directorship


 We gratefully acknowledge several colleagues who have allowed us to
 interface, adapt or use parts of their codes:
   Stefan Grimme, W. Hujo, H. Kruse, P. Pracht,  : VdW corrections, initial TS optimization,
                  C. Bannwarth, S. Ehlert          DFT functionals, gCP, sTDA/sTD-DF
   Ed Valeev, F. Pavosevic, A. Kumar             : LibInt (2-el integral package), F12 methods
   Garnet Chan, S. Sharma, J. Yang, R. Olivares  : DMRG
   Ulf Ekstrom                                   : XCFun DFT Library
   Mihaly Kallay                                 : mrcc  (arbitrary order and MRCC methods)
   Jiri Pittner, Ondrej Demel                    : Mk-CCSD
   Frank Weinhold                                : gennbo (NPA and NBO analysis)
   Christopher J. Cramer and Donald G. Truhlar   : smd solvation model
   Lars Goerigk                                  : TD-DFT with DH, B97 family of functionals
   V. Asgeirsson, H. Jonsson                     : NEB implementation
   FAccTs GmbH                                   : IRC, NEB, NEB-TS, DLPNO-Multilevel, CI-OPT
                                                   MM, QMMM, 2- and 3-layer-ONIOM, Crystal-QMMM,
                                                   LR-CPCM, SF, NACMEs, symmetry and pop. for TD-DFT,
                                                   nearIR, NL-DFT gradient (VV10), updates on ESD,
                                                   ML-optimized integration grids
   S Lehtola, MJT Oliveira, MAL Marques          : LibXC Library
   Liviu Ungur et al                             : ANISO software


 Your calculation uses the libint2 library for the computation of 2-el integrals
 For citations please refer to: http://libint.valeyev.net

 Your ORCA version has been built with support for libXC version: 5.1.0
 For citations please refer to: https://tddft.org/programs/libxc/

 This ORCA versions uses:
   CBLAS   interface :  Fast vector & matrix operations
   LAPACKE interface :  Fast linear algebra routines
   SCALAPACK package :  Parallel linear algebra routines
   Shared memory     :  Shared parallel matrices
   BLAS/LAPACK       :  OpenBLAS 0.3.15  USE64BITINT DYNAMIC_ARCH NO_AFFINITY Sandybridge SINGLE_THREADED
        Core in use  :  Sandybridge
   Copyright (c) 2011-2014, The OpenBLAS Project




***************************************
The coordinates will be read from file: 4-3.xyz
***************************************


================================================================================

cite the ECPs for Au [Def2-ECP] as follows:
Ce-Yb(ecp-28): M. Dolg, H. Stoll, H.Preuss, J. Chem. Phys., 1989, 90, 1730-1734.
Y-Cd(ecp-28), Hf-Hg(ecp-46): D. Andrae,U. Haeussermann, M. Dolg, H. Stoll, H. Preuss, Theor. Chim. Acta, 1990, 77, 123-141.
In-Sb(ecp-28), Tl-Bi(ecp-46): B. Metz, H. Stoll, M. Dolg, J. Chem. Phys., 2000, 113, 2563-2569.
Te-Xe(ecp-28), Po-Rn(ecp-46): K. A. Peterson, D. Figgen, E. Goll, H. Stoll, M. Dolg, J. Chem. Phys., 2003, 119, 11113-11123.
Rb(ecp-28), Cs(ecp-46): T. Leininger, A. Nicklass, W. Kuechle, H. Stoll, M. Dolg, A. Bergner, Chem. Phys. Lett., 1996, 255, 274-280.
Sr(ecp-28), Ba(ecp-46): M. Kaupp, P. V. Schleyer, H. Stoll and H. Preuss, J. Chem. Phys., 1991, 94, 1360-1366.
La(ecp-46): M. Dolg, H. Stoll, A. Savin, H. Preuss, Theor. Chim. Acta, 1989, 75, 173-194.
Lu(ecp-28): X. Cao, M. Dolg, J. Chem. Phys., 2001, 115, 7348-7355.

ECP parameters for Au [Def2-ECP] have been obtained from:
TURBOMOLE (7.0.2)

----- Orbital basis set information -----
Your calculation utilizes the basis: def2-TZVP
   F. Weigend and R. Ahlrichs, Phys. Chem. Chem. Phys. 7, 3297 (2005).

----- AuxJ basis set information -----
Your calculation utilizes the auxiliary basis: def2/J
   F. Weigend, Phys. Chem. Chem. Phys. 8, 1057 (2006).

================================================================================
                                        WARNINGS
                       Please study these warnings very carefully!
================================================================================


WARNING: your system is open-shell and RHF/RKS was chosen
  ===> : WILL SWITCH to UHF/UKS


WARNING: Geometry Optimization
  ===> : Switching off AutoStart
         For restart on a previous wavefunction, please use MOREAD

INFO   : the flag for use of the SHARK integral package has been found!

================================================================================
                                       INPUT FILE
================================================================================
NAME = pbe.inp
|  1> %pal nprocs 16 end 
|  2> 
|  3> !PBE def2-TZVP OPT UNO
|  4> !KDIIS
|  5> 
|  6> %geom
|  7>   maxiter 400
|  8> end
|  9> 
| 10> 
| 11> *xyzfile 0 5 4-3.xyz 
| 12> 
| 13>                          ****END OF INPUT****
================================================================================

                       *****************************
                       * Geometry Optimization Run *
                       *****************************

Geometry optimization settings:
Update method            Update   .... BFGS
Choice of coordinates    CoordSys .... Z-matrix Internals
Initial Hessian          InHess   .... Almoef's Model

Convergence Tolerances:
Energy Change            TolE     ....  5.0000e-06 Eh
Max. Gradient            TolMAXG  ....  3.0000e-04 Eh/bohr
RMS Gradient             TolRMSG  ....  1.0000e-04 Eh/bohr
Max. Displacement        TolMAXD  ....  4.0000e-03 bohr
RMS Displacement         TolRMSD  ....  2.0000e-03 bohr
Strict Convergence                ....  False
------------------------------------------------------------------------------
                        ORCA OPTIMIZATION COORDINATE SETUP
------------------------------------------------------------------------------

The optimization will be done in new redundant internal coordinates
Making redundant internal coordinates   ...  (new redundants) done
Evaluating the initial hessian          ...  (Almloef) done
Evaluating the coordinates              ...  done
Calculating the B-matrix                .... done
Calculating the G-matrix                .... done
Diagonalizing the G-matrix              .... done
The first mode is                       ....  418
The number of degrees of freedom        ....   42

    -----------------------------------------------------------------
                    Redundant Internal Coordinates


    -----------------------------------------------------------------
         Definition                    Initial Value    Approx d2E/dq
    -----------------------------------------------------------------
      1. B(Au  5,Au  2)                  2.7792         0.007354   
      2. B(Au  5,Au  0)                  2.7678         0.007670   
      3. B(Au  5,Au  4)                  2.7998         0.006817   
      4. B(Au  6,Au  1)                  2.7244         0.008996   
      5. B(Au  6,Au  4)                  2.8130         0.006495   
      6. B(Au  6,Au  3)                  2.7723         0.007542   
      7. B(Au  6,Au  5)                  2.7691         0.007632   
      8. B(Au  6,Au  2)                  2.9500         0.003927   
      9. B(Au 11,Au 10)                  2.7761         0.007439   
     10. B(Au 11,Au  7)                  2.7669         0.007693   
     11. B(Au 11,Au  4)                  2.7881         0.007118   
     12. B(Au 11,Au  0)                  2.7806         0.007316   
     13. B(Au 12,Au  9)                  2.8107         0.006551   
     14. B(Au 12,Au  8)                  2.7586         0.007932   
     15. B(Au 12,Au  1)                  2.7763         0.007432   
     16. B(Au 14,Au 12)                  2.7877         0.007127   
     17. B(Mn 15,Au  8)                  2.8145         0.046970   
     18. B(Mn 15,Au  7)                  2.8434         0.042236   
     19. B(Mn 15,Au  2)                  2.7822         0.052879   
     20. B(Mn 15,Au 14)                  2.8989         0.034443   
     21. B(Mn 15,Au 13)                  2.8707         0.038198   
     22. B(Mn 15,Au  4)                  2.9032         0.033901   
     23. B(Mn 15,Au 10)                  2.8021         0.049149   
     24. B(Mn 15,Au  6)                  2.9759         0.025957   
     25. B(Mn 15,Au  9)                  2.8165         0.046624   
     26. B(Mn 15,Au  3)                  2.7779         0.053727   
     27. B(Mn 15,Au  1)                  2.7944         0.050569   
     28. B(Mn 15,Au  0)                  2.8931         0.035186   
     29. A(Au  5,Au  0,Mn 15)           85.8521         0.171082   
     30. A(Au  5,Au  0,Au 11)          107.2722         0.140292   
     31. A(Au 11,Au  0,Mn 15)           84.0841         0.170208   
     32. A(Au  6,Au  1,Mn 15)           65.2491         0.181379   
     33. A(Au  6,Au  1,Au 12)          146.5813         0.142368   
     34. A(Au 12,Au  1,Mn 15)           81.3326         0.177472   
     35. A(Au  5,Au  2,Mn 15)           87.8041         0.178158   
     36. A(Au  5,Au  2,Au  6)           57.7147         0.133134   
     37. A(Au  6,Au  2,Mn 15)           62.4704         0.166355   
     38. A(Au  6,Au  3,Mn 15)           64.8476         0.178992   
     39. A(Au  5,Au  4,Mn 15)           85.0750         0.168251   
     40. A(Au 11,Au  4,Mn 15)           83.7641         0.169030   
     41. A(Au  6,Au  4,Au 11)          143.3044         0.138093   
     42. A(Au  5,Au  4,Au  6)           59.1217         0.137615   
     43. A(Au  6,Au  4,Mn 15)           62.7222         0.167388   
     44. A(Au  5,Au  4,Au 11)          106.1783         0.138634   
     45. A(Au  0,Au  5,Au  6)           98.5682         0.140786   
     46. A(Au  4,Au  5,Au  6)           60.6764         0.139423   
     47. A(Au  2,Au  5,Au  6)           64.2389         0.140296   
     48. A(Au  2,Au  5,Au  4)           94.5756         0.139002   
     49. A(Au  0,Au  5,Au  4)           66.6716         0.139480   
     50. A(Au  0,Au  5,Au  2)           63.3738         0.140354   
     51. A(Au  5,Au  6,Mn 15)           84.2476         0.165534   
     52. A(Au  2,Au  6,Au  4)           90.6529         0.131910   
     53. A(Au  1,Au  6,Au  2)           78.6354         0.135193   
     54. A(Au  1,Au  6,Mn 15)           58.5107         0.168437   
     55. A(Au  1,Au  6,Au  5)          134.5653         0.142689   
     56. A(Au  1,Au  6,Au  4)          111.7251         0.140765   
     57. A(Au  2,Au  6,Au  3)          113.2182         0.133387   
     58. A(Au  1,Au  6,Au  3)           61.4883         0.142546   
     59. A(Au  2,Au  6,Mn 15)           56.0017         0.154849   
     60. A(Au  3,Au  6,Mn 15)           57.6662         0.165330   
     61. A(Au  4,Au  6,Mn 15)           60.1218         0.162791   
     62. A(Au  2,Au  6,Au  5)           58.0464         0.133505   
     63. A(Au  4,Au  6,Au  5)           60.2020         0.138873   
     64. A(Au  3,Au  6,Au  4)           62.4175         0.138740   
     65. A(Au  3,Au  6,Au  5)          121.4785         0.140590   
     66. A(Au 11,Au  7,Mn 15)           85.2715         0.174605   
     67. A(Au 12,Au  8,Mn 15)           81.2848         0.177298   
     68. A(Au 12,Au  9,Mn 15)           80.3491         0.173415   
     69. A(Au 11,Au 10,Mn 15)           85.8905         0.176921   
     70. A(Au  4,Au 11,Au  7)           61.3675         0.140011   
     71. A(Au  0,Au 11,Au  7)           97.4141         0.140328   
     72. A(Au  7,Au 11,Au 10)           65.1555         0.140523   
     73. A(Au  4,Au 11,Au 10)           96.7435         0.139624   
     74. A(Au  0,Au 11,Au 10)           62.7745         0.139939   
     75. A(Au  0,Au 11,Au  4)           66.6593         0.139433   
     76. A(Au  1,Au 12,Au  9)           98.7676         0.138672   
     77. A(Au  8,Au 12,Au  9)           61.8126         0.139409   
     78. A(Au  1,Au 12,Au 14)           61.2603         0.139629   
     79. A(Au  9,Au 12,Au 14)           63.8729         0.138203   
     80. A(Au  8,Au 12,Au 14)          101.2225         0.140380   
     81. A(Au  1,Au 12,Au  8)           75.8681         0.140870   
     82. A(Au 12,Au 14,Mn 15)           79.3146         0.169341   
     83. A(Au  2,Mn 15,Au 10)          111.7028         0.242704   
     84. A(Au  1,Mn 15,Au 10)          155.8757         0.241158   
     85. A(Au  4,Mn 15,Au  7)           59.1040         0.223304   
     86. A(Au  0,Mn 15,Au 10)           61.0574         0.229167   
     87. A(Au  8,Mn 15,Au  9)           61.0715         0.236862   
     88. A(Au  3,Mn 15,Au  7)           59.7450         0.238056   
     89. A(Au  0,Mn 15,Au  4)           63.7248         0.217866   
     90. A(Au 13,Mn 15,Au 14)           57.0518         0.220755   
     91. A(Au  7,Mn 15,Au  9)           93.3180         0.233348   
     92. A(Au 10,Mn 15,Au 14)          108.0174         0.228491   
     93. A(Au  9,Mn 15,Au 14)           62.3989         0.226836   
     94. A(Au  4,Mn 15,Au  9)          148.6656         0.226343   
     95. A(Au  2,Mn 15,Au  7)          149.3219         0.237520   
     96. A(Au  8,Mn 15,Au 14)           97.2171         0.227067   
     97. A(Au  7,Mn 15,Au 14)          152.5891         0.223786   
     98. A(Au  3,Mn 15,Au  9)          120.1461         0.241429   
     99. A(Au  4,Mn 15,Au 14)          147.5850         0.217245   
    100. A(Au  3,Mn 15,Au 14)          119.6929         0.231332   
    101. A(Au  2,Mn 15,Au  9)          110.2447         0.240881   
    102. A(Au  1,Mn 15,Au  7)          116.3941         0.236026   
    103. A(Au  2,Mn 15,Au  3)          118.5160         0.245834   
    104. A(Au  1,Mn 15,Au  2)           80.4042         0.243698   
    105. A(Au  2,Mn 15,Au 14)           57.7014         0.230820   
    106. A(Au  1,Mn 15,Au 14)           59.6934         0.229394   
    107. A(Au  1,Mn 15,Au  9)           98.2032         0.239353   
    108. A(Au  0,Mn 15,Au 14)          105.6261         0.218329   
    109. A(Au 10,Mn 15,Au 13)           59.3237         0.231796   
    110. A(Au  0,Mn 15,Au  9)          107.3576         0.227504   
    111. A(Au  0,Mn 15,Au  7)           93.2009         0.224439   
    112. A(Au  9,Mn 15,Au 13)           59.1321         0.230102   
    113. A(Au  8,Mn 15,Au 13)          120.1322         0.230339   
    114. A(Au  7,Mn 15,Au  8)           57.6517         0.233590   
    115. A(Au  7,Mn 15,Au 13)          123.0960         0.226980   
    116. A(Au  4,Mn 15,Au 13)          121.2595         0.220283   
    117. A(Au  4,Mn 15,Au  8)          107.8819         0.226573   
    118. A(Au  3,Mn 15,Au  4)           61.2091         0.230822   
    119. A(Au  1,Mn 15,Au  3)           60.5729         0.244257   
    120. A(Au  2,Mn 15,Au 13)           60.1055         0.234180   
    121. A(Au  1,Mn 15,Au 13)          116.1837         0.232720   
    122. A(Au  3,Mn 15,Au  8)           59.4251         0.241684   
    123. A(Au  6,Mn 15,Au 14)           94.5803         0.209724   
    124. A(Au  6,Mn 15,Au 13)          121.4750         0.212584   
    125. A(Au  0,Mn 15,Au 13)           57.5400         0.221394   
    126. A(Au  6,Mn 15,Au 10)          147.7586         0.219840   
    127. A(Au  6,Mn 15,Au  9)          153.2244         0.218288   
    128. A(Au  9,Mn 15,Au 10)           58.4172         0.238387   
    129. A(Au  2,Mn 15,Au  8)          151.5831         0.241135   
    130. A(Au  2,Mn 15,Au  4)           92.2538         0.230312   
    131. A(Au  6,Mn 15,Au  8)          112.7940         0.218505   
    132. A(Au  6,Mn 15,Au  7)          104.9149         0.215427   
    133. A(Au  8,Mn 15,Au 10)           87.4137         0.238637   
    134. A(Au  4,Mn 15,Au  6)           57.1560         0.209291   
    135. A(Au  3,Mn 15,Au  6)           57.4863         0.222505   
    136. A(Au  7,Mn 15,Au 10)           63.8264         0.235081   
    137. A(Au  1,Mn 15,Au  8)           74.6960         0.239605   
    138. A(Au  2,Mn 15,Au  6)           61.5278         0.222025   
    139. A(Au  1,Mn 15,Au  6)           56.2402         0.220687   
    140. A(Au  4,Mn 15,Au 10)           93.5847         0.227991   
    141. A(Au  0,Mn 15,Au  6)           91.2857         0.210309   
    142. A(Au  3,Mn 15,Au 10)          123.4042         0.243259   
    143. A(Au  0,Mn 15,Au  8)          145.3372         0.227736   
    144. A(Au  1,Mn 15,Au  4)          107.1026         0.228891   
    145. A(Au  0,Mn 15,Au  3)          124.9112         0.232021   
    146. A(Au  0,Mn 15,Au  2)           61.7450         0.231507   
    147. A(Au  0,Mn 15,Au  1)          139.5888         0.230074   
    148. D(Au  6,Au  5,Au  4,Au 11)    143.0616         0.001502   
    149. D(Au  0,Au  5,Au  4,Au 11)     27.6994         0.001502   
    150. D(Au  4,Au  5,Au  0,Mn 15)     54.5322         0.001502   
    151. D(Au  2,Au  5,Au  0,Au 11)   -136.2172         0.001502   
    152. D(Au  6,Au  5,Au  0,Au 11)    -80.7725         0.001502   
    153. D(Au  6,Au  5,Au  2,Mn 15)    -58.4725         0.001502   
    154. D(Au  2,Au  5,Au  4,Au 11)     86.0890         0.001502   
    155. D(Au  0,Au  5,Au  4,Au  6)   -115.3622         0.001502   
    156. D(Au  4,Au  5,Au  2,Au  6)     54.2573         0.001502   
    157. D(Au  4,Au  5,Au  0,Au 11)    -27.9538         0.001502   
    158. D(Au  6,Au  5,Au  0,Mn 15)      1.7134         0.001502   
    159. D(Au  2,Au  5,Au  4,Mn 15)      4.0513         0.001502   
    160. D(Au  0,Au  5,Au  2,Au  6)    115.2765         0.001502   
    161. D(Au  2,Au  5,Au  0,Mn 15)    -53.7313         0.001502   
    162. D(Au  0,Au  5,Au  2,Mn 15)     56.8039         0.001502   
    163. D(Au  4,Au  5,Au  2,Mn 15)     -4.2152         0.001502   
    164. D(Au  6,Au  5,Au  4,Mn 15)     61.0238         0.001502   
    165. D(Au  2,Au  5,Au  4,Au  6)    -56.9726         0.001502   
    166. D(Au  0,Au  5,Au  4,Mn 15)    -54.3384         0.001502   
    167. D(Au  1,Au  6,Au  5,Au  4)    -91.9870         0.001502   
    168. D(Mn 15,Au  6,Au  5,Au  4)    -58.7163         0.001502   
    169. D(Au  1,Au  6,Au  2,Mn 15)    -59.5305         0.001501   
    170. D(Au  5,Au  6,Au  4,Mn 15)   -101.2913         0.001502   
    171. D(Au  1,Au  6,Au  2,Au  5)   -165.6837         0.001501   
    172. D(Au  2,Au  6,Au  5,Au  4)   -111.8803         0.001502   
    173. D(Au  5,Au  6,Au  2,Mn 15)    106.1532         0.001501   
    174. D(Au  3,Au  6,Au  2,Au  5)   -113.7093         0.001501   
    175. D(Au  3,Au  6,Au  5,Au  2)     99.3755         0.001502   
    176. D(Mn 15,Au  6,Au  4,Au 11)     26.3077         0.001502   
    177. D(Au  3,Au  6,Au  2,Mn 15)     -7.5561         0.001501   
    178. D(Au  4,Au  6,Au  1,Mn 15)    -29.1998         0.001503   
    179. D(Au  2,Au  6,Au  4,Mn 15)    -49.3475         0.001502   
    180. D(Au  2,Au  6,Au  3,Mn 15)      7.4132         0.001502   
    181. D(Au  3,Au  6,Au  4,Mn 15)     66.6838         0.001502   
    182. D(Au  1,Au  6,Au  4,Au 11)     54.9790         0.001502   
    183. D(Au  1,Au  6,Au  4,Au  5)    129.9626         0.001502   
    184. D(Au  5,Au  6,Au  1,Au 12)     40.1191         0.001503   
    185. D(Au  3,Au  6,Au  4,Au 11)     92.9915         0.001502   
    186. D(Au  1,Au  6,Au  4,Mn 15)     28.6713         0.001502   
    187. D(Au  2,Au  6,Au  5,Au  0)    -54.8338         0.001502   
    188. D(Mn 15,Au  6,Au  4,Au  5)    101.2913         0.001502   
    189. D(Au  4,Au  6,Au  1,Au 12)    -28.8795         0.001503   
    190. D(Au  5,Au  6,Au  4,Au 11)    -74.9836         0.001502   
    191. D(Au  2,Au  6,Au  4,Au 11)    -23.0397         0.001502   
    192. D(Au  2,Au  6,Au  1,Au 12)     57.2458         0.001503   
    193. D(Au  2,Au  6,Au  4,Au  5)     51.9439         0.001502   
    194. D(Au  5,Au  6,Au  3,Mn 15)    -58.2193         0.001502   
    195. D(Au  1,Au  6,Au  5,Au  2)     19.8934         0.001502   
    196. D(Mn 15,Au  6,Au  1,Au 12)      0.3203         0.001503   
    197. D(Au  1,Au  6,Au  5,Au  0)    -34.9405         0.001502   
    198. D(Au  3,Au  6,Au  5,Au  4)    -12.5048         0.001502   
    199. D(Au  4,Au  6,Au  5,Au  0)     57.0465         0.001502   
    200. D(Au  3,Au  6,Au  5,Au  0)     44.5417         0.001502   
    201. D(Au  5,Au  6,Au  1,Mn 15)     39.7988         0.001503   
    202. D(Au  4,Au  6,Au  3,Mn 15)    -70.4582         0.001502   
    203. D(Au  4,Au  6,Au  2,Au  5)    -53.6415         0.001501   
    204. D(Au  4,Au  6,Au  2,Mn 15)     52.5117         0.001501   
    205. D(Au  1,Au  6,Au  3,Mn 15)     68.9209         0.001502   
    206. D(Mn 15,Au  6,Au  2,Au  5)   -106.1532         0.001501   
    207. D(Au  3,Au  6,Au  4,Au  5)    167.9751         0.001502   
    208. D(Au  4,Au  6,Au  5,Au  2)    111.8803         0.001502   
    209. D(Mn 15,Au  6,Au  5,Au  0)     -1.6698         0.001502   
    210. D(Au  3,Au  6,Au  1,Mn 15)    -67.6020         0.001503   
    211. D(Au  2,Au  6,Au  1,Mn 15)     56.9255         0.001503   
    212. D(Au  3,Au  6,Au  1,Au 12)    -67.2817         0.001503   
    213. D(Mn 15,Au  6,Au  5,Au  2)     53.1640         0.001502   
    214. D(Au  0,Au 11,Au  4,Mn 15)     55.4511         0.001502   
    215. D(Au  7,Au 11,Au  0,Au  5)     82.4619         0.001502   
    216. D(Au 10,Au 11,Au  0,Mn 15)     55.7655         0.001502   
    217. D(Au  7,Au 11,Au 10,Mn 15)     55.1163         0.001502   
    218. D(Au  4,Au 11,Au 10,Mn 15)      1.0245         0.001502   
    219. D(Au  0,Au 11,Au 10,Mn 15)    -58.3450         0.001502   
    220. D(Au 10,Au 11,Au  7,Mn 15)    -54.0067         0.001502   
    221. D(Au  4,Au 11,Au  7,Mn 15)     59.5847         0.001502   
    222. D(Au  0,Au 11,Au  7,Mn 15)      1.3371         0.001502   
    223. D(Au 10,Au 11,Au  4,Au  5)    -84.0062         0.001502   
    224. D(Au 10,Au 11,Au  4,Au  6)    -24.3362         0.001502   
    225. D(Au 10,Au 11,Au  4,Mn 15)     -0.9921         0.001502   
    226. D(Au  7,Au 11,Au  4,Mn 15)    -57.8590         0.001502   
    227. D(Au 10,Au 11,Au  0,Au  5)    139.5439         0.001502   
    228. D(Au  4,Au 11,Au  0,Au  5)     28.0850         0.001502   
    229. D(Au  4,Au 11,Au  0,Mn 15)    -55.6935         0.001502   
    230. D(Au  0,Au 11,Au  4,Au  6)     32.1070         0.001502   
    231. D(Au  7,Au 11,Au  0,Mn 15)     -1.3166         0.001502   
    232. D(Au  7,Au 11,Au  4,Au  6)    -81.2030         0.001502   
    233. D(Au  7,Au 11,Au  4,Au  5)   -140.8731         0.001502   
    234. D(Au  0,Au 11,Au  4,Au  5)    -27.5630         0.001502   
    235. D(Au  1,Au 12,Au  9,Mn 15)      8.8243         0.001501   
    236. D(Au 14,Au 12,Au  8,Mn 15)      7.7074         0.001502   
    237. D(Au 14,Au 12,Au  1,Mn 15)    -62.5177         0.001502   
    238. D(Au  8,Au 12,Au  1,Mn 15)     49.0105         0.001502   
    239. D(Au  8,Au 12,Au  1,Au  6)     48.7163         0.001502   
    240. D(Au  9,Au 12,Au  1,Mn 15)     -8.8699         0.001502   
    241. D(Au  9,Au 12,Au  1,Au  6)     -9.1641         0.001502   
    242. D(Au  1,Au 12,Au  8,Mn 15)    -48.5502         0.001502   
    243. D(Au  9,Au 12,Au  8,Mn 15)     59.7057         0.001502   
    244. D(Au 14,Au 12,Au  1,Au  6)    -62.8119         0.001502   
    245. D(Au 14,Au 12,Au  9,Mn 15)     60.6881         0.001501   
    246. D(Au  8,Au 12,Au  9,Mn 15)    -59.8952         0.001501   
    247. D(Mn 15,Au 14,Au 12,Au  1)     59.3519         0.001501   
    248. D(Mn 15,Au 14,Au 12,Au  8)     -7.5260         0.001501   
    249. D(Mn 15,Au 14,Au 12,Au  9)    -58.2031         0.001501   
    250. D(Au  0,Mn 15,Au  1,Au 12)    138.2049         0.001514   
    251. D(Au 10,Mn 15,Au  6,Au  5)     30.9167         0.001505   
    252. D(Au  6,Mn 15,Au  0,Au  5)     -1.5770         0.001507   
    253. D(Au 14,Mn 15,Au  0,Au  5)     93.5417         0.001507   
    254. D(Au  9,Mn 15,Au  6,Au  3)     93.3708         0.001505   
    255. D(Au  9,Mn 15,Au  6,Au  2)    -78.4064         0.001505   
    256. D(Au 13,Mn 15,Au  0,Au  5)    125.6292         0.001507   
    257. D(Au 10,Mn 15,Au  0,Au  5)   -164.1986         0.001507   
    258. D(Au  7,Mn 15,Au  6,Au  5)     95.2367         0.001505   
    259. D(Au  7,Mn 15,Au  6,Au  4)     36.4446         0.001505   
    260. D(Au  9,Mn 15,Au  0,Au  5)    158.9202         0.001507   
    261. D(Au  9,Mn 15,Au  0,Au 11)    -93.2134         0.001507   
    262. D(Au  4,Mn 15,Au  6,Au  5)     58.7921         0.001505   
    263. D(Au 10,Mn 15,Au  0,Au 11)    -56.3321         0.001507   
    264. D(Au  8,Mn 15,Au  6,Au  3)     22.7544         0.001505   
    265. D(Au 13,Mn 15,Au  0,Au 11)   -126.5043         0.001507   
    266. D(Au  8,Mn 15,Au  0,Au  5)   -137.1228         0.001507   
    267. D(Au 14,Mn 15,Au  0,Au 11)   -158.5918         0.001507   
    268. D(Au 10,Mn 15,Au  6,Au  1)   -176.3636         0.001505   
    269. D(Au  6,Mn 15,Au  0,Au 11)    106.2895         0.001507   
    270. D(Au 13,Mn 15,Au  6,Au  1)    102.3040         0.001505   
    271. D(Au  0,Mn 15,Au  1,Au  6)    -41.9735         0.001514   
    272. D(Au 13,Mn 15,Au  6,Au  4)   -109.2079         0.001505   
    273. D(Au  2,Mn 15,Au  1,Au  6)    -62.0593         0.001514   
    274. D(Au  4,Mn 15,Au  6,Au  2)    113.7874         0.001505   
    275. D(Au  8,Mn 15,Au  0,Au 11)    -29.2564         0.001507   
    276. D(Au  4,Mn 15,Au  6,Au  1)   -148.4882         0.001505   
    277. D(Au  3,Mn 15,Au  6,Au  5)    133.2275         0.001505   
    278. D(Au  7,Mn 15,Au  0,Au  5)   -106.5940         0.001507   
    279. D(Au  7,Mn 15,Au  0,Au 11)      1.2725         0.001507   
    280. D(Au  2,Mn 15,Au  6,Au  5)    -54.9953         0.001505   
    281. D(Au  4,Mn 15,Au  0,Au  5)    -53.5465         0.001507   
    282. D(Au  4,Mn 15,Au  0,Au 11)     54.3199         0.001507   
    283. D(Au  2,Mn 15,Au  6,Au  1)     97.7244         0.001505   
    284. D(Au  1,Mn 15,Au  6,Au  5)   -152.7197         0.001505   
    285. D(Au  3,Mn 15,Au  0,Au  5)    -51.7882         0.001507   
    286. D(Au  3,Mn 15,Au  0,Au 11)     56.0783         0.001507   
    287. D(Au  0,Mn 15,Au  6,Au  5)      1.5800         0.001505   
    288. D(Au  2,Mn 15,Au  0,Au  5)     54.8213         0.001507   
    289. D(Au  2,Mn 15,Au  0,Au 11)    162.6878         0.001507   
    290. D(Au  0,Mn 15,Au  6,Au  2)     56.5753         0.001505   
    291. D(Au  0,Mn 15,Au  6,Au  1)    154.2998         0.001505   
    292. D(Au  1,Mn 15,Au  0,Au  5)     32.2132         0.001507   
    293. D(Au  1,Mn 15,Au  0,Au 11)    140.0797         0.001507   
    294. D(Au 14,Mn 15,Au  4,Au  5)    -24.7138         0.001507   
    295. D(Au 14,Mn 15,Au  4,Au 11)   -131.6161         0.001507   
    296. D(Au 13,Mn 15,Au  4,Au  5)     51.9342         0.001507   
    297. D(Au 13,Mn 15,Au  4,Au 11)    -54.9681         0.001507   
    298. D(Au 13,Mn 15,Au  4,Au  6)    109.5811         0.001507   
    299. D(Au 10,Mn 15,Au  4,Au 11)      0.9780         0.001507   
    300. D(Au 10,Mn 15,Au  4,Au  6)    165.5271         0.001507   
    301. D(Au  9,Mn 15,Au  4,Au  5)    132.8963         0.001507   
    302. D(Au  9,Mn 15,Au  4,Au 11)     25.9940         0.001507   
    303. D(Au  9,Mn 15,Au  4,Au  6)   -169.4568         0.001507   
    304. D(Au  8,Mn 15,Au  4,Au  5)   -163.6838         0.001507   
    305. D(Au  8,Mn 15,Au  4,Au 11)     89.4139         0.001507   
    306. D(Au  7,Mn 15,Au  4,Au  5)    164.3397         0.001507   
    307. D(Au  7,Mn 15,Au  4,Au 11)     57.4374         0.001507   
    308. D(Au  7,Mn 15,Au  4,Au  6)   -138.0135         0.001507   
    309. D(Au  3,Mn 15,Au  4,Au 11)    127.4908         0.001507   
    310. D(Au  3,Mn 15,Au  4,Au  6)    -67.9600         0.001507   
    311. D(Au  2,Mn 15,Au  4,Au  5)     -4.0371         0.001507   
    312. D(Au  2,Mn 15,Au  4,Au  6)     53.6098         0.001507   
    313. D(Au  1,Mn 15,Au  4,Au  5)    -84.6888         0.001507   
    314. D(Au  1,Mn 15,Au  4,Au 11)    168.4089         0.001507   
    315. D(Au  1,Mn 15,Au  4,Au  6)    -27.0420         0.001507   
    316. D(Au  0,Mn 15,Au  4,Au  5)     52.7478         0.001507   
    317. D(Au  0,Mn 15,Au  4,Au 11)    -54.1545         0.001507   
    318. D(Au  0,Mn 15,Au  4,Au  6)    110.3947         0.001507   
    319. D(Au 14,Mn 15,Au  3,Au  6)    -75.2588         0.001515   
    320. D(Au 10,Mn 15,Au  3,Au  6)    141.3648         0.001515   
    321. D(Au  9,Mn 15,Au  3,Au  6)   -148.6640         0.001515   
    322. D(Au  8,Mn 15,Au  3,Au  6)   -155.5337         0.001515   
    323. D(Au  7,Mn 15,Au  3,Au  6)    136.4815         0.001515   
    324. D(Au  4,Mn 15,Au  3,Au  6)     67.4435         0.001515   
    325. D(Au  2,Mn 15,Au  3,Au  6)     -8.2263         0.001515   
    326. D(Au  1,Mn 15,Au  3,Au  6)    -66.6053         0.001515   
    327. D(Au  0,Mn 15,Au  3,Au  6)     65.6444         0.001515   
    328. D(Au  6,Mn 15,Au  2,Au  5)     54.3528         0.001515   
    329. D(Au  2,Mn 15,Au  4,Au 11)   -110.9394         0.001507   
    330. D(Au 14,Mn 15,Au  2,Au  5)    171.1155         0.001515   
    331. D(Au 14,Mn 15,Au  2,Au  6)    116.7628         0.001515   
    332. D(Au 13,Mn 15,Au  2,Au  5)   -121.1422         0.001515   
    333. D(Au  3,Mn 15,Au  4,Au  5)   -125.6069         0.001507   
    334. D(Au 13,Mn 15,Au  2,Au  6)   -175.4950         0.001515   
    335. D(Au 10,Mn 15,Au  2,Au  5)    -90.7066         0.001515   
    336. D(Au 10,Mn 15,Au  2,Au  6)   -145.0593         0.001515   
    337. D(Au  8,Mn 15,Au  4,Au  6)   -106.0370         0.001507   
    338. D(Au  9,Mn 15,Au  2,Au  5)   -153.7051         0.001515   
    339. D(Au  9,Mn 15,Au  2,Au  6)    151.9421         0.001515   
    340. D(Au  8,Mn 15,Au  2,Au  5)    139.9834         0.001515   
    341. D(Au  6,Mn 15,Au 14,Au 12)   -106.4055         0.001507   
    342. D(Au 13,Mn 15,Au 14,Au 12)    128.6857         0.001507   
    343. D(Au  8,Mn 15,Au  2,Au  6)     85.6306         0.001515   
    344. D(Au  7,Mn 15,Au  2,Au  5)    -15.7518         0.001515   
    345. D(Au 10,Mn 15,Au  4,Au  5)    107.8803         0.001507   
    346. D(Au  7,Mn 15,Au 14,Au 12)     29.2665         0.001507   
    347. D(Au  7,Mn 15,Au  2,Au  6)    -70.1045         0.001515   
    348. D(Au  4,Mn 15,Au  2,Au  5)      4.0551         0.001515   
    349. D(Au 14,Mn 15,Au  4,Au  6)     32.9330         0.001507   
    350. D(Au  2,Mn 15,Au 14,Au 12)   -158.3485         0.001507   
    351. D(Au  1,Mn 15,Au 14,Au 12)    -60.2392         0.001507   
    352. D(Au  6,Mn 15,Au  4,Au 11)   -164.5491         0.001507   
    353. D(Au  6,Mn 15,Au  4,Au  5)    -57.6469         0.001507   
    354. D(Au  4,Mn 15,Au  2,Au  6)    -50.2977         0.001515   
    355. D(Au  3,Mn 15,Au  2,Au  5)     62.2419         0.001515   
    356. D(Au  0,Mn 15,Au  6,Au  3)   -131.6475         0.001505   
    357. D(Au  0,Mn 15,Au  6,Au  4)    -57.2121         0.001505   
    358. D(Au 13,Mn 15,Au 10,Au 11)    123.5879         0.001513   
    359. D(Au  1,Mn 15,Au  6,Au  2)    -97.7244         0.001505   
    360. D(Au  1,Mn 15,Au  6,Au  3)     74.0527         0.001505   
    361. D(Au  1,Mn 15,Au  6,Au  4)    148.4882         0.001505   
    362. D(Au  3,Mn 15,Au  2,Au  6)      7.8892         0.001515   
    363. D(Au  1,Mn 15,Au  2,Au  5)    111.0229         0.001515   
    364. D(Au  2,Mn 15,Au  6,Au  3)    171.7772         0.001505   
    365. D(Au  2,Mn 15,Au  6,Au  4)   -113.7874         0.001505   
    366. D(Au  7,Mn 15,Au 10,Au 11)    -53.8177         0.001513   
    367. D(Au  3,Mn 15,Au  6,Au  1)    -74.0527         0.001505   
    368. D(Au  3,Mn 15,Au  6,Au  2)   -171.7772         0.001505   
    369. D(Au  3,Mn 15,Au  6,Au  4)     74.4354         0.001505   
    370. D(Au  4,Mn 15,Au 10,Au 11)     -0.9789         0.001513   
    371. D(Au  1,Mn 15,Au  2,Au  6)     56.6701         0.001515   
    372. D(Au  0,Mn 15,Au  2,Au  5)    -54.3369         0.001515   
    373. D(Au  4,Mn 15,Au  6,Au  3)    -74.4354         0.001505   
    374. D(Au  0,Mn 15,Au 10,Au 11)     56.2354         0.001513   
    375. D(Au  7,Mn 15,Au  6,Au  1)   -112.0436         0.001505   
    376. D(Au  7,Mn 15,Au  6,Au  2)    150.2320         0.001505   
    377. D(Au  7,Mn 15,Au  6,Au  3)    -37.9908         0.001505   
    378. D(Au  0,Mn 15,Au  2,Au  6)   -108.6897         0.001515   
    379. D(Au 14,Mn 15,Au  9,Au 12)    -58.1606         0.001512   
    380. D(Au  8,Mn 15,Au  6,Au  1)    -51.2983         0.001505   
    381. D(Au  8,Mn 15,Au  6,Au  2)   -149.0228         0.001505   
    382. D(Au  6,Mn 15,Au  1,Au 12)   -179.8216         0.001514   
    383. D(Au  8,Mn 15,Au  6,Au  4)     97.1898         0.001505   
    384. D(Au  8,Mn 15,Au  6,Au  5)    155.9819         0.001505   
    385. D(Au  9,Mn 15,Au  6,Au  1)     19.3180         0.001505   
    386. D(Au 13,Mn 15,Au  9,Au 12)   -124.4256         0.001512   
    387. D(Au 10,Mn 15,Au  9,Au 12)    164.8582         0.001512   
    388. D(Au  9,Mn 15,Au  6,Au  4)    167.8062         0.001505   
    389. D(Au  9,Mn 15,Au  6,Au  5)   -133.4017         0.001505   
    390. D(Au 14,Mn 15,Au  1,Au 12)     60.0488         0.001514   
    391. D(Au 10,Mn 15,Au  6,Au  2)     85.9120         0.001505   
    392. D(Au 10,Mn 15,Au  6,Au  3)   -102.3108         0.001505   
    393. D(Au 10,Mn 15,Au  6,Au  4)    -27.8754         0.001505   
    394. D(Au 14,Mn 15,Au  1,Au  6)   -120.1297         0.001514   
    395. D(Au  3,Mn 15,Au  9,Au 12)     51.8849         0.001512   
    396. D(Au 13,Mn 15,Au  6,Au  2)      4.5795         0.001505   
    397. D(Au 13,Mn 15,Au  6,Au  3)    176.3567         0.001505   
    398. D(Au 13,Mn 15,Au  1,Au 12)     68.3904         0.001514   
    399. D(Au 13,Mn 15,Au  6,Au  5)    -50.4158         0.001505   
    400. D(Au 14,Mn 15,Au  6,Au  1)     48.5112         0.001505   
    401. D(Au 14,Mn 15,Au  6,Au  2)    -49.2132         0.001505   
    402. D(Au 13,Mn 15,Au  1,Au  6)   -111.7880         0.001514   
    403. D(Au  0,Mn 15,Au  9,Au 12)   -157.0795         0.001512   
    404. D(Au  6,Mn 15,Au  8,Au 12)     90.7524         0.001512   
    405. D(Au 10,Mn 15,Au  1,Au 12)     -4.5703         0.001514   
    406. D(Au 10,Mn 15,Au  1,Au  6)    175.2512         0.001514   
    407. D(Au  9,Mn 15,Au  8,Au 12)    -60.1994         0.001512   
    408. D(Au  9,Mn 15,Au  1,Au 12)      8.8384         0.001514   
    409. D(Au  9,Mn 15,Au  1,Au  6)   -171.3400         0.001514   
    410. D(Au  3,Mn 15,Au  8,Au 12)    113.0135         0.001512   
    411. D(Au  2,Mn 15,Au  8,Au 12)     18.8103         0.001512   
    412. D(Au  8,Mn 15,Au  1,Au 12)    -48.0594         0.001514   
    413. D(Au  1,Mn 15,Au  8,Au 12)     48.4790         0.001512   
    414. D(Au  0,Mn 15,Au  8,Au 12)   -138.6654         0.001512   
    415. D(Au  8,Mn 15,Au  1,Au  6)    131.7622         0.001514   
    416. D(Au  6,Mn 15,Au  7,Au 11)    -93.4629         0.001510   
    417. D(Au 14,Mn 15,Au  7,Au 11)    132.6592         0.001510   
    418. D(Au  7,Mn 15,Au  1,Au 12)    -89.0256         0.001514   
    419. D(Au 13,Mn 15,Au  7,Au 11)     51.4803         0.001510   
    420. D(Au  4,Mn 15,Au  8,Au 12)    151.8988         0.001512   
    421. D(Au  7,Mn 15,Au  8,Au 12)   -175.5602         0.001512   
    422. D(Au 10,Mn 15,Au  7,Au 11)     54.1439         0.001510   
    423. D(Au 10,Mn 15,Au  8,Au 12)   -115.1669         0.001512   
    424. D(Au 13,Mn 15,Au  8,Au 12)    -63.2440         0.001512   
    425. D(Au 14,Mn 15,Au  8,Au 12)     -7.3260         0.001512   
    426. D(Au  7,Mn 15,Au  1,Au  6)     90.7959         0.001514   
    427. D(Au  9,Mn 15,Au  7,Au 11)    106.3342         0.001510   
    428. D(Au  1,Mn 15,Au  9,Au 12)     -8.7539         0.001512   
    429. D(Au  2,Mn 15,Au  9,Au 12)    -91.4957         0.001512   
    430. D(Au  8,Mn 15,Au  7,Au 11)    158.7262         0.001510   
    431. D(Au  4,Mn 15,Au  9,Au 12)    135.1604         0.001512   
    432. D(Au  7,Mn 15,Au  9,Au 12)    108.5203         0.001512   
    433. D(Au  8,Mn 15,Au  9,Au 12)     58.6421         0.001512   
    434. D(Au  4,Mn 15,Au  1,Au 12)   -152.4704         0.001514   
    435. D(Au  4,Mn 15,Au  7,Au 11)    -57.8984         0.001510   
    436. D(Au  3,Mn 15,Au  7,Au 11)   -130.3977         0.001510   
    437. D(Au  6,Mn 15,Au  9,Au 12)    -24.8871         0.001512   
    438. D(Au  4,Mn 15,Au  1,Au  6)     27.3511         0.001514   
    439. D(Au  1,Mn 15,Au 10,Au 11)   -150.3887         0.001513   
    440. D(Au  2,Mn 15,Au 10,Au 11)     92.8825         0.001513   
    441. D(Au  3,Mn 15,Au 10,Au 11)    -58.5173         0.001513   
    442. D(Au  2,Mn 15,Au  7,Au 11)    -34.6587         0.001510   
    443. D(Au  1,Mn 15,Au  7,Au 11)   -152.8107         0.001510   
    444. D(Au  8,Mn 15,Au 10,Au 11)   -108.7457         0.001513   
    445. D(Au  9,Mn 15,Au 10,Au 11)   -166.0191         0.001513   
    446. D(Au  3,Mn 15,Au  1,Au 12)   -111.2436         0.001514   
    447. D(Au 14,Mn 15,Au 10,Au 11)    154.5036         0.001513   
    448. D(Au  6,Mn 15,Au 10,Au 11)     22.1987         0.001513   
    449. D(Au  0,Mn 15,Au 14,Au 12)    160.9705         0.001507   
    450. D(Au  0,Mn 15,Au  7,Au 11)     -1.2763         0.001510   
    451. D(Au 14,Mn 15,Au  6,Au  5)   -104.2085         0.001505   
    452. D(Au  3,Mn 15,Au 14,Au 12)    -51.5085         0.001507   
    453. D(Au  4,Mn 15,Au 14,Au 12)   -133.6777         0.001507   
    454. D(Au  3,Mn 15,Au  1,Au  6)     68.5779         0.001514   
    455. D(Au  8,Mn 15,Au 14,Au 12)      7.2921         0.001507   
    456. D(Au  9,Mn 15,Au 14,Au 12)     59.2383         0.001507   
    457. D(Au 10,Mn 15,Au 14,Au 12)     96.9115         0.001507   
    458. D(Au 14,Mn 15,Au  6,Au  4)   -163.0006         0.001505   
    459. D(Au 14,Mn 15,Au  6,Au  3)    122.5639         0.001505   
    460. D(Au  2,Mn 15,Au  1,Au 12)    118.1191         0.001514   
    -----------------------------------------------------------------

Number of atoms                         .... 16
Number of degrees of freedom            .... 460

         *************************************************************
         *                GEOMETRY OPTIMIZATION CYCLE   1            *
         *************************************************************
---------------------------------
CARTESIAN COORDINATES (ANGSTROEM)
---------------------------------
  Au     7.645432    9.824560    7.013065
  Au     6.867133    4.733168    8.413557
  Au     8.325343    7.124974    6.153020
  Au     4.717384    6.366530    9.193406
  Au     4.832422    8.749528    7.554781
  Au     6.151351    8.497741    5.097920
  Au     5.546046    6.220097    6.551869
  Au     5.337657    8.843768   10.342574
  Au     6.559091    6.581126   11.254017
  Au     9.207966    7.475403   10.646826
  Au     8.103283    9.861741    9.870430
  Au     5.856001   11.049054    8.753896
  Au     8.527066    4.748454   10.638957
  Au     9.827521    8.511351    8.113048
  Au     9.496218    5.778706    8.236711
  Mn     7.201092    7.495546    8.670835

----------------------------
CARTESIAN COORDINATES (A.U.)
----------------------------
  NO LB      ZA    FRAG     MASS         X           Y           Z
   0 Au   19.0000*   0   196.966   14.447773   18.565727   13.252773
   1 Au   19.0000*   0   196.966   12.977000    8.944391   15.899319
   2 Au   19.0000*   0   196.966   15.732617   13.464250   11.627522
   3 Au   19.0000*   0   196.966    8.914564   12.030999   17.373019
   4 Au   19.0000*   0   196.966    9.131954   16.534211   14.276467
   5 Au   19.0000*   0   196.966   11.624368   16.058403    9.633672
   6 Au   19.0000*   0   196.966   10.480509   11.754279   12.381238
   7 Au   19.0000*   0   196.966   10.086709   16.712299   19.544632
   8 Au   19.0000*   0   196.966   12.394885   12.436526   21.267010
   9 Au   19.0000*   0   196.966   17.400535   14.126465   20.119586
  10 Au   19.0000*   0   196.966   15.312986   18.635990   18.652410
  11 Au   19.0000*   0   196.966   11.066239   20.879686   16.542465
  12 Au   19.0000*   0   196.966   16.113820    8.973277   20.104715
  13 Au   19.0000*   0   196.966   18.571323   16.084123   15.331439
  14 Au   19.0000*   0   196.966   17.945252   10.920173   15.565129
  15 Mn   25.0000    0    54.940   13.608092   14.164529   16.385503
* core charge reduced due to ECP

--------------------------------
INTERNAL COORDINATES (ANGSTROEM)
--------------------------------
 Au     0   0   0     0.000000000000     0.00000000     0.00000000
 Au     1   0   0     5.337546155592     0.00000000     0.00000000
 Au     1   2   0     2.913712011745    39.43842091     0.00000000
 Au     2   1   3     2.810241305725    68.28091030   209.60224883
 Au     4   2   1     2.894305117064   106.91938831    20.59034933
 Au     1   2   3     2.767762827762    69.24133249    65.24861239
 Au     2   1   3     2.724354500665    51.00793167   278.01180172
 Au     4   2   1     2.800362256749   117.29624587   316.48948013
 Au     8   4   2     2.728035304679    60.17018083   310.80105049
 Au     9   8   4     2.860935744085    94.84048640   120.32714577
 Au    10   9   8     2.741846955645    87.65688891     3.80147363
 Au     8   4   2     2.766923726425   120.72571799    84.46313344
 Au     9   8   4     2.758607022827   142.74327450    76.20211510
 Au     1   2   3     2.774164745786    63.83976846   286.77839840
 Au     3   1   2     2.743202222359   109.27430380   305.74110633
 Mn     4   2   1     2.777870172006    60.00390084   339.25820387

---------------------------
INTERNAL COORDINATES (A.U.)
---------------------------
 Au     0   0   0     0.000000000000     0.00000000     0.00000000
 Au     1   0   0    10.086500461234     0.00000000     0.00000000
 Au     1   2   0     5.506117735314    39.43842091     0.00000000
 Au     2   1   3     5.310586438053    68.28091030   209.60224883
 Au     4   2   1     5.469444019258   106.91938831    20.59034933
 Au     1   2   3     5.230313748117    69.24133249    65.24861239
 Au     2   1   3     5.148283897972    51.00793167   278.01180172
 Au     4   2   1     5.291917741026   117.29624587   316.48948013
 Au     8   4   2     5.155239609512    60.17018083   310.80105049
 Au     9   8   4     5.406385043067    94.84048640   120.32714577
 Au    10   9   8     5.181339847296    87.65688891     3.80147363
 Au     8   4   2     5.228728076391   120.72571799    84.46313344
 Au     9   8   4     5.213011784254   142.74327450    76.20211510
 Au     1   2   3     5.242411619915    63.83976846   286.77839840
 Au     3   1   2     5.183900930222   109.27430380   305.74110633
 Mn     4   2   1     5.249413860680    60.00390084   339.25820387

---------------------
BASIS SET INFORMATION
---------------------
There are 2 groups of distinct atoms

 Group   1 Type Au  : 8s7p6d1f contracted to 6s4p3d1f pattern {311111/4111/411/1}
 Group   2 Type Mn  : 17s11p7d1f contracted to 6s4p4d1f pattern {842111/6311/4111/1}

Atom   0Au   basis set group =>   1
Atom   1Au   basis set group =>   1
Atom   2Au   basis set group =>   1
Atom   3Au   basis set group =>   1
Atom   4Au   basis set group =>   1
Atom   5Au   basis set group =>   1
Atom   6Au   basis set group =>   1
Atom   7Au   basis set group =>   1
Atom   8Au   basis set group =>   1
Atom   9Au   basis set group =>   1
Atom  10Au   basis set group =>   1
Atom  11Au   basis set group =>   1
Atom  12Au   basis set group =>   1
Atom  13Au   basis set group =>   1
Atom  14Au   basis set group =>   1
Atom  15Mn   basis set group =>   2
---------------------------------
AUXILIARY/J BASIS SET INFORMATION
---------------------------------
There are 2 groups of distinct atoms

 Group   1 Type Au  : 11s5p5d3f3g contracted to 8s5p5d2f3g pattern {41111111/11111/11111/21/111}
 Group   2 Type Mn  : 19s5p5d3f3g contracted to 8s5p5d2f3g pattern {121111111/11111/11111/21/111}

Atom   0Au   basis set group =>   1
Atom   1Au   basis set group =>   1
Atom   2Au   basis set group =>   1
Atom   3Au   basis set group =>   1
Atom   4Au   basis set group =>   1
Atom   5Au   basis set group =>   1
Atom   6Au   basis set group =>   1
Atom   7Au   basis set group =>   1
Atom   8Au   basis set group =>   1
Atom   9Au   basis set group =>   1
Atom  10Au   basis set group =>   1
Atom  11Au   basis set group =>   1
Atom  12Au   basis set group =>   1
Atom  13Au   basis set group =>   1
Atom  14Au   basis set group =>   1
Atom  15Mn   basis set group =>   2
-------------------------
ECP PARAMETER INFORMATION
-------------------------

 Group 1, Type Au ECP Def2-ECP (replacing 60 core electrons, lmax=3)

Atom   0Au   ECP group =>   1
Atom   1Au   ECP group =>   1
Atom   2Au   ECP group =>   1
Atom   3Au   ECP group =>   1
Atom   4Au   ECP group =>   1
Atom   5Au   ECP group =>   1
Atom   6Au   ECP group =>   1
Atom   7Au   ECP group =>   1
Atom   8Au   ECP group =>   1
Atom   9Au   ECP group =>   1
Atom  10Au   ECP group =>   1
Atom  11Au   ECP group =>   1
Atom  12Au   ECP group =>   1
Atom  13Au   ECP group =>   1
Atom  14Au   ECP group =>   1



           ************************************************************
           *        Program running with 16 parallel MPI-processes    *
           *              working on a common directory               *
           ************************************************************
------------------------------------------------------------------------------
                           ORCA GTO INTEGRAL CALCULATION
                           -- RI-GTO INTEGRALS CHOSEN --
------------------------------------------------------------------------------
------------------------------------------------------------------------------
                   ___                                                        
                  /   \      - P O W E R E D   B Y -                         
                 /     \                                                     
                 |  |  |   _    _      __       _____    __    __             
                 |  |  |  | |  | |    /  \     |  _  \  |  |  /  |          
                  \  \/   | |  | |   /    \    | | | |  |  | /  /          
                 / \  \   | |__| |  /  /\  \   | |_| |  |  |/  /          
                |  |  |   |  __  | /  /__\  \  |    /   |      \           
                |  |  |   | |  | | |   __   |  |    \   |  |\   \          
                \     /   | |  | | |  |  |  |  | |\  \  |  | \   \       
                 \___/    |_|  |_| |__|  |__|  |_| \__\ |__|  \__/        
                                                                              
                      - O R C A' S   B I G   F R I E N D -                    
                                      &                                       
                       - I N T E G R A L  F E E D E R -                       
                                                                              
 v1 FN, 2020, v2 2021                                                         
------------------------------------------------------------------------------


Reading SHARK input file pbe.SHARKINP.tmp ... ok
----------------------
SHARK INTEGRAL PACKAGE
----------------------

Number of atoms                             ...     16
Number of basis functions                   ...    645
Number of shells                            ...    225
Maximum angular momentum                    ...      3
Integral batch strategy                     ... SHARK/LIBINT Hybrid
RI-J (if used) integral strategy            ... SPLIT-RIJ (Revised 2003 algorithm where possible)
Printlevel                                  ...      1
Contraction scheme used                     ... SEGMENTED contraction
Coulomb Range Separation                    ... NOT USED
Exchange Range Separation                   ... NOT USED
Finite Nucleus Model                        ... NOT USED
Auxiliary Coulomb fitting basis             ... AVAILABLE
   # of basis functions in Aux-J            ...   1424
   # of shells in Aux-J                     ...    368
   Maximum angular momentum in Aux-J        ...      4
Auxiliary J/K fitting basis                 ... NOT available
Auxiliary Correlation fitting basis         ... NOT available
Auxiliary 'external' fitting basis          ... NOT available
Integral threshold                          ...     2.500000e-11
Primitive cut-off                           ...     2.500000e-12
Primitive pair pre-selection threshold      ...     2.500000e-12

Calculating pre-screening integrals         ... done (  0.1 sec) Dimension = 225
Organizing shell pair data                  ... done (  0.7 sec)
Shell pair information
Total number of shell pairs                 ...     25425
Shell pairs after pre-screening             ...     20280
Total number of primitive shell pairs       ...     67445
Primitive shell pairs kept                  ...     38800
          la=0 lb=0:   3172 shell pairs
          la=1 lb=0:   4624 shell pairs
          la=1 lb=1:   1754 shell pairs
          la=2 lb=0:   4013 shell pairs
          la=2 lb=1:   2854 shell pairs
          la=2 lb=2:   1165 shell pairs
          la=3 lb=0:   1058 shell pairs
          la=3 lb=1:    817 shell pairs
          la=3 lb=2:    712 shell pairs
          la=3 lb=3:    111 shell pairs

Calculating one electron integrals          ... done (  0.0 sec)
Calculating ECP integrals                   ... done ( 14.6 sec)
Calculating RI/J V-Matrix + Cholesky decomp.... done (  0.1 sec)
Calculating Nuclear repulsion               ... done (  0.0 sec) ENN=   6362.748633171517 Eh

SHARK setup successfully completed in  16.1 seconds

Maximum memory used throughout the entire GTOINT-calculation: 38.0 MB


           ************************************************************
           *        Program running with 16 parallel MPI-processes    *
           *              working on a common directory               *
           ************************************************************
-------------------------------------------------------------------------------
                                 ORCA SCF
-------------------------------------------------------------------------------

------------
SCF SETTINGS
------------
Hamiltonian:
 Density Functional     Method          .... DFT(GTOs)
 Exchange Functional    Exchange        .... PBE
   PBE kappa parameter   XKappa         ....  0.804000
   PBE mue parameter    XMuePBE         ....  0.219520
 Correlation Functional Correlation     .... PBE
   PBE beta parameter  CBetaPBE         ....  0.066725
 LDA part of GGA corr.  LDAOpt          .... PW91-LDA
 Gradients option       PostSCFGGA      .... off
   Density functional embedding theory  .... OFF
   NL short-range parameter             ....  6.400000
 RI-approximation to the Coulomb term is turned on
   Number of AuxJ basis functions       .... 1424


General Settings:
 Integral files         IntName         .... pbe
 Hartree-Fock type      HFTyp           .... UHF
 Total Charge           Charge          ....    0
 Multiplicity           Mult            ....    5
 Number of Electrons    NEL             ....  310
 Basis Dimension        Dim             ....  645
 Nuclear Repulsion      ENuc            ....   6362.7486331715 Eh

Convergence Acceleration:
 DIIS                   CNVDIIS         .... off
 Trust-Rad. Augm. Hess. CNVTRAH         .... auto
   Auto Start mean grad. ratio tolernc. ....  1.125000
   Auto Start start iteration           ....    20
   Auto Start num. interpolation iter.  ....    10
   Max. Number of Micro iterations      ....    16
   Max. Number of Macro iterations      .... Maxiter - #DIIS iter
   Number of Davidson start vectors     ....     2
   Converg. threshold I  (grad. norm)   ....   1.000e-05
   Converg. threshold II (energy diff.) ....   1.000e-08
   Grad. Scal. Fac. for Micro threshold ....   0.100
   Minimum threshold for Micro iter.    ....   0.010
   NR start threshold (gradient norm)   ....   0.001
   Initial trust radius                 ....   0.400
   Minimum AH scaling param. (alpha)    ....   1.000
   Maximum AH scaling param. (alpha)    .... 1000.000
   Orbital update algorithm             .... Taylor
   White noise on init. David. guess    .... on
   Maximum white noise                  ....   0.010
   Quad. conv. algorithm                .... NR
 SOSCF                  CNVSOSCF        .... off
 Level Shifting         CNVShift        .... off
 Zerner damping         CNVZerner       .... off
 Static damping         CNVDamp         .... off
 Fernandez-Rico         CNVRico         .... off

SCF Procedure:
 Maximum # iterations   MaxIter         ....   125
 SCF integral mode      SCFMode         .... Direct
   Integral package                     .... SHARK and LIBINT hybrid scheme
 Reset frequency        DirectResetFreq ....    20
 Integral Threshold     Thresh          ....  2.500e-11 Eh
 Primitive CutOff       TCut            ....  2.500e-12 Eh

Convergence Tolerance:
 Convergence Check Mode ConvCheckMode   .... Total+1el-Energy
 Convergence forced     ConvForced      .... 0
 Energy Change          TolE            ....  1.000e-08 Eh
 1-El. energy change                    ....  1.000e-05 Eh


Diagonalization of the overlap matrix:
Smallest eigenvalue                        ... 2.724e-04
Time for diagonalization                   ...    0.127 sec
Threshold for overlap eigenvalues          ... 1.000e-08
Number of eigenvalues below threshold      ... 0
Time for construction of square roots      ...    0.074 sec
Total time needed                          ...    0.205 sec

Time for model grid setup =    0.481 sec

------------------------------
INITIAL GUESS: MODEL POTENTIAL
------------------------------
Loading Hartree-Fock densities                     ... done
  calling /home/ehlert/src/miniconda3/envs/orca500/Programs/ORCA501/orca pbe_atom79.inp > pbe_atom79.out in order to generate an atomic fitting density for atom 0 (Au with ECP) on-the-fly... 
    atom 0 (Au), assumed electronic state with S=2: 1s2 2s2 2p6 3s2 3p6 4s2 3d10 4p6 5s2 4d10 5p6 6s1 4f14 5d10           ... done
Calculating cut-offs                               ... done
Initializing the effective Hamiltonian             ... done
Setting up the integral package (SHARK)            ... done
Starting the Coulomb interaction                   ... done (   0.3 sec)
Reading the grid                                   ... done
Mapping shells                                     ... done
Starting the XC term evaluation                    ... done (   0.3 sec)
  promolecular density results
     # of electrons  =   1210.014231868
     EX              =  -5537.986235499
     EC              =    -73.777843522
     EX+EC           =  -5611.764079021
Transforming the Hamiltonian                       ... done (   0.1 sec)
Diagonalizing the Hamiltonian                      ... done (   0.1 sec)
Back transforming the eigenvectors                 ... done (   0.0 sec)
Now organizing SCF variables                       ... done
                      ------------------
                      INITIAL GUESS DONE (   2.1 sec)
                      ------------------
-------------------
DFT GRID GENERATION
-------------------

General Integration Accuracy     IntAcc      ... 4.388
Radial Grid Type                 RadialGrid  ... OptM3 with GC (2021)
Angular Grid (max. ang.)         AngularGrid ... 4 (Lebedev-302)
Angular grid pruning method      GridPruning ... 4 (adaptive)
Weight generation scheme         WeightScheme... Becke
Basis function cutoff            BFCut       ... 1.0000e-11
Integration weight cutoff        WCut        ... 1.0000e-14
Angular grids for H and He will be reduced by one unit
Partially contracted basis set               ... off
Rotationally invariant grid construction     ... off

Total number of grid points                  ...   176243
Total number of batches                      ...     2761
Average number of points per batch           ...       63
Average number of grid points per atom       ...    11015
Time for grid setup =    1.697 sec

--------------
SCF ITERATIONS
--------------
ITER       Energy         Delta-E        Max-DP      RMS-DP      [F,P]   Gradient Norm
               ***  Starting incremental Fock matrix formation  ***
                             ****Resetting KDIIS****
                             ****Turning on KDIIS(Cayley)****
  0  -3185.7128410574   0.000000000000 0.64594459  0.00265967  0.4222053   0.227588468
  1  -3187.2035998999  -1.490758842586 0.55870388  0.00193338  0.2475884   0.165269764
  2  -3187.6831602337  -0.479560333797 0.11756886  0.00098104  0.1955003   0.126720560
  3  -3187.9261158552  -0.242955621476 0.38491925  0.00151597  0.1131803   0.072122396
  4  -3188.0049288471  -0.078812991930 0.26328207  0.00061952  0.0277104   0.030469716
  5  -3188.0682185417  -0.063289694545 0.52601821  0.00182429  0.0341129   0.015009365
  6  -3188.1230170811  -0.054798539389 0.20590375  0.00089309  0.0690093   0.020987907
  7  -3188.1549301879  -0.031913106845 0.11300600  0.00097066  0.0318635   0.012924425
  8  -3187.9749876884   0.179942499503 0.10126318  0.00067313  0.1211920   0.045976308
  9  -3188.1823744610  -0.207386772634 0.04839166  0.00029357  0.0244495   0.010789706
 10  -3188.1969492542  -0.014574793104 0.02704063  0.00021429  0.0121140   0.007251133
 11  -3188.2019981187  -0.005048864590 0.21835400  0.00062334  0.0175745   0.007795707
 12  -3188.1925141770   0.009483941773 0.17810403  0.00042574  0.0347866   0.016680645
 13  -3188.2148618594  -0.022347682427 0.02989536  0.00027473  0.0084153   0.005019914
 14  -3188.2123125334   0.002549325987 0.07964485  0.00037922  0.0156307   0.008400639
 15  -3188.2117776190   0.000534914412 0.04513527  0.00024206  0.0174150   0.009641655
 16  -3188.2221165711  -0.010338952133 0.00946157  0.00012074  0.0044881   0.002497031
 17  -3188.2229399410  -0.000823369826 0.01849439  0.00015179  0.0047569   0.002702825
 18  -3188.2241267545  -0.001186813560 0.02538764  0.00012122  0.0016901   0.001967458
 19  -3188.2231398874   0.000986867070 0.03013013  0.00010001  0.0031586   0.003368678
               *** Restarting incremental Fock matrix formation ***
                             ****Resetting KDIIS****
 20  -3188.2243920537  -0.001252166278 0.00230228  0.00001897  0.0016386   0.001340147
 21  -3188.2245673218  -0.000175268058 0.00193865  0.00000819  0.0007277   0.000763318
 22  -3188.2246132453  -0.000045923469 0.00123616  0.00001047  0.0006478   0.000494492
 23  -3188.2246459905  -0.000032745217 0.00261721  0.00002325  0.0005049   0.000300217
 24  -3188.2246714688  -0.000025478362 0.00201623  0.00001571  0.0003758   0.000260033
 25  -3188.2246764681  -0.000004999305 0.00069089  0.00000778  0.0003241   0.000291422
 26  -3188.2246847787  -0.000008310553 0.00126910  0.00001179  0.0003095   0.000125961
 27  -3188.2246894739  -0.000004695169 0.00079415  0.00000683  0.0002395   0.000140896
 28  -3188.2246931650  -0.000003691113 0.00068555  0.00000547  0.0002187   0.000084434
 29  -3188.2246916643   0.000001500699 0.00056681  0.00000492  0.0002182   0.000152843
 30  -3188.2246952873  -0.000003622994 0.00083115  0.00000547  0.0001920   0.000053522
 31  -3188.2246966120  -0.000001324759 0.00033357  0.00000293  0.0001589   0.000061007
 32  -3188.2246962200   0.000000391977 0.00055294  0.00000437  0.0001720   0.000065240

 WARNING: the maximum gradient error descreased on average only by a factor   1.1
          during the last 20 iterations

                      *** Initiating the TRAH-SCF procedure ***

                    *** KDIIS BlockDiag ( 0.301 sec) ***

TRAH GRID
---------

General Integration Accuracy     IntAcc      ... 3.467
Radial Grid Type                 RadialGrid  ... OptM3 with GC (2021)
Angular Grid (max. ang.)         AngularGrid ... 1 (Lebedev-50)
Angular grid pruning method      GridPruning ... 4 (adaptive)
Weight generation scheme         WeightScheme... Becke
Basis function cutoff            BFCut       ... 1.0000e-11
Integration weight cutoff        WCut        ... 1.0000e-14
Angular grids for H and He will be reduced by one unit
Partially contracted basis set               ... off
Rotationally invariant grid construction     ... off

Total number of grid points                  ...    75976
Total number of batches                      ...     1195
Average number of points per batch           ...       63
Average number of grid points per atom       ...     4748

 --------------------------------------------------------------------------------------------
   Iter.        energy            ||Error||_2        Shift      TRadius  Mac/Mic        Rej.
 --------------------------------------------------------------------------------------------
    0      -3188.224697569379     1.008866e-03                     0.400 (TRAH MAcro)   No
WARNING : small    HOMO - LUMO gap : (op = alpha) 0.010406
    0     dE    -1.712483e-07     1.746896e-03    -1.7125e-07      0.000 (TRAH MIcro)
    0     dE    -2.809216e-06     1.872501e-03    -2.8089e-06      0.010 (TRAH MIcro)
    0     dE    -4.030572e-06     7.495703e-04    -4.0295e-06      0.016 (TRAH MIcro)
    0     dE    -4.285856e-06     3.552587e-04    -4.2845e-06      0.018 (TRAH MIcro)
    0     dE    -4.338618e-06     2.104180e-04    -4.3372e-06      0.018 (TRAH MIcro)
    0     dE    -4.360852e-06     1.252407e-04    -4.3595e-06      0.018 (TRAH MIcro)
    0     dE    -4.368702e-06     6.956057e-05    -4.3673e-06      0.018 (TRAH MIcro)
    1      -3188.224701942487     7.745697e-05                           (NR   MAcro)
WARNING : small    HOMO - LUMO gap : (op = alpha) 0.010409
    1     dE    -2.158077e-09     4.239554e-05                           (NR   MIcro)
    1     dE    -3.053613e-09     2.695120e-05                           (NR   MIcro)
    1     dE    -3.450879e-09     1.656628e-05                           (NR   MIcro)
    1     dE    -3.571252e-09     1.078113e-05                           (NR   MIcro)
    1     dE    -3.622533e-09     5.012728e-06                           (NR   MIcro)
    1     dE    -3.632948e-09     2.976791e-06                           (NR   MIcro)
    1     dE    -3.636961e-09     1.336532e-06                           (NR   MIcro)
    1     dE    -3.637984e-09     8.533505e-07                           (NR   MIcro)
    2      -3188.224701946079     8.529961e-07                           (NR   MAcro)
WARNING : small    HOMO - LUMO gap : (op = alpha) 0.010406

               *****************************************************
               *                     SUCCESS                       *
               *           SCF CONVERGED AFTER  51 CYCLES          *
               *****************************************************


----------------
TOTAL SCF ENERGY
----------------

Total Energy       :        -3188.22470195 Eh          -86756.00473 eV

Components:
Nuclear Repulsion  :         6362.74863317 Eh          173139.19254 eV
Electronic Energy  :        -9550.97333512 Eh         -259895.19727 eV
One Electron Energy:       -17878.64025350 Eh         -486502.53461 eV
Two Electron Energy:         8327.66691839 Eh          226607.33734 eV

Virial components:
Potential Energy   :        -5024.02824685 Eh         -136710.75884 eV
Kinetic Energy     :         1835.80354491 Eh           49954.75411 eV
Virial Ratio       :            2.73669166


DFT components:
N(Alpha)           :      157.000129254733 electrons
N(Beta)            :      153.000143037660 electrons
N(Total)           :      310.000272292393 electrons
E(X)               :     -231.641709308770 Eh       
E(C)               :      -13.542456461265 Eh       
E(XC)              :     -245.184165770035 Eh       
DFET-embed. en.    :        0.000000000000 Eh       

---------------
SCF CONVERGENCE
---------------

  Last Energy change         ...   -3.5920e-09  Tolerance :   1.0000e-08
  Last Orbital Gradient      ...    8.5300e-07  Tolerance :   1.0000e-05
  Last Orbital Rotation      ...    1.1605e-04

             **** THE GBW FILE WAS UPDATED (pbe.gbw) ****
             **** DENSITY pbe.scfp WAS UPDATED ****
             **** ENERGY FILE WAS UPDATED (pbe.en.tmp) ****
----------------------
UHF SPIN CONTAMINATION
----------------------

Warning: in a DFT calculation there is little theoretical justification to 
         calculate <S**2> as in Hartree-Fock theory. We will do it anyways
         but you should keep in mind that the values have only limited relevance

Expectation value of <S**2>     :     6.797690
Ideal value S*(S+1) for S=2.0   :     6.000000
Deviation                       :     0.797690

             **** THE GBW FILE WAS UPDATED (pbe.gbw) ****
             **** DENSITY pbe.scfp WAS UPDATED ****
----------------
ORBITAL ENERGIES
----------------
                 SPIN UP ORBITALS
  NO   OCC          E(Eh)            E(eV) 
   0   1.0000    -234.204413     -6373.0261 
   1   1.0000     -26.897173      -731.9093 
   2   1.0000     -23.046204      -627.1191 
   3   1.0000     -23.045612      -627.1030 
   4   1.0000     -23.044831      -627.0817 
   5   1.0000      -4.033541      -109.7582 
   6   1.0000      -4.032997      -109.7434 
   7   1.0000      -4.032843      -109.7392 
   8   1.0000      -4.032745      -109.7366 
   9   1.0000      -4.032262      -109.7234 
  10   1.0000      -4.032043      -109.7175 
  11   1.0000      -4.031638      -109.7064 
  12   1.0000      -4.030909      -109.6866 
  13   1.0000      -4.028625      -109.6245 
  14   1.0000      -4.028517      -109.6215 
  15   1.0000      -4.026771      -109.5740 
  16   1.0000      -4.026439      -109.5650 
  17   1.0000      -4.023314      -109.4800 
  18   1.0000      -4.023206      -109.4770 
  19   1.0000      -4.022830      -109.4668 
  20   1.0000      -3.109249       -84.6070 
  21   1.0000      -2.249744       -61.2187 
  22   1.0000      -2.249612       -61.2150 
  23   1.0000      -2.248892       -61.1955 
  24   1.0000      -2.248876       -61.1950 
  25   1.0000      -2.248283       -61.1789 
  26   1.0000      -2.247939       -61.1695 
  27   1.0000      -2.247513       -61.1579 
  28   1.0000      -2.247369       -61.1540 
  29   1.0000      -2.246702       -61.1359 
  30   1.0000      -2.246452       -61.1291 
  31   1.0000      -2.245635       -61.1068 
  32   1.0000      -2.245438       -61.1015 
  33   1.0000      -2.245227       -61.0957 
  34   1.0000      -2.244878       -61.0862 
  35   1.0000      -2.244611       -61.0790 
  36   1.0000      -2.244334       -61.0714 
  37   1.0000      -2.243974       -61.0616 
  38   1.0000      -2.243896       -61.0595 
  39   1.0000      -2.243711       -61.0545 
  40   1.0000      -2.243362       -61.0450 
  41   1.0000      -2.242737       -61.0280 
  42   1.0000      -2.242481       -61.0210 
  43   1.0000      -2.242435       -61.0197 
  44   1.0000      -2.242196       -61.0133 
  45   1.0000      -2.242099       -61.0106 
  46   1.0000      -2.241751       -61.0011 
  47   1.0000      -2.241079       -60.9829 
  48   1.0000      -2.240905       -60.9781 
  49   1.0000      -2.240691       -60.9723 
  50   1.0000      -2.240350       -60.9630 
  51   1.0000      -2.239563       -60.9416 
  52   1.0000      -2.238981       -60.9258 
  53   1.0000      -2.238573       -60.9147 
  54   1.0000      -2.238188       -60.9042 
  55   1.0000      -2.236634       -60.8619 
  56   1.0000      -2.236584       -60.8605 
  57   1.0000      -2.236531       -60.8591 
  58   1.0000      -2.236020       -60.8452 
  59   1.0000      -2.235875       -60.8412 
  60   1.0000      -2.235793       -60.8390 
  61   1.0000      -2.235626       -60.8345 
  62   1.0000      -2.235549       -60.8324 
  63   1.0000      -2.235275       -60.8249 
  64   1.0000      -2.235061       -60.8191 
  65   1.0000      -2.234068       -60.7921 
  66   1.0000      -2.013432       -54.7883 
  67   1.0000      -2.011456       -54.7345 
  68   1.0000      -2.011019       -54.7226 
  69   1.0000      -0.437991       -11.9184 
  70   1.0000      -0.394017       -10.7218 
  71   1.0000      -0.390986       -10.6393 
  72   1.0000      -0.388478       -10.5710 
  73   1.0000      -0.380683       -10.3589 
  74   1.0000      -0.379931       -10.3384 
  75   1.0000      -0.373050       -10.1512 
  76   1.0000      -0.372384       -10.1331 
  77   1.0000      -0.371317       -10.1040 
  78   1.0000      -0.365946        -9.9579 
  79   1.0000      -0.363565        -9.8931 
  80   1.0000      -0.359744        -9.7891 
  81   1.0000      -0.353648        -9.6233 
  82   1.0000      -0.353146        -9.6096 
  83   1.0000      -0.352843        -9.6013 
  84   1.0000      -0.351148        -9.5552 
  85   1.0000      -0.350858        -9.5473 
  86   1.0000      -0.347547        -9.4572 
  87   1.0000      -0.347185        -9.4474 
  88   1.0000      -0.344135        -9.3644 
  89   1.0000      -0.343162        -9.3379 
  90   1.0000      -0.340851        -9.2750 
  91   1.0000      -0.339096        -9.2273 
  92   1.0000      -0.338128        -9.2009 
  93   1.0000      -0.336182        -9.1480 
  94   1.0000      -0.333269        -9.0687 
  95   1.0000      -0.330915        -9.0047 
  96   1.0000      -0.330129        -8.9833 
  97   1.0000      -0.325559        -8.8589 
  98   1.0000      -0.324533        -8.8310 
  99   1.0000      -0.320414        -8.7189 
 100   1.0000      -0.314927        -8.5696 
 101   1.0000      -0.314686        -8.5630 
 102   1.0000      -0.314119        -8.5476 
 103   1.0000      -0.311953        -8.4887 
 104   1.0000      -0.310921        -8.4606 
 105   1.0000      -0.309177        -8.4131 
 106   1.0000      -0.305503        -8.3132 
 107   1.0000      -0.304116        -8.2754 
 108   1.0000      -0.300741        -8.1836 
 109   1.0000      -0.296824        -8.0770 
 110   1.0000      -0.295074        -8.0294 
 111   1.0000      -0.292414        -7.9570 
 112   1.0000      -0.290285        -7.8991 
 113   1.0000      -0.289063        -7.8658 
 114   1.0000      -0.287324        -7.8185 
 115   1.0000      -0.284795        -7.7497 
 116   1.0000      -0.281245        -7.6531 
 117   1.0000      -0.278718        -7.5843 
 118   1.0000      -0.277825        -7.5600 
 119   1.0000      -0.275674        -7.5015 
 120   1.0000      -0.275237        -7.4896 
 121   1.0000      -0.274282        -7.4636 
 122   1.0000      -0.273623        -7.4457 
 123   1.0000      -0.272983        -7.4282 
 124   1.0000      -0.270496        -7.3606 
 125   1.0000      -0.266572        -7.2538 
 126   1.0000      -0.265807        -7.2330 
 127   1.0000      -0.265442        -7.2230 
 128   1.0000      -0.264026        -7.1845 
 129   1.0000      -0.262719        -7.1489 
 130   1.0000      -0.262037        -7.1304 
 131   1.0000      -0.261430        -7.1139 
 132   1.0000      -0.260541        -7.0897 
 133   1.0000      -0.258966        -7.0468 
 134   1.0000      -0.258630        -7.0377 
 135   1.0000      -0.258423        -7.0321 
 136   1.0000      -0.257017        -6.9938 
 137   1.0000      -0.256335        -6.9752 
 138   1.0000      -0.254709        -6.9310 
 139   1.0000      -0.254212        -6.9175 
 140   1.0000      -0.252210        -6.8630 
 141   1.0000      -0.251082        -6.8323 
 142   1.0000      -0.250602        -6.8192 
 143   1.0000      -0.250155        -6.8071 
 144   1.0000      -0.249808        -6.7976 
 145   1.0000      -0.249367        -6.7856 
 146   1.0000      -0.247680        -6.7397 
 147   1.0000      -0.247008        -6.7214 
 148   1.0000      -0.243258        -6.6194 
 149   1.0000      -0.242359        -6.5949 
 150   1.0000      -0.238309        -6.4847 
 151   1.0000      -0.237581        -6.4649 
 152   1.0000      -0.230810        -6.2806 
 153   1.0000      -0.224020        -6.0959 
 154   1.0000      -0.215687        -5.8691 
 155   1.0000      -0.200068        -5.4441 
 156   1.0000      -0.195806        -5.3282 
 157   0.0000      -0.185400        -5.0450 
 158   0.0000      -0.149267        -4.0618 
 159   0.0000      -0.143911        -3.9160 
 160   0.0000      -0.137167        -3.7325 
 161   0.0000      -0.123210        -3.3527 
 162   0.0000      -0.121104        -3.2954 
 163   0.0000      -0.114129        -3.1056 
 164   0.0000      -0.107751        -2.9321 
 165   0.0000      -0.077145        -2.0992 
 166   0.0000      -0.074749        -2.0340 
 167   0.0000      -0.072138        -1.9630 
 168   0.0000      -0.071150        -1.9361 
 169   0.0000      -0.044245        -1.2040 
 170   0.0000      -0.041515        -1.1297 
 171   0.0000      -0.038177        -1.0388 
 172   0.0000      -0.026106        -0.7104 
 173   0.0000      -0.015654        -0.4260 
 174   0.0000      -0.011492        -0.3127 
 175   0.0000      -0.009350        -0.2544 
 176   0.0000       0.001435         0.0390 
 177   0.0000       0.010335         0.2812 
 178   0.0000       0.016705         0.4546 
 179   0.0000       0.023070         0.6278 
 180   0.0000       0.029520         0.8033 
 181   0.0000       0.033614         0.9147 
 182   0.0000       0.037108         1.0098 
 183   0.0000       0.040574         1.1041 
 184   0.0000       0.044388         1.2079 
 185   0.0000       0.049484         1.3465 
 186   0.0000       0.060567         1.6481 
 187   0.0000       0.066267         1.8032 
 188   0.0000       0.066822         1.8183 
 189   0.0000       0.067291         1.8311 
 190   0.0000       0.068127         1.8538 
 191   0.0000       0.070390         1.9154 
 192   0.0000       0.071426         1.9436 
 193   0.0000       0.076522         2.0823 
 194   0.0000       0.076851         2.0912 
 195   0.0000       0.087202         2.3729 
 196   0.0000       0.088005         2.3947 
 197   0.0000       0.091443         2.4883 
 198   0.0000       0.098399         2.6776 
 199   0.0000       0.102301         2.7838 
 200   0.0000       0.111999         3.0477 
[...]
 260( 0) :     0.372401 a.u.    10.134 eV
 261( 0) :     0.382195 a.u.    10.400 eV
 262( 0) :     0.388431 a.u.    10.570 eV
 263( 0) :     0.388582 a.u.    10.574 eV
 264( 0) :     0.391649 a.u.    10.657 eV
 265( 0) :     0.392734 a.u.    10.687 eV
 266( 0) :     0.394573 a.u.    10.737 eV
 267( 0) :     0.402847 a.u.    10.962 eV
 268( 0) :     0.404100 a.u.    10.996 eV
 269( 0) :     0.415586 a.u.    11.309 eV
 270( 0) :     0.418251 a.u.    11.381 eV
 271( 0) :     0.423513 a.u.    11.524 eV
 272( 0) :     0.424964 a.u.    11.564 eV
 273( 0) :     0.432036 a.u.    11.756 eV
 274( 0) :     0.438682 a.u.    11.937 eV
 275( 0) :     0.439221 a.u.    11.952 eV
 276( 0) :     0.441759 a.u.    12.021 eV
 277( 0) :     0.444439 a.u.    12.094 eV
 278( 0) :     0.453139 a.u.    12.331 eV
 279( 0) :     0.456074 a.u.    12.410 eV
 280( 0) :     0.462904 a.u.    12.596 eV
 281( 0) :     0.464948 a.u.    12.652 eV
 282( 0) :     0.473675 a.u.    12.889 eV
 283( 0) :     0.474495 a.u.    12.912 eV
 284( 0) :     0.476805 a.u.    12.975 eV
 285( 0) :     0.480710 a.u.    13.081 eV
 286( 0) :     0.490580 a.u.    13.349 eV
 287( 0) :     0.491829 a.u.    13.383 eV
 288( 0) :     0.498779 a.u.    13.572 eV
 289( 0) :     0.498867 a.u.    13.575 eV
 290( 0) :     0.502172 a.u.    13.665 eV
 291( 0) :     0.504459 a.u.    13.727 eV
 292( 0) :     0.504950 a.u.    13.740 eV
 293( 0) :     0.513165 a.u.    13.964 eV
 294( 0) :     0.513640 a.u.    13.977 eV
 295( 0) :     0.514748 a.u.    14.007 eV
 296( 0) :     0.525291 a.u.    14.294 eV
 297( 0) :     0.527637 a.u.    14.358 eV
 298( 0) :     0.529223 a.u.    14.401 eV
 299( 0) :     0.540718 a.u.    14.714 eV
 300( 0) :     0.543524 a.u.    14.790 eV
 301( 0) :     0.552891 a.u.    15.045 eV
 302( 0) :     0.567768 a.u.    15.450 eV
 303( 0) :     0.570728 a.u.    15.530 eV
 304( 0) :     0.584785 a.u.    15.913 eV
 305( 0) :     0.591630 a.u.    16.099 eV
 306( 0) :     0.595238 a.u.    16.197 eV
 307( 0) :     0.603906 a.u.    16.433 eV
 308( 0) :     0.610721 a.u.    16.619 eV
 309( 0) :     0.624611 a.u.    16.997 eV
 310( 0) :     0.633282 a.u.    17.232 eV
 311( 0) :     0.634860 a.u.    17.275 eV
 312( 0) :     0.685726 a.u.    18.660 eV
 313( 0) :     0.699227 a.u.    19.027 eV
 314( 0) :     0.699597 a.u.    19.037 eV
 315( 0) :     0.706325 a.u.    19.220 eV
 316( 0) :     0.718057 a.u.    19.539 eV
 317( 0) :     0.719901 a.u.    19.589 eV
 318( 0) :     0.723029 a.u.    19.675 eV
 319( 0) :     0.729272 a.u.    19.845 eV
 320( 0) :     0.733375 a.u.    19.956 eV
 321( 0) :     0.744216 a.u.    20.251 eV
 322( 0) :     0.744770 a.u.    20.266 eV
 323( 0) :     0.752320 a.u.    20.472 eV
 324( 0) :     0.759508 a.u.    20.667 eV
 325( 0) :     0.764601 a.u.    20.806 eV
 326( 0) :     0.767780 a.u.    20.892 eV
 327( 0) :     0.768439 a.u.    20.910 eV
 328( 0) :     0.776839 a.u.    21.139 eV
 329( 0) :     0.787914 a.u.    21.440 eV
 330( 0) :     0.794214 a.u.    21.612 eV
 331( 0) :     0.815603 a.u.    22.194 eV
 332( 0) :     0.832730 a.u.    22.660 eV
 333( 0) :     0.843516 a.u.    22.953 eV
 334( 0) :     0.844414 a.u.    22.978 eV
 335( 0) :     0.847399 a.u.    23.059 eV
 336( 0) :     0.851545 a.u.    23.172 eV
 337( 0) :     0.856102 a.u.    23.296 eV
 338( 0) :     0.858006 a.u.    23.348 eV
 339( 0) :     0.863532 a.u.    23.498 eV
 340( 0) :     0.872103 a.u.    23.731 eV
 341( 0) :     0.872507 a.u.    23.742 eV
 342( 0) :     0.878889 a.u.    23.916 eV
 343( 0) :     0.888924 a.u.    24.189 eV
 344( 0) :     0.900506 a.u.    24.504 eV
 345( 0) :     0.902052 a.u.    24.546 eV
 346( 0) :     0.905236 a.u.    24.633 eV
 347( 0) :     0.921884 a.u.    25.086 eV
 348( 0) :     0.951681 a.u.    25.897 eV
 349( 0) :     0.970630 a.u.    26.412 eV
 350( 0) :     1.004288 a.u.    27.328 eV
 351( 0) :     1.008781 a.u.    27.450 eV
 352( 0) :     1.023213 a.u.    27.843 eV
 353( 0) :     1.048117 a.u.    28.521 eV
 354( 0) :     1.083764 a.u.    29.491 eV
 355( 0) :     1.097344 a.u.    29.860 eV
 356( 0) :     1.185252 a.u.    32.252 eV
 357( 0) :     1.196839 a.u.    32.568 eV
 358( 0) :     1.201146 a.u.    32.685 eV
 359( 0) :     1.211775 a.u.    32.974 eV
 360( 0) :     1.220412 a.u.    33.209 eV
 361( 0) :     1.229938 a.u.    33.468 eV
 362( 0) :     1.243711 a.u.    33.843 eV
 363( 0) :     1.248696 a.u.    33.979 eV
 364( 0) :     1.251826 a.u.    34.064 eV
 365( 0) :     1.263303 a.u.    34.376 eV
 366( 0) :     1.270004 a.u.    34.559 eV
 367( 0) :     1.278224 a.u.    34.782 eV
 368( 0) :     1.295575 a.u.    35.254 eV
 369( 0) :     1.298481 a.u.    35.333 eV
 370( 0) :     1.302869 a.u.    35.453 eV
 371( 0) :     1.313283 a.u.    35.736 eV
 372( 0) :     1.315251 a.u.    35.790 eV
 373( 0) :     1.315680 a.u.    35.801 eV
 374( 0) :     1.332270 a.u.    36.253 eV
 375( 0) :     1.342850 a.u.    36.541 eV
 376( 0) :     1.351187 a.u.    36.768 eV
 377( 0) :     1.359000 a.u.    36.980 eV
 378( 0) :     1.363422 a.u.    37.101 eV
 379( 0) :     1.381566 a.u.    37.594 eV
 380( 0) :     1.385898 a.u.    37.712 eV
 381( 0) :     1.389994 a.u.    37.824 eV
 382( 0) :     1.394943 a.u.    37.958 eV
 383( 0) :     1.395226 a.u.    37.966 eV
 384( 0) :     1.397313 a.u.    38.023 eV
 385( 0) :     1.404496 a.u.    38.218 eV
 386( 0) :     1.404729 a.u.    38.225 eV
 387( 0) :     1.415077 a.u.    38.506 eV
 388( 0) :     1.415870 a.u.    38.528 eV
 389( 0) :     1.417971 a.u.    38.585 eV
 390( 0) :     1.419038 a.u.    38.614 eV
 391( 0) :     1.420116 a.u.    38.643 eV
 392( 0) :     1.422976 a.u.    38.721 eV
 393( 0) :     1.425451 a.u.    38.789 eV
 394( 0) :     1.428451 a.u.    38.870 eV
 395( 0) :     1.430993 a.u.    38.939 eV
 396( 0) :     1.434983 a.u.    39.048 eV
 397( 0) :     1.435691 a.u.    39.067 eV
 398( 0) :     1.436895 a.u.    39.100 eV
 399( 0) :     1.443727 a.u.    39.286 eV
 400( 0) :     1.445402 a.u.    39.331 eV
 401( 0) :     1.447803 a.u.    39.397 eV
 402( 0) :     1.451165 a.u.    39.488 eV
 403( 0) :     1.453316 a.u.    39.547 eV
 404( 0) :     1.453450 a.u.    39.550 eV
 405( 0) :     1.462171 a.u.    39.788 eV
 406( 0) :     1.466896 a.u.    39.916 eV
 407( 0) :     1.467547 a.u.    39.934 eV
 408( 0) :     1.473960 a.u.    40.108 eV
 409( 0) :     1.476517 a.u.    40.178 eV
 410( 0) :     1.477464 a.u.    40.204 eV
 411( 0) :     1.477815 a.u.    40.213 eV
 412( 0) :     1.480710 a.u.    40.292 eV
 413( 0) :     1.481732 a.u.    40.320 eV
 414( 0) :     1.485409 a.u.    40.420 eV
 415( 0) :     1.487372 a.u.    40.473 eV
 416( 0) :     1.488172 a.u.    40.495 eV
 417( 0) :     1.488257 a.u.    40.498 eV
 418( 0) :     1.489007 a.u.    40.518 eV
 419( 0) :     1.491224 a.u.    40.578 eV
 420( 0) :     1.491540 a.u.    40.587 eV
 421( 0) :     1.491581 a.u.    40.588 eV
 422( 0) :     1.494713 a.u.    40.673 eV
 423( 0) :     1.494927 a.u.    40.679 eV
 424( 0) :     1.495540 a.u.    40.696 eV
 425( 0) :     1.497520 a.u.    40.750 eV
 426( 0) :     1.500974 a.u.    40.844 eV
 427( 0) :     1.502480 a.u.    40.885 eV
 428( 0) :     1.503449 a.u.    40.911 eV
 429( 0) :     1.506963 a.u.    41.007 eV
 430( 0) :     1.507086 a.u.    41.010 eV
 431( 0) :     1.507523 a.u.    41.022 eV
 432( 0) :     1.508114 a.u.    41.038 eV
 433( 0) :     1.509842 a.u.    41.085 eV
 434( 0) :     1.510575 a.u.    41.105 eV
 435( 0) :     1.512351 a.u.    41.153 eV
 436( 0) :     1.513672 a.u.    41.189 eV
 437( 0) :     1.515713 a.u.    41.245 eV
 438( 0) :     1.516957 a.u.    41.279 eV
 439( 0) :     1.517881 a.u.    41.304 eV
 440( 0) :     1.519144 a.u.    41.338 eV
 441( 0) :     1.519361 a.u.    41.344 eV
 442( 0) :     1.519839 a.u.    41.357 eV
 443( 0) :     1.522277 a.u.    41.423 eV
 444( 0) :     1.522413 a.u.    41.427 eV
 445( 0) :     1.525169 a.u.    41.502 eV
 446( 0) :     1.526635 a.u.    41.542 eV
 447( 0) :     1.527582 a.u.    41.568 eV
 448( 0) :     1.528710 a.u.    41.598 eV
 449( 0) :     1.530296 a.u.    41.641 eV
 450( 0) :     1.530629 a.u.    41.651 eV
 451( 0) :     1.532392 a.u.    41.699 eV
 452( 0) :     1.537574 a.u.    41.840 eV
 453( 0) :     1.539849 a.u.    41.901 eV
 454( 0) :     1.540950 a.u.    41.931 eV
 455( 0) :     1.541415 a.u.    41.944 eV
 456( 0) :     1.542796 a.u.    41.982 eV
 457( 0) :     1.544371 a.u.    42.024 eV
 458( 0) :     1.547195 a.u.    42.101 eV
 459( 0) :     1.549844 a.u.    42.173 eV
 460( 0) :     1.552443 a.u.    42.244 eV
 461( 0) :     1.552896 a.u.    42.256 eV
 462( 0) :     1.555530 a.u.    42.328 eV
 463( 0) :     1.567959 a.u.    42.666 eV
 464( 0) :     1.569471 a.u.    42.707 eV
 465( 0) :     1.570021 a.u.    42.722 eV
 466( 0) :     1.572809 a.u.    42.798 eV
 467( 0) :     1.573902 a.u.    42.828 eV
 468( 0) :     1.577315 a.u.    42.921 eV
 469( 0) :     1.577877 a.u.    42.936 eV
 470( 0) :     1.579128 a.u.    42.970 eV
 471( 0) :     1.580507 a.u.    43.008 eV
 472( 0) :     1.588517 a.u.    43.226 eV
 473( 0) :     1.590142 a.u.    43.270 eV
 474( 0) :     1.596534 a.u.    43.444 eV
 475( 0) :     1.596678 a.u.    43.448 eV
 476( 0) :     1.596860 a.u.    43.453 eV
 477( 0) :     1.600632 a.u.    43.555 eV
 478( 0) :     1.602701 a.u.    43.612 eV
 479( 0) :     1.603239 a.u.    43.626 eV
 480( 0) :     1.604310 a.u.    43.655 eV
 481( 0) :     1.608374 a.u.    43.766 eV
 482( 0) :     1.614054 a.u.    43.921 eV
 483( 0) :     1.614289 a.u.    43.927 eV
 484( 0) :     1.622073 a.u.    44.139 eV
 485( 0) :     1.622973 a.u.    44.163 eV
 486( 0) :     1.624608 a.u.    44.208 eV
 487( 0) :     1.626396 a.u.    44.256 eV
 488( 0) :     1.627324 a.u.    44.282 eV
 489( 0) :     1.629885 a.u.    44.351 eV
 490( 0) :     1.631282 a.u.    44.389 eV
 491( 0) :     1.631692 a.u.    44.401 eV
 492( 0) :     1.642444 a.u.    44.693 eV
 493( 0) :     1.643203 a.u.    44.714 eV
 494( 0) :     1.647381 a.u.    44.828 eV
 495( 0) :     1.656144 a.u.    45.066 eV
 496( 0) :     1.658228 a.u.    45.123 eV
 497( 0) :     1.664602 a.u.    45.296 eV
 498( 0) :     1.665889 a.u.    45.331 eV
 499( 0) :     1.671003 a.u.    45.470 eV
 500( 0) :     1.672348 a.u.    45.507 eV
 501( 0) :     1.680758 a.u.    45.736 eV
 502( 0) :     1.689675 a.u.    45.978 eV
 503( 0) :     1.691523 a.u.    46.029 eV
 504( 0) :     1.694540 a.u.    46.111 eV
 505( 0) :     1.704701 a.u.    46.387 eV
 506( 0) :     1.712024 a.u.    46.587 eV
 507( 0) :     1.712654 a.u.    46.604 eV
 508( 0) :     1.716213 a.u.    46.701 eV
 509( 0) :     1.735280 a.u.    47.219 eV
 510( 0) :     1.737307 a.u.    47.275 eV
 511( 0) :     1.744134 a.u.    47.460 eV
 512( 0) :     1.756276 a.u.    47.791 eV
 513( 0) :     1.760889 a.u.    47.916 eV
 514( 0) :     1.776376 a.u.    48.338 eV
 515( 0) :     1.776768 a.u.    48.348 eV
 516( 0) :     1.782131 a.u.    48.494 eV
 517( 0) :     1.793095 a.u.    48.793 eV
 518( 0) :     1.794925 a.u.    48.842 eV
 519( 0) :     1.796137 a.u.    48.875 eV
 520( 0) :     1.798448 a.u.    48.938 eV
 521( 0) :     1.803380 a.u.    49.072 eV
 522( 0) :     1.805832 a.u.    49.139 eV
 523( 0) :     1.814022 a.u.    49.362 eV
 524( 0) :     1.826817 a.u.    49.710 eV
 525( 0) :     1.829196 a.u.    49.775 eV
 526( 0) :     1.831563 a.u.    49.839 eV
 527( 0) :     1.843420 a.u.    50.162 eV
 528( 0) :     1.850524 a.u.    50.355 eV
 529( 0) :     1.866894 a.u.    50.801 eV
 530( 0) :     1.874930 a.u.    51.019 eV
 531( 0) :     1.875329 a.u.    51.030 eV
 532( 0) :     1.891130 a.u.    51.460 eV
 533( 0) :     1.904757 a.u.    51.831 eV
 534( 0) :     1.923946 a.u.    52.353 eV
 535( 0) :     1.926477 a.u.    52.422 eV
 536( 0) :     2.117849 a.u.    57.630 eV
 537( 0) :     2.187846 a.u.    59.534 eV
 538( 0) :     2.193039 a.u.    59.676 eV
 539( 0) :     2.196330 a.u.    59.765 eV
 540( 0) :     2.238870 a.u.    60.923 eV
 541( 0) :     2.244035 a.u.    61.063 eV
 542( 0) :     2.251634 a.u.    61.270 eV
 543( 0) :     2.328334 a.u.    63.357 eV
 544( 0) :     2.351867 a.u.    63.998 eV
 545( 0) :     2.381903 a.u.    64.815 eV
 546( 0) :     2.394046 a.u.    65.145 eV
 547( 0) :     2.467182 a.u.    67.135 eV
 548( 0) :     2.471512 a.u.    67.253 eV
 549( 0) :     2.481264 a.u.    67.519 eV
 550( 0) :     2.486770 a.u.    67.668 eV
 551( 0) :     2.496484 a.u.    67.933 eV
 552( 0) :     2.497216 a.u.    67.953 eV
 553( 0) :     2.511464 a.u.    68.340 eV
 554( 0) :     2.544425 a.u.    69.237 eV
 555( 0) :     2.551467 a.u.    69.429 eV
 556( 0) :     2.552630 a.u.    69.461 eV
 557( 0) :     3.130357 a.u.    85.181 eV
 558( 0) :     3.243463 a.u.    88.259 eV
 559( 0) :     3.245855 a.u.    88.324 eV
 560( 0) :     3.247870 a.u.    88.379 eV
 561( 0) :     3.253055 a.u.    88.520 eV
 562( 0) :     3.254508 a.u.    88.560 eV
 563( 0) :     3.261181 a.u.    88.741 eV
 564( 0) :     3.264515 a.u.    88.832 eV
 565( 0) :     3.358523 a.u.    91.390 eV
 566( 0) :     3.412455 a.u.    92.858 eV
 567( 0) :     3.474911 a.u.    94.557 eV
 568( 0) :     3.483730 a.u.    94.797 eV
 569( 0) :     3.543551 a.u.    96.425 eV
 570( 0) :    23.680396 a.u.   644.376 eV
 571( 0) :    23.899603 a.u.   650.341 eV
 572( 0) :    24.004204 a.u.   653.188 eV
 573( 0) :    24.150633 a.u.   657.172 eV
 574( 0) :    24.193121 a.u.   658.328 eV
 575( 0) :    24.718044 a.u.   672.612 eV
 576( 0) :    24.995977 a.u.   680.175 eV
 577( 0) :    25.054039 a.u.   681.755 eV
 578( 0) :    25.172787 a.u.   684.986 eV
 579( 0) :    25.206649 a.u.   685.908 eV
 580( 0) :    25.309719 a.u.   688.712 eV
 581( 0) :    25.375106 a.u.   690.492 eV
 582( 0) :    25.504875 a.u.   694.023 eV
 583( 0) :    25.530108 a.u.   694.710 eV
 584( 0) :    25.532490 a.u.   694.774 eV
 585( 0) :    25.637581 a.u.   697.634 eV
 586( 0) :    25.722616 a.u.   699.948 eV
 587( 0) :    25.910974 a.u.   705.073 eV
 588( 0) :    26.001078 a.u.   707.525 eV
 589( 0) :    26.074206 a.u.   709.515 eV
 590( 0) :    26.180383 a.u.   712.404 eV
 591( 0) :    26.292651 a.u.   715.459 eV
 592( 0) :    26.302208 a.u.   715.719 eV
 593( 0) :    26.303919 a.u.   715.766 eV
 594( 0) :    26.481889 a.u.   720.609 eV
 595( 0) :    26.591931 a.u.   723.603 eV
 596( 0) :    26.647474 a.u.   725.115 eV
 597( 0) :    26.696401 a.u.   726.446 eV
 598( 0) :    26.766739 a.u.   728.360 eV
 599( 0) :    26.893545 a.u.   731.811 eV
 600( 0) :    26.934838 a.u.   732.934 eV
 601( 0) :    27.022354 a.u.   735.316 eV
 602( 0) :    27.209284 a.u.   740.402 eV
 603( 0) :    27.224421 a.u.   740.814 eV
 604( 0) :    27.256318 a.u.   741.682 eV
 605( 0) :    27.354131 a.u.   744.344 eV
 606( 0) :    27.452228 a.u.   747.013 eV
 607( 0) :    27.484355 a.u.   747.887 eV
 608( 0) :    27.544079 a.u.   749.513 eV
 609( 0) :    27.620198 a.u.   751.584 eV
 610( 0) :    28.006369 a.u.   762.092 eV
 611( 0) :    28.090036 a.u.   764.369 eV
 612( 0) :    31.005576 a.u.   843.705 eV
 613( 0) :    31.039650 a.u.   844.632 eV
 614( 0) :    32.664564 a.u.   888.848 eV
 615( 0) :    43.922311 a.u.  1195.187 eV
 616( 0) :    44.006427 a.u.  1197.476 eV
 617( 0) :    44.030569 a.u.  1198.133 eV
 618( 0) :    44.036638 a.u.  1198.298 eV
 619( 0) :    44.085476 a.u.  1199.627 eV
 620( 0) :    44.093456 a.u.  1199.844 eV
 621( 0) :    44.140708 a.u.  1201.130 eV
 622( 0) :    44.160241 a.u.  1201.661 eV
 623( 0) :    44.171685 a.u.  1201.973 eV
 624( 0) :    44.172586 a.u.  1201.997 eV
 625( 0) :    44.183371 a.u.  1202.291 eV
 626( 0) :    44.203433 a.u.  1202.837 eV
 627( 0) :    44.218428 a.u.  1203.245 eV
 628( 0) :    44.242091 a.u.  1203.889 eV
 629( 0) :    44.244071 a.u.  1203.942 eV
 630( 0) :   205.093391 a.u.  5580.875 eV
 631( 0) :   205.132520 a.u.  5581.940 eV
 632( 0) :   205.141287 a.u.  5582.178 eV
 633( 0) :   205.143760 a.u.  5582.246 eV
 634( 0) :   205.165501 a.u.  5582.837 eV
 635( 0) :   205.169693 a.u.  5582.951 eV
 636( 0) :   205.188342 a.u.  5583.459 eV
 637( 0) :   205.198245 a.u.  5583.728 eV
 638( 0) :   205.199908 a.u.  5583.773 eV
 639( 0) :   205.202523 a.u.  5583.845 eV
 640( 0) :   205.206835 a.u.  5583.962 eV
 641( 0) :   205.216833 a.u.  5584.234 eV
 642( 0) :   205.220430 a.u.  5584.332 eV
 643( 0) :   205.231247 a.u.  5584.626 eV
 644( 0) :   205.234065 a.u.  5584.703 eV
-------
TIMINGS
-------

Total SCF time: 0 days 0 hours 1 min 17 sec 

Total time                  ....      78.000 sec
Sum of individual times     ....      74.589 sec  ( 95.6%)

Fock matrix formation       ....      57.940 sec  ( 74.3%)
  Split-RI-J                ....      20.905 sec  ( 36.1% of F)
  XC integration            ....      35.986 sec  ( 62.1% of F)
    Basis function eval.    ....       3.774 sec  ( 10.5% of XC)
    Density eval.           ....      16.831 sec  ( 46.8% of XC)
    XC-Functional eval.     ....       0.313 sec  (  0.9% of XC)
    XC-Potential eval.      ....      10.898 sec  ( 30.3% of XC)
Diagonalization             ....       6.391 sec  (  8.2%)
Density matrix formation    ....       0.481 sec  (  0.6%)
Population analysis         ....       4.887 sec  (  6.3%)
Initial guess               ....       0.514 sec  (  0.7%)
Orbital Transformation      ....       2.654 sec  (  3.4%)
Orbital Orthonormalization  ....       0.460 sec  (  0.6%)
DIIS solution               ....       0.000 sec  (  0.0%)
Grid generation             ....       1.697 sec  (  2.2%)

Maximum memory used throughout the entire SCF-calculation: 113.9 MB

-------------------------   --------------------
FINAL SINGLE POINT ENERGY     -3188.226147069402
-------------------------   --------------------

                                *** OPTIMIZATION RUN DONE ***

                            ***************************************
                            *     ORCA property calculations      *
                            ***************************************

                                    ---------------------
                                    Active property flags
                                    ---------------------
   (+) Dipole Moment


------------------------------------------------------------------------------
                       ORCA ELECTRIC PROPERTIES CALCULATION
------------------------------------------------------------------------------

Dipole Moment Calculation                       ... on
Quadrupole Moment Calculation                   ... off
Polarizability Calculation                      ... off
GBWName                                         ... pbe.gbw
Electron density                                ... pbe.scfp
The origin for moment calculation is the CENTER OF MASS  = (13.482586, 14.402927 16.115206)

-------------
DIPOLE MOMENT
-------------
                                X             Y             Z
Electronic contribution:     -2.43208       4.50553      -3.17457
Nuclear contribution   :      2.38373      -4.41227       3.10364
                        -----------------------------------------
Total Dipole Moment    :     -0.04835       0.09326      -0.07093
                        -----------------------------------------
Magnitude (a.u.)       :      0.12675
Magnitude (Debye)      :      0.32217



--------------------
Rotational spectrum 
--------------------
 
Rotational constants in cm-1:     0.001090     0.000869     0.000843 
Rotational constants in MHz :    32.671727    26.039582    25.277905 

 Dipole components along the rotational axes: 
x,y,z [a.u.] :    -0.126729    -0.001473     0.001775 
x,y,z [Debye]:    -0.322119    -0.003744     0.004512 

 

Timings for individual modules:

Sum of individual times         ...     2738.091 sec (=  45.635 min)
GTO integral calculation        ...      244.777 sec (=   4.080 min)   8.9 %
SCF iterations                  ...     1218.817 sec (=  20.314 min)  44.5 %
SCF Gradient evaluation         ...     1270.979 sec (=  21.183 min)  46.4 %
Geometry relaxation             ...        3.518 sec (=   0.059 min)   0.1 %
                             ****ORCA TERMINATED NORMALLY****
TOTAL RUN TIME: 0 days 0 hours 45 minutes 43 seconds 356 msec
