
                                 *****************
                                 * O   R   C   A *
                                 *****************

                                            #,                                       
                                            ###                                      
                                            ####                                     
                                            #####                                    
                                            ######                                   
                                           ########,                                 
                                     ,,################,,,,,                         
                               ,,#################################,,                 
                          ,,##########################################,,             
                       ,#########################################, ''#####,          
                    ,#############################################,,   '####,        
                  ,##################################################,,,,####,       
                ,###########''''           ''''###############################       
              ,#####''   ,,,,##########,,,,          '''####'''          '####       
            ,##' ,,,,###########################,,,                        '##       
           ' ,,###''''                  '''############,,,                           
         ,,##''                                '''############,,,,        ,,,,,,###''
      ,#''                                            '''#######################'''  
     '                                                          ''''####''''         
             ,#######,   #######,   ,#######,      ##                                
            ,#'     '#,  ##    ##  ,#'     '#,    #''#        ######   ,####,        
            ##       ##  ##   ,#'  ##            #'  '#       #        #'  '#        
            ##       ##  #######   ##           ,######,      #####,   #    #        
            '#,     ,#'  ##    ##  '#,     ,#' ,#      #,         ##   #,  ,#        
             '#######'   ##     ##  '#######'  #'      '#     #####' # '####'        



                  #######################################################
                  #                        -***-                        #
                  #          Department of theory and spectroscopy      #
                  #    Directorship and core code : Frank Neese         #
                  #        Max Planck Institute fuer Kohlenforschung    #
                  #                Kaiser Wilhelm Platz 1               #
                  #                 D-45470 Muelheim/Ruhr               #
                  #                      Germany                        #
                  #                                                     #
                  #                  All rights reserved                #
                  #                        -***-                        #
                  #######################################################


                         Program Version 5.0.3 -  RELEASE  -


 With contributions from (in alphabetic order):
   Daniel Aravena         : Magnetic Suceptibility
   Michael Atanasov       : Ab Initio Ligand Field Theory (pilot matlab implementation)
   Alexander A. Auer      : GIAO ZORA, VPT2 properties, NMR spectrum
   Ute Becker             : Parallelization
   Giovanni Bistoni       : ED, misc. LED, open-shell LED, HFLD
   Martin Brehm           : Molecular dynamics
   Dmytro Bykov           : SCF Hessian
   Vijay G. Chilkuri      : MRCI spin determinant printing, contributions to CSF-ICE
   Dipayan Datta          : RHF DLPNO-CCSD density
   Achintya Kumar Dutta   : EOM-CC, STEOM-CC
   Dmitry Ganyushin       : Spin-Orbit,Spin-Spin,Magnetic field MRCI
   Miquel Garcia          : C-PCM and meta-GGA Hessian, CC/C-PCM, Gaussian charge scheme
   Yang Guo               : DLPNO-NEVPT2, F12-NEVPT2, CIM, IAO-localization
   Andreas Hansen         : Spin unrestricted coupled pair/coupled cluster methods
   Benjamin Helmich-Paris : MC-RPA, TRAH-SCF, COSX integrals
   Lee Huntington         : MR-EOM, pCC
   Robert Izsak           : Overlap fitted RIJCOSX, COSX-SCS-MP3, EOM
   Marcus Kettner         : VPT2
   Christian Kollmar      : KDIIS, OOCD, Brueckner-CCSD(T), CCSD density, CASPT2, CASPT2-K
   Simone Kossmann        : Meta GGA functionals, TD-DFT gradient, OOMP2, MP2 Hessian
   Martin Krupicka        : Initial AUTO-CI
   Lucas Lang             : DCDCAS
   Marvin Lechner         : AUTO-CI (C++ implementation), FIC-MRCC
   Dagmar Lenk            : GEPOL surface, SMD
   Dimitrios Liakos       : Extrapolation schemes; Compound Job, initial MDCI parallelization
   Dimitrios Manganas     : Further ROCIS development; embedding schemes
   Dimitrios Pantazis     : SARC Basis sets
   Anastasios Papadopoulos: AUTO-CI, single reference methods and gradients
   Taras Petrenko         : DFT Hessian,TD-DFT gradient, ASA, ECA, R-Raman, ABS, FL, XAS/XES, NRVS
   Peter Pinski           : DLPNO-MP2, DLPNO-MP2 Gradient
   Christoph Reimann      : Effective Core Potentials
   Marius Retegan         : Local ZFS, SOC
   Christoph Riplinger    : Optimizer, TS searches, QM/MM, DLPNO-CCSD(T), (RO)-DLPNO pert. Triples
   Tobias Risthaus        : Range-separated hybrids, TD-DFT gradient, RPA, STAB
   Michael Roemelt        : Original ROCIS implementation
   Masaaki Saitow         : Open-shell DLPNO-CCSD energy and density
   Barbara Sandhoefer     : DKH picture change effects
   Avijit Sen             : IP-ROCIS
   Kantharuban Sivalingam : CASSCF convergence, NEVPT2, FIC-MRCI
   Bernardo de Souza      : ESD, SOC TD-DFT
   Georgi Stoychev        : AutoAux, RI-MP2 NMR, DLPNO-MP2 response
   Willem Van den Heuvel  : Paramagnetic NMR
   Boris Wezisla          : Elementary symmetry handling
   Frank Wennmohs         : Technical directorship


 We gratefully acknowledge several colleagues who have allowed us to
 interface, adapt or use parts of their codes:
   Stefan Grimme, W. Hujo, H. Kruse, P. Pracht,  : VdW corrections, initial TS optimization,
                  C. Bannwarth, S. Ehlert          DFT functionals, gCP, sTDA/sTD-DF
   Ed Valeev, F. Pavosevic, A. Kumar             : LibInt (2-el integral package), F12 methods
   Garnet Chan, S. Sharma, J. Yang, R. Olivares  : DMRG
   Ulf Ekstrom                                   : XCFun DFT Library
   Mihaly Kallay                                 : mrcc  (arbitrary order and MRCC methods)
   Jiri Pittner, Ondrej Demel                    : Mk-CCSD
   Frank Weinhold                                : gennbo (NPA and NBO analysis)
   Christopher J. Cramer and Donald G. Truhlar   : smd solvation model
   Lars Goerigk                                  : TD-DFT with DH, B97 family of functionals
   V. Asgeirsson, H. Jonsson                     : NEB implementation
   FAccTs GmbH                                   : IRC, NEB, NEB-TS, DLPNO-Multilevel, CI-OPT
                                                   MM, QMMM, 2- and 3-layer-ONIOM, Crystal-QMMM,
                                                   LR-CPCM, SF, NACMEs, symmetry and pop. for TD-DFT,
                                                   nearIR, NL-DFT gradient (VV10), updates on ESD,
                                                   ML-optimized integration grids
   S Lehtola, MJT Oliveira, MAL Marques          : LibXC Library
   Liviu Ungur et al                             : ANISO software


 Your calculation uses the libint2 library for the computation of 2-el integrals
 For citations please refer to: http://libint.valeyev.net

 Your ORCA version has been built with support for libXC version: 5.1.0
 For citations please refer to: https://tddft.org/programs/libxc/

 This ORCA versions uses:
   CBLAS   interface :  Fast vector & matrix operations
   LAPACKE interface :  Fast linear algebra routines
   SCALAPACK package :  Parallel linear algebra routines
   Shared memory     :  Shared parallel matrices
   BLAS/LAPACK       :  OpenBLAS 0.3.15  USE64BITINT DYNAMIC_ARCH NO_AFFINITY Sandybridge SINGLE_THREADED
        Core in use  :  Sandybridge
   Copyright (c) 2011-2014, The OpenBLAS Project




***************************************
The coordinates will be read from file: pbe.xyz
***************************************


================================================================================

cite the ECPs for Au [Def2-ECP] as follows:
Ce-Yb(ecp-28): M. Dolg, H. Stoll, H.Preuss, J. Chem. Phys., 1989, 90, 1730-1734.
Y-Cd(ecp-28), Hf-Hg(ecp-46): D. Andrae,U. Haeussermann, M. Dolg, H. Stoll, H. Preuss, Theor. Chim. Acta, 1990, 77, 123-141.
In-Sb(ecp-28), Tl-Bi(ecp-46): B. Metz, H. Stoll, M. Dolg, J. Chem. Phys., 2000, 113, 2563-2569.
Te-Xe(ecp-28), Po-Rn(ecp-46): K. A. Peterson, D. Figgen, E. Goll, H. Stoll, M. Dolg, J. Chem. Phys., 2003, 119, 11113-11123.
Rb(ecp-28), Cs(ecp-46): T. Leininger, A. Nicklass, W. Kuechle, H. Stoll, M. Dolg, A. Bergner, Chem. Phys. Lett., 1996, 255, 274-280.
Sr(ecp-28), Ba(ecp-46): M. Kaupp, P. V. Schleyer, H. Stoll and H. Preuss, J. Chem. Phys., 1991, 94, 1360-1366.
La(ecp-46): M. Dolg, H. Stoll, A. Savin, H. Preuss, Theor. Chim. Acta, 1989, 75, 173-194.
Lu(ecp-28): X. Cao, M. Dolg, J. Chem. Phys., 2001, 115, 7348-7355.

ECP parameters for Au [Def2-ECP] have been obtained from:
TURBOMOLE (7.0.2)

----- Orbital basis set information -----
Your calculation utilizes the basis: def2-TZVP
   F. Weigend and R. Ahlrichs, Phys. Chem. Chem. Phys. 7, 3297 (2005).

----- AuxJ basis set information -----
Your calculation utilizes the auxiliary basis: def2/J
   F. Weigend, Phys. Chem. Chem. Phys. 8, 1057 (2006).

----- AuxC basis set information -----
Your calculation utilizes the auxiliary basis: def2-TZVP/C
  H-La, Hf-Rn : A. Hellweg, C. Hattig, S. Hofener and W. Klopper, Theor. Chem. Acc. 117, 587 (2007).
        Ce-Lu : J. Chmela and M. E. Harding, Mol. Phys. (2018).

================================================================================
                                        WARNINGS
                       Please study these warnings very carefully!
================================================================================


IMPORTANT NOTE: CASSCF must signal convergence for a subsequent CASPT2/NEVPT2! 
                Set maxiter=1 to run CASPT2/NEVPT2 with arbitrary orbitals.


INFO   : the flag for use of the SHARK integral package has been found!

================================================================================
                                       INPUT FILE
================================================================================
NAME = nevpt2.inp
|  1> !SC-NEVPT2 def2-TZVP def2-TZVP/C
|  2> !MOREAD RIJCOSX def2/J
|  3> %maxcore 4000
|  4> %moinp "casscf.gbw"
|  5> %pal nprocs 6 end 
|  6> 
|  7> %casscf
|  8>  mult 6,4
|  9>  bweight 1,1
| 10>  nroots 1,24
| 11>  nel 5
| 12>  norb 5
| 13>  ptsettings
| 14>   d4tpre 1e-14 # default = 1e-10
| 15>   d3tpre 1e-14
| 16>  end
| 17>  rel           
| 18>    dosoc true   
| 19>    gtensor true 
| 20>  end           
| 21> end
| 22> 
| 23> 
| 24> *xyzfile 0 6 pbe.xyz
| 25> 
| 26> 
| 27>                          ****END OF INPUT****
================================================================================

                       ****************************
                       * Single Point Calculation *
                       ****************************

---------------------------------
CARTESIAN COORDINATES (ANGSTROEM)
---------------------------------
  Au     9.530715    5.694890    5.281152
  Au    10.518164    5.416299    9.281785
  Au     8.754077    4.249989    7.503100
  Au     8.013763    5.806430   10.195361
  Au     9.977513    8.014137    9.915276
  Au     8.850638    8.337943    5.323241
  Au     6.247108    5.185222    8.178305
  Au     4.790025    7.246430    6.941548
  Au     5.595540    7.011065   10.216113
  Au     4.831743    9.335973    8.826054
  Au     6.903198    6.134351    5.680381
  Au     6.737488    9.181141    6.820619
  Au     7.440581    8.978228    9.690303
  Au     9.259749    9.685796    7.764773
  Mn     8.583790    6.974194    7.737390

----------------------------
CARTESIAN COORDINATES (A.U.)
----------------------------
  NO LB      ZA    FRAG     MASS         X           Y           Z
   0 Au   19.0000*   0   196.966   18.010441   10.761782    9.979931
   1 Au   19.0000*   0   196.966   19.876450   10.235321   17.540032
   2 Au   19.0000*   0   196.966   16.542808    8.031316   14.178805
   3 Au   19.0000*   0   196.966   15.143817   10.972563   19.266441
   4 Au   19.0000*   0   196.966   18.854768   15.144524   18.737155
   5 Au   19.0000*   0   196.966   16.725282   15.756430   10.059468
   6 Au   19.0000*   0   196.966   11.805323    9.798650   15.454757
   7 Au   19.0000*   0   196.966    9.051835   13.693768   13.117625
   8 Au   19.0000*   0   196.966   10.574038   13.248993   19.305656
   9 Au   19.0000*   0   196.966    9.130672   17.642432   16.678824
  10 Au   19.0000*   0   196.966   13.045155   11.592244   10.734365
  11 Au   19.0000*   0   196.966   12.732007   17.349842   12.889101
  12 Au   19.0000*   0   196.966   14.060661   16.966391   18.312019
  13 Au   19.0000*   0   196.966   17.498390   18.303502   14.673294
  14 Mn   25.0000    0    54.940   16.221012   13.179317   14.621548
* core charge reduced due to ECP

--------------------------------
INTERNAL COORDINATES (ANGSTROEM)
--------------------------------
 Au     0   0   0     0.000000000000     0.00000000     0.00000000
 Au     1   0   0     4.130101359724     0.00000000     0.00000000
 Au     1   2   0     2.761875937377    41.63900067     0.00000000
 Au     2   1   3     2.694225522304    95.53470281   305.74607747
 Au     2   1   3     2.728071940874    96.50653207   238.96743240
 Au     1   2   3     2.729470221465    96.31256097   121.18430983
 Au     4   2   1     2.752359674665   108.38890901    21.54207717
 Au     7   4   2     2.810913900678   119.31829241   249.89837855
 Au     4   2   1     2.701735902028   154.04899443   317.93526078
 Au     8   7   4     2.814123189615   104.01384731   338.37765346
 Au     1   2   3     2.693761629639    95.77669565    54.55222419
 Au     6   1   2     2.723696864939   120.10344867   296.32325425
 Au     5   2   1     2.723253048556   120.16946845    63.47717402
 Au    12   6   1     2.740055856045    62.11355217   104.30187756
 Mn     3   1   2     2.739558707344    64.28175754    57.09337323

---------------------------
INTERNAL COORDINATES (A.U.)
---------------------------
 Au     0   0   0     0.000000000000     0.00000000     0.00000000
 Au     1   0   0     7.804760475214     0.00000000     0.00000000
 Au     1   2   0     5.219189137510    41.63900067     0.00000000
 Au     2   1   3     5.091348380175    95.53470281   305.74607747
 Au     2   1   3     5.155308841886    96.50653207   238.96743240
 Au     1   2   3     5.157951209261    96.31256097   121.18430983
 Au     4   2   1     5.201206007166   108.38890901    21.54207717
 Au     7   4   2     5.311857458314   119.31829241   249.89837855
 Au     4   2   1     5.105540941015   154.04899443   317.93526078
 Au     8   7   4     5.317922135490   104.01384731   338.37765346
 Au     1   2   3     5.090471750084    95.77669565    54.55222419
 Au     6   1   2     5.147041146554   120.10344867   296.32325425
 Au     5   2   1     5.146202455137   120.16946845    63.47717402
 Au    12   6   1     5.177955159573    62.11355217   104.30187756
 Mn     3   1   2     5.177015684679    64.28175754    57.09337323

---------------------
BASIS SET INFORMATION
---------------------
There are 2 groups of distinct atoms

 Group   1 Type Au  : 8s7p6d1f contracted to 6s4p3d1f pattern {311111/4111/411/1}
 Group   2 Type Mn  : 17s11p7d1f contracted to 6s4p4d1f pattern {842111/6311/4111/1}

Atom   0Au   basis set group =>   1
Atom   1Au   basis set group =>   1
Atom   2Au   basis set group =>   1
Atom   3Au   basis set group =>   1
Atom   4Au   basis set group =>   1
Atom   5Au   basis set group =>   1
Atom   6Au   basis set group =>   1
Atom   7Au   basis set group =>   1
Atom   8Au   basis set group =>   1
Atom   9Au   basis set group =>   1
Atom  10Au   basis set group =>   1
Atom  11Au   basis set group =>   1
Atom  12Au   basis set group =>   1
Atom  13Au   basis set group =>   1
Atom  14Mn   basis set group =>   2
---------------------------------
AUXILIARY/J BASIS SET INFORMATION
---------------------------------
There are 2 groups of distinct atoms

 Group   1 Type Au  : 11s5p5d3f3g contracted to 8s5p5d2f3g pattern {41111111/11111/11111/21/111}
 Group   2 Type Mn  : 19s5p5d3f3g contracted to 8s5p5d2f3g pattern {121111111/11111/11111/21/111}

Atom   0Au   basis set group =>   1
Atom   1Au   basis set group =>   1
Atom   2Au   basis set group =>   1
Atom   3Au   basis set group =>   1
Atom   4Au   basis set group =>   1
Atom   5Au   basis set group =>   1
Atom   6Au   basis set group =>   1
Atom   7Au   basis set group =>   1
Atom   8Au   basis set group =>   1
Atom   9Au   basis set group =>   1
Atom  10Au   basis set group =>   1
Atom  11Au   basis set group =>   1
Atom  12Au   basis set group =>   1
Atom  13Au   basis set group =>   1
Atom  14Mn   basis set group =>   2
---------------------------------
AUXILIARY/C BASIS SET INFORMATION
---------------------------------
There are 2 groups of distinct atoms

 Group   1 Type Au  : 8s8p7d5f3g2h contracted to 8s8p7d5f3g2h pattern {11111111/11111111/1111111/11111/111/11}
 Group   2 Type Mn  : 11s9p8d6f5g2h contracted to 9s8p8d6f5g2h pattern {311111111/21111111/11111111/111111/11111/11}

Atom   0Au   basis set group =>   1
Atom   1Au   basis set group =>   1
Atom   2Au   basis set group =>   1
Atom   3Au   basis set group =>   1
Atom   4Au   basis set group =>   1
Atom   5Au   basis set group =>   1
Atom   6Au   basis set group =>   1
Atom   7Au   basis set group =>   1
Atom   8Au   basis set group =>   1
Atom   9Au   basis set group =>   1
Atom  10Au   basis set group =>   1
Atom  11Au   basis set group =>   1
Atom  12Au   basis set group =>   1
Atom  13Au   basis set group =>   1
Atom  14Mn   basis set group =>   2
-------------------------
ECP PARAMETER INFORMATION
-------------------------

 Group 1, Type Au ECP Def2-ECP (replacing 60 core electrons, lmax=3)

Atom   0Au   ECP group =>   1
Atom   1Au   ECP group =>   1
Atom   2Au   ECP group =>   1
Atom   3Au   ECP group =>   1
Atom   4Au   ECP group =>   1
Atom   5Au   ECP group =>   1
Atom   6Au   ECP group =>   1
Atom   7Au   ECP group =>   1
Atom   8Au   ECP group =>   1
Atom   9Au   ECP group =>   1
Atom  10Au   ECP group =>   1
Atom  11Au   ECP group =>   1
Atom  12Au   ECP group =>   1
Atom  13Au   ECP group =>   1



           ************************************************************
           *        Program running with 6 parallel MPI-processes     *
           *              working on a common directory               *
           ************************************************************
------------------------------------------------------------------------------
                           ORCA GTO INTEGRAL CALCULATION
                           -- RI-GTO INTEGRALS CHOSEN --
------------------------------------------------------------------------------
------------------------------------------------------------------------------
                   ___                                                        
                  /   \      - P O W E R E D   B Y -                         
                 /     \                                                     
                 |  |  |   _    _      __       _____    __    __             
                 |  |  |  | |  | |    /  \     |  _  \  |  |  /  |          
                  \  \/   | |  | |   /    \    | | | |  |  | /  /          
                 / \  \   | |__| |  /  /\  \   | |_| |  |  |/  /          
                |  |  |   |  __  | /  /__\  \  |    /   |      \           
                |  |  |   | |  | | |   __   |  |    \   |  |\   \          
                \     /   | |  | | |  |  |  |  | |\  \  |  | \   \       
                 \___/    |_|  |_| |__|  |__|  |_| \__\ |__|  \__/        
                                                                              
                      - O R C A' S   B I G   F R I E N D -                    
                                      &                                       
                       - I N T E G R A L  F E E D E R -                       
                                                                              
 v1 FN, 2020, v2 2021                                                         
------------------------------------------------------------------------------


Reading SHARK input file nevpt2.SHARKINP.tmp ... ok
----------------------
SHARK INTEGRAL PACKAGE
----------------------

Number of atoms                             ...     15
Number of basis functions                   ...    605
Number of shells                            ...    211
Maximum angular momentum                    ...      3
Integral batch strategy                     ... SHARK/LIBINT Hybrid
RI-J (if used) integral strategy            ... SPLIT-RIJ (Revised 2003 algorithm where possible)
Printlevel                                  ...      1
Contraction scheme used                     ... SEGMENTED contraction
Coulomb Range Separation                    ... NOT USED
Exchange Range Separation                   ... NOT USED
Finite Nucleus Model                        ... NOT USED
Auxiliary Coulomb fitting basis             ... AVAILABLE
   # of basis functions in Aux-J            ...   1335
   # of shells in Aux-J                     ...    345
   Maximum angular momentum in Aux-J        ...      4
Auxiliary J/K fitting basis                 ... NOT available
Auxiliary Correlation fitting basis         ... AVAILABLE
   # of basis functions in Aux-C            ...   2296
   # of shells in Aux-C                     ...    500
   Maximum angular momentum in Aux-C        ...      5
Auxiliary 'external' fitting basis          ... NOT available
Integral threshold                          ...     1.000000e-10
Primitive cut-off                           ...     1.000000e-11
Primitive pair pre-selection threshold      ...     1.000000e-11

Calculating pre-screening integrals         ... done (  0.3 sec) Dimension = 211
Organizing shell pair data                  ... done (  1.1 sec)
Shell pair information
Total number of shell pairs                 ...     22366
Shell pairs after pre-screening             ...     17665
Total number of primitive shell pairs       ...     59609
Primitive shell pairs kept                  ...     33951
          la=0 lb=0:   2787 shell pairs
          la=1 lb=0:   4003 shell pairs
          la=1 lb=1:   1527 shell pairs
          la=2 lb=0:   3510 shell pairs
          la=2 lb=1:   2483 shell pairs
          la=2 lb=2:   1026 shell pairs
          la=3 lb=0:    915 shell pairs
          la=3 lb=1:    706 shell pairs
          la=3 lb=2:    612 shell pairs
          la=3 lb=3:     96 shell pairs

Calculating one electron integrals          ... done (  0.1 sec)
Calculating ECP integrals                   ... done ( 22.7 sec)
Calculating RI/J V-Matrix + Cholesky decomp.... done (  0.2 sec)
Calculating RI/C V-Matrix + Cholesky decomp.... done (  0.5 sec)
Calculating Nuclear repulsion               ... done (  0.0 sec) ENN=   5576.154266134026 Eh

SHARK setup successfully completed in  25.6 seconds

Maximum memory used throughout the entire GTOINT-calculation: 49.2 MB


           ************************************************************
           *        Program running with 6 parallel MPI-processes     *
           *              working on a common directory               *
           ************************************************************
-------------------------------------------------------------------------------
                                 ORCA SCF
-------------------------------------------------------------------------------

------------
SCF SETTINGS
------------
Hamiltonian:
 Ab initio Hamiltonian  Method          .... Hartree-Fock(GTOs)
 RI-approximation to the Coulomb term is turned on
   Number of AuxJ basis functions       .... 1335
   RIJ-COSX (HFX calculated with COS-X)).... on


General Settings:
 Integral files         IntName         .... nevpt2
 Hartree-Fock type      HFTyp           .... CASSCF
 Total Charge           Charge          ....    0
 Multiplicity           Mult            ....    6
 Number of Electrons    NEL             ....  291
 Basis Dimension        Dim             ....  605
 Nuclear Repulsion      ENuc            ....   5576.1542661340 Eh


Diagonalization of the overlap matrix:
Smallest eigenvalue                        ... 4.802e-04
Time for diagonalization                   ...    0.110 sec
Threshold for overlap eigenvalues          ... 1.000e-08
Number of eigenvalues below threshold      ... 0
Time for construction of square roots      ...    0.120 sec
Total time needed                          ...    0.232 sec

---------------------
INITIAL GUESS: MOREAD
---------------------
Guess MOs are being read from file: casscf.gbw
Input Geometry matches current geometry (good)
Input basis set matches current basis set (good)
MOs were renormalized
Gram-Schmidt orthogonalization of all MOs with pivot on actives
                      ------------------
                      INITIAL GUESS DONE (   7.8 sec)
                      ------------------
--------------------
COSX GRID GENERATION
--------------------

GRIDX 1
-------
General Integration Accuracy     IntAcc      ... 3.816
Radial Grid Type                 RadialGrid  ... OptM3 with GC (2021)
Angular Grid (max. ang.)         AngularGrid ... 1 (Lebedev-50)
Angular grid pruning method      GridPruning ... 4 (adaptive)
Weight generation scheme         WeightScheme... Becke
Basis function cutoff            BFCut       ... 1.0000e-10
Integration weight cutoff        WCut        ... 1.0000e-14
Angular grids for H and He will be reduced by one unit
Partially contracted basis set               ... on
Rotationally invariant grid construction     ... off

Total number of grid points                  ...    17377
Total number of batches                      ...      279
Average number of points per batch           ...       62
Average number of grid points per atom       ...     1158
UseSFitting                                  ... on

GRIDX 2
-------
General Integration Accuracy     IntAcc      ... 4.020
Radial Grid Type                 RadialGrid  ... OptM3 with GC (2021)
Angular Grid (max. ang.)         AngularGrid ... 2 (Lebedev-110)
Angular grid pruning method      GridPruning ... 4 (adaptive)
Weight generation scheme         WeightScheme... Becke
Basis function cutoff            BFCut       ... 1.0000e-10
Integration weight cutoff        WCut        ... 1.0000e-14
Angular grids for H and He will be reduced by one unit
Partially contracted basis set               ... on
Rotationally invariant grid construction     ... off

Total number of grid points                  ...    52683
Total number of batches                      ...      828
Average number of points per batch           ...       63
Average number of grid points per atom       ...     3512
UseSFitting                                  ... on

GRIDX 3
-------
General Integration Accuracy     IntAcc      ... 4.338
Radial Grid Type                 RadialGrid  ... OptM3 with GC (2021)
Angular Grid (max. ang.)         AngularGrid ... 3 (Lebedev-194)
Angular grid pruning method      GridPruning ... 4 (adaptive)
Weight generation scheme         WeightScheme... Becke
Basis function cutoff            BFCut       ... 1.0000e-10
Integration weight cutoff        WCut        ... 1.0000e-14
Angular grids for H and He will be reduced by one unit
Partially contracted basis set               ... on
Rotationally invariant grid construction     ... off

Total number of grid points                  ...    95809
Total number of batches                      ...     1504
Average number of points per batch           ...       63
Average number of grid points per atom       ...     6387
UseSFitting                                  ... on

Time for X-Grid setup             =    3.094 sec



 ... the calculation is a CASSCF calculation -I'm leaving here GOOD LUCK!!!



           ************************************************************
           *        Program running with 6 parallel MPI-processes     *
           *              working on a common directory               *
           ************************************************************
-------------------------------------------------------------------------------
                              ORCA-CASSCF
-------------------------------------------------------------------------------

Setting up the integral package       ... done
Setting up the integral package (RI)  ... done
Building the CAS space                ... done (1 configurations for Mult=6)
Building the CAS space                ... done (21 configurations for Mult=4)

 CASSCF (estimated) memory needed     ... 150.4 MB
 NEVPT2 (estimated) memory needed     ... 548.6 MB


SYSTEM-SPECIFIC SETTINGS:
Number of active electrons          ...    5
Number of active orbitals           ...    5
Total number of electrons           ...  291
Total number of orbitals            ...  605
Total number aux. functions         ... 2296

Determined orbital ranges:
   Internal       0 -  142 ( 143 orbitals)
   Active       143 -  147 (   5 orbitals)
   External     148 -  604 ( 457 orbitals)
Number of rotation parameters      ...  68351

CI-STEP:
CI strategy                         ... General CI
Number of multiplicity blocks       ...    2
BLOCK  1 WEIGHT=   0.5000
  Multiplicity                      ...    6
  #(Configurations)                 ...    1
  #(CSFs)                           ...    1
  #(Roots)                          ...    1
    ROOT=0 WEIGHT=    0.500000

BLOCK  2 WEIGHT=   0.5000
  Multiplicity                      ...    4
  #(Configurations)                 ...   21
  #(CSFs)                           ...   24
  #(Roots)                          ...   24
    ROOT=0 WEIGHT=    0.020833
    ROOT=1 WEIGHT=    0.020833
    ROOT=2 WEIGHT=    0.020833
    ROOT=3 WEIGHT=    0.020833
    ROOT=4 WEIGHT=    0.020833
    ROOT=5 WEIGHT=    0.020833
    ROOT=6 WEIGHT=    0.020833
    ROOT=7 WEIGHT=    0.020833
    ROOT=8 WEIGHT=    0.020833
    ROOT=9 WEIGHT=    0.020833
    ROOT=10 WEIGHT=    0.020833
    ROOT=11 WEIGHT=    0.020833
    ROOT=12 WEIGHT=    0.020833
    ROOT=13 WEIGHT=    0.020833
    ROOT=14 WEIGHT=    0.020833
    ROOT=15 WEIGHT=    0.020833
    ROOT=16 WEIGHT=    0.020833
    ROOT=17 WEIGHT=    0.020833
    ROOT=18 WEIGHT=    0.020833
    ROOT=19 WEIGHT=    0.020833
    ROOT=20 WEIGHT=    0.020833
    ROOT=21 WEIGHT=    0.020833
    ROOT=22 WEIGHT=    0.020833
    ROOT=23 WEIGHT=    0.020833

  PrintLevel                        ...    1
  N(GuessMat)                       ...       512
  MaxDim(CI)                        ...        10
  MaxIter(CI)                       ...        64
  Energy Tolerance CI               ...  1.00e-08
  Residual Tolerance CI             ...  1.00e-08
  Shift(CI)                         ...  1.00e-04

INTEGRAL-TRANSFORMATION-STEP:
  Algorithm                         ... RI-MO

ORBITAL-IMPROVEMENT-STEP:
  Algorithm                         ... SuperCI(PT)
  Default Parametrization           ... CAYLEY
  Act-Act rotations                 ... depends on algorithm used

  Note: SuperCI(PT) will ignore FreezeIE, FreezeAct and FreezeGrad. In general Default settings are encouraged.
        In conjunction with ShiftUp, ShiftDn or GradScaling the performance of SuperCI(PT) is less optimal.  

  MaxRot                            ... 2.00e-01 
  Max. no of vectors (DIIS)         ... 15
  DThresh (cut-off) metric          ... 1.00e-06
  Switch step at gradient           ...  3.00e-02 
  Switch step at iteration          ...        50   
  Switch step to                    ... SuperCI(PT)    

SCF-SETTINGS:
  Incremental                       ... off
  RIJCOSX approximation             ... on
  UseFinalGrid                      ... on
  RI-JK approximation               ... off
  AO integral handling              ... DIRECT
  Integral Neglect Thresh           ...  1.00e-10
  Primitive cutoff TCut             ...  1.00e-11
  Energy convergence tolerance      ...  1.00e-07
  Orbital gradient convergence      ...  1.00e-03
  Max. number of iterations         ...        75  

PT2-SETTINGS:
  A PT2 calculation will be performed on top of the CASSCF wave function (PT2 = SC-NEVPT2)   
 CI step strategy                   ... General CI
  D4C handling                      ... on the fly 
  CI truncation for D4C at          ...  1.00e-14
  CI truncation for D3  at          ...  1.00e-14
  Orbitals                          ... canonical for each state 
  Last  frozen  orbital             ... 4
  First deleted orbital             ... 605
  RI Step                           ... store IJV(array) (MC_ONDISK during integral transformation) 

PROPERTIES-SETTINGS:
  Spin orbit coupling               ... true
  GTensor                           ... true
  QDPT diagonal energies            ... NEVPT2 energies 

FINAL ORBITALS:
  Active   Orbitals                 ... natural 
  Internal Orbitals                 ... canonical 
  External Orbitals                 ... canonical 

------------------
CAS-SCF ITERATIONS
------------------


MACRO-ITERATION   1: 
   --- Inactive Energy E0 = -3026.54906082 Eh
CI-ITERATION   0: 
 -3037.269021890   0.000000000000 (    0.00)
   CI-PROBLEM SOLVED
   DENSITIES MADE
CI-ITERATION   0: 
 -3037.132024516   0.000000000000 (    0.00)
 -3037.132013240   0.000000000000
 -3037.131528279   0.000000000000
 -3037.131498359   0.000000000000
 -3037.131176948   0.000000000000
 -3037.131160488   0.000000000000
 -3037.130876937   0.000000000000
 -3037.130514921   0.000000000000
 -3037.130105237   0.000000000000
 -3037.112306446   0.000000000000
 -3037.111976241   0.000000000000
 -3037.109563968   0.000000000000
 -3037.098307474   0.000000000000
 -3037.098101165   0.000000000000
 -3037.096863513   0.000000000000
 -3037.093786621   0.000000000000
 -3037.093399668   0.000000000000
 -3037.036334735   0.000000000000
 -3037.035616985   0.000000000000
 -3037.035607450   0.000000000000
 -3037.034976479   0.000000000000
 -3037.034643092   0.000000000000
 -3037.033056984   0.000000000000
 -3037.032750823   0.000000000000
   CI-PROBLEM SOLVED
   DENSITIES MADE

                 <<<<<<<<<<<<<<<<<<INITIAL CI STATE CHECK>>>>>>>>>>>>>>>>>>

BLOCK  1 MULT= 6 NROOTS= 1 
ROOT   0:  E=   -3037.2690218898 Eh
      1.00000 [     0]: 11111

BLOCK  2 MULT= 4 NROOTS=24 
ROOT   0:  E=   -3037.1320245160 Eh
      0.17284 [    10]: 11111
      0.10548 [    20]: 01112
      0.09018 [    16]: 10112
      0.08164 [     3]: 20111
      0.08071 [    17]: 02111
      0.07867 [    13]: 11012
      0.05348 [     7]: 11210
      0.05194 [     6]: 12011
      0.05114 [     4]: 12110
      0.04761 [     0]: 21110
      0.04635 [    14]: 10211
      0.03620 [    11]: 11102
      0.02852 [     2]: 21011
      0.02514 [    12]: 11021
      0.01190 [    15]: 10121
      0.01042 [    19]: 01121
      0.00968 [     9]: 11120
      0.00850 [     8]: 11201
      0.00527 [    18]: 01211
      0.00318 [     5]: 12101
ROOT   1:  E=   -3037.1320132395 Eh  0.000 eV      2.5 cm**-1
      0.22164 [    16]: 10112
      0.12794 [    15]: 10121
      0.10760 [     4]: 12110
      0.07928 [    10]: 11111
      0.06381 [    11]: 11102
      0.06144 [     5]: 12101
      0.05502 [    14]: 10211
      0.05374 [     9]: 11120
      0.05195 [    18]: 01211
      0.03978 [     2]: 21011
      0.03071 [     6]: 12011
      0.02804 [    12]: 11021
      0.02211 [     1]: 21101
      0.02053 [     8]: 11201
      0.01377 [    19]: 01121
      0.01248 [    13]: 11012
      0.00397 [    17]: 02111
      0.00377 [     3]: 20111
ROOT   2:  E=   -3037.1315282793 Eh  0.014 eV    108.9 cm**-1
      0.17007 [    10]: 11111
      0.14880 [     3]: 20111
      0.14449 [    14]: 10211
      0.11034 [     9]: 11120
      0.10410 [    11]: 11102
      0.07691 [    17]: 02111
      0.07328 [     6]: 12011
      0.04510 [     2]: 21011
      0.03964 [    18]: 01211
      0.02124 [     7]: 11210
      0.02073 [    20]: 01112
      0.02014 [    13]: 11012
      0.01573 [     0]: 21110
      0.00402 [    16]: 10112
      0.00305 [     4]: 12110
ROOT   3:  E=   -3037.1314983591 Eh  0.014 eV    115.5 cm**-1
      0.52793 [    10]: 11111
      0.12678 [     8]: 11201
      0.08516 [    12]: 11021
      0.04379 [    20]: 01112
      0.03888 [     0]: 21110
      0.03634 [     5]: 12101
      0.03241 [    15]: 10121
      0.02481 [    11]: 11102
      0.02162 [    16]: 10112
      0.01877 [     4]: 12110
      0.01408 [     9]: 11120
      0.00712 [     1]: 21101
      0.00634 [    14]: 10211
      0.00528 [     2]: 21011
      0.00340 [     3]: 20111
      0.00280 [    13]: 11012
ROOT   4:  E=   -3037.1311769475 Eh  0.023 eV    186.0 cm**-1
      0.27081 [    15]: 10121
      0.22864 [     5]: 12101
      0.08178 [    14]: 10211
      0.07799 [     6]: 12011
      0.07569 [     3]: 20111
      0.07346 [    17]: 02111
      0.05266 [    16]: 10112
      0.04199 [     4]: 12110
      0.02499 [     8]: 11201
      0.01834 [    10]: 11111
      0.01799 [    12]: 11021
      0.01675 [     0]: 21110
      0.01540 [    20]: 01112
ROOT   5:  E=   -3037.1311604879 Eh  0.024 eV    189.6 cm**-1
      0.70651 [    10]: 11111
      0.05228 [    19]: 01121
      0.04645 [     1]: 21101
      0.04358 [    12]: 11021
      0.03342 [     8]: 11201
      0.02921 [     7]: 11210
      0.02882 [    13]: 11012
      0.01713 [    20]: 01112
      0.01148 [     0]: 21110
      0.00817 [    11]: 11102
      0.00686 [     9]: 11120
      0.00463 [    14]: 10211
ROOT   6:  E=   -3037.1308769372 Eh  0.031 eV    251.9 cm**-1
      0.40666 [    10]: 11111
      0.11178 [     8]: 11201
      0.11066 [     0]: 21110
      0.06994 [    20]: 01112
      0.06932 [    12]: 11021
      0.04561 [     1]: 21101
      0.03323 [     7]: 11210
      0.02723 [    18]: 01211
      0.02710 [     5]: 12101
      0.02083 [    19]: 01121
      0.01939 [    15]: 10121
      0.01382 [    13]: 11012
      0.01261 [     9]: 11120
      0.01139 [    11]: 11102
      0.01086 [     4]: 12110
      0.00770 [    16]: 10112
ROOT   7:  E=   -3037.1305149208 Eh  0.041 eV    331.3 cm**-1
      0.14441 [    20]: 01112
      0.13384 [     0]: 21110
      0.13264 [    10]: 11111
      0.13066 [     7]: 11210
      0.10374 [    13]: 11012
      0.08574 [     1]: 21101
      0.05778 [    19]: 01121
      0.04956 [    12]: 11021
      0.03608 [     8]: 11201
      0.02481 [    16]: 10112
      0.02011 [     2]: 21011
      0.01994 [    18]: 01211
      0.01751 [    11]: 11102
      0.01426 [     9]: 11120
      0.01171 [     4]: 12110
      0.00873 [    15]: 10121
      0.00416 [     5]: 12101
      0.00259 [     3]: 20111
ROOT   8:  E=   -3037.1301052375 Eh  0.052 eV    421.2 cm**-1
      0.33096 [    10]: 11111
      0.21590 [    18]: 01211
      0.21526 [     2]: 21011
      0.05386 [     1]: 21101
      0.05199 [    19]: 01121
      0.03652 [     8]: 11201
      0.03482 [    12]: 11021
      0.02222 [     0]: 21110
      0.02106 [    20]: 01112
      0.00626 [     9]: 11120
      0.00596 [    11]: 11102
ROOT   9:  E=   -3037.1123064458 Eh  0.537 eV   4327.6 cm**-1
      0.20848 [     0]: 21110
      0.20474 [     8]: 11201
      0.15246 [    16]: 10112
      0.06570 [     7]: 11210
      0.05556 [    15]: 10121
      0.05506 [    20]: 01112
      0.05442 [     2]: 21011
      0.05180 [    12]: 11021
      0.04544 [    11]: 11102
      0.03798 [    10]: 11111
      0.02880 [     4]: 12110
      0.01098 [     5]: 12101
      0.00998 [    14]: 10211
      0.00620 [    13]: 11012
      0.00617 [     6]: 12011
      0.00403 [     9]: 11120
ROOT  10:  E=   -3037.1119762412 Eh  0.546 eV   4400.1 cm**-1
      0.13557 [     2]: 21011
      0.12103 [    18]: 01211
      0.11327 [    20]: 01112
      0.09651 [     3]: 20111
      0.08630 [    11]: 11102
      0.06942 [     8]: 11201
      0.06647 [    14]: 10211
      0.06059 [    12]: 11021
      0.05937 [     0]: 21110
      0.05534 [    15]: 10121
      0.05050 [    16]: 10112
      0.04151 [    10]: 11111
      0.01718 [     7]: 11210
      0.01246 [     9]: 11120
      0.00773 [     1]: 21101
      0.00272 [     5]: 12101
ROOT  11:  E=   -3037.1095639678 Eh  0.611 eV   4929.5 cm**-1
      0.23825 [     5]: 12101
      0.20400 [    15]: 10121
      0.07172 [    14]: 10211
      0.06855 [     3]: 20111
      0.06219 [     6]: 12011
      0.05641 [    17]: 02111
      0.05179 [     4]: 12110
      0.04517 [     0]: 21110
      0.04052 [     7]: 11210
      0.03798 [    16]: 10112
      0.02641 [    13]: 11012
      0.02001 [    11]: 11102
      0.01836 [     1]: 21101
      0.01795 [    20]: 01112
      0.01655 [     9]: 11120
      0.01486 [    19]: 01121
      0.00713 [     8]: 11201
ROOT  12:  E=   -3037.0983074737 Eh  0.917 eV   7400.0 cm**-1
      0.19478 [    14]: 10211
      0.17905 [     3]: 20111
      0.11361 [    11]: 11102
      0.11241 [     9]: 11120
      0.09917 [    10]: 11111
      0.06732 [     6]: 12011
      0.06483 [    17]: 02111
      0.03631 [    13]: 11012
      0.03560 [     7]: 11210
      0.02456 [     2]: 21011
      0.02407 [    18]: 01211
      0.01184 [    16]: 10112
      0.01098 [     0]: 21110
      0.00948 [    20]: 01112
      0.00721 [     4]: 12110
ROOT  13:  E=   -3037.0981011646 Eh  0.923 eV   7445.3 cm**-1
      0.40241 [    10]: 11111
      0.22400 [     1]: 21101
      0.14167 [    19]: 01121
      0.07248 [     7]: 11210
      0.05736 [    13]: 11012
      0.02932 [     8]: 11201
      0.02804 [    18]: 01211
      0.01353 [    20]: 01112
      0.01161 [    11]: 11102
      0.00498 [     5]: 12101
      0.00402 [     9]: 11120
      0.00313 [     0]: 21110
      0.00282 [    15]: 10121
ROOT  14:  E=   -3037.0968635131 Eh  0.957 eV   7716.9 cm**-1
      0.49055 [    10]: 11111
      0.06967 [    19]: 01121
      0.06826 [    12]: 11021
      0.06471 [     1]: 21101
      0.06185 [     8]: 11201
      0.06102 [    18]: 01211
      0.05933 [     2]: 21011
      0.03207 [    13]: 11012
      0.03123 [     7]: 11210
      0.01703 [    20]: 01112
      0.01420 [     0]: 21110
      0.01125 [    11]: 11102
      0.01037 [     9]: 11120
ROOT  15:  E=   -3037.0937866213 Eh  1.041 eV   8392.2 cm**-1
      0.22003 [    10]: 11111
      0.09557 [    17]: 02111
      0.09161 [    13]: 11012
      0.06696 [     6]: 12011
      0.05854 [     9]: 11120
      0.05320 [    18]: 01211
      0.04978 [     0]: 21110
      0.04643 [     3]: 20111
      0.04451 [     2]: 21011
      0.04178 [     5]: 12101
      0.04111 [     4]: 12110
      0.03751 [     7]: 11210
      0.03397 [    14]: 10211
      0.02944 [    12]: 11021
      0.02677 [    19]: 01121
      0.01717 [    16]: 10112
      0.01611 [    11]: 11102
      0.01410 [    15]: 10121
      0.00659 [     8]: 11201
      0.00616 [    20]: 01112
      0.00267 [     1]: 21101
ROOT  16:  E=   -3037.0933996675 Eh  1.051 eV   8477.2 cm**-1
      0.18175 [     4]: 12110
      0.13277 [    10]: 11111
      0.12884 [    20]: 01112
      0.11723 [    12]: 11021
      0.07757 [    13]: 11012
      0.07443 [     9]: 11120
      0.07107 [    18]: 01211
      0.06880 [     5]: 12101
      0.04590 [    16]: 10112
      0.04184 [    11]: 11102
      0.01887 [     2]: 21011
      0.01765 [    15]: 10121
      0.01723 [     6]: 12011
      0.00372 [    14]: 10211
ROOT  17:  E=   -3037.0363347348 Eh  2.604 eV  21001.5 cm**-1
      0.15043 [    17]: 02111
      0.11951 [     6]: 12011
      0.11491 [     3]: 20111
      0.10972 [     0]: 21110
      0.09291 [    14]: 10211
      0.08872 [    20]: 01112
      0.08155 [     7]: 11210
      0.06469 [    13]: 11012
      0.03688 [     1]: 21101
      0.03076 [    19]: 01121
      0.02852 [     8]: 11201
      0.02299 [    12]: 11021
      0.02131 [     4]: 12110
      0.01403 [    11]: 11102
      0.01085 [    16]: 10112
      0.01020 [     9]: 11120
ROOT  18:  E=   -3037.0356169848 Eh  2.623 eV  21159.0 cm**-1
      0.18526 [    19]: 01121
      0.17227 [     1]: 21101
      0.14258 [     5]: 12101
      0.09653 [    15]: 10121
      0.08203 [     9]: 11120
      0.05684 [    11]: 11102
      0.05121 [    12]: 11021
      0.05000 [     8]: 11201
      0.03369 [     6]: 12011
      0.02434 [    17]: 02111
      0.01843 [    14]: 10211
      0.01353 [     3]: 20111
      0.01277 [     7]: 11210
      0.01240 [     4]: 12110
      0.01192 [     2]: 21011
      0.01134 [    13]: 11012
      0.00680 [    16]: 10112
      0.00583 [     0]: 21110
      0.00571 [    20]: 01112
      0.00387 [    18]: 01211
      0.00264 [    10]: 11111
ROOT  19:  E=   -3037.0356074499 Eh  2.624 eV  21161.1 cm**-1
      0.18025 [     4]: 12110
      0.13877 [     7]: 11210
      0.13293 [    13]: 11012
      0.11780 [    16]: 10112
      0.04675 [    11]: 11102
      0.04400 [     0]: 21110
      0.04153 [     5]: 12101
      0.03629 [    20]: 01112
      0.03623 [    17]: 02111
      0.03509 [     9]: 11120
      0.03257 [    15]: 10121
      0.03219 [    12]: 11021
      0.02689 [     8]: 11201
      0.02608 [    18]: 01211
      0.01913 [     2]: 21011
      0.01883 [     3]: 20111
      0.01233 [     6]: 12011
      0.00928 [    19]: 01121
      0.00613 [     1]: 21101
      0.00568 [    14]: 10211
ROOT  20:  E=   -3037.0349764792 Eh  2.641 eV  21299.6 cm**-1
      0.21546 [     4]: 12110
      0.12843 [    13]: 11012
      0.12180 [     7]: 11210
      0.11750 [    16]: 10112
      0.09331 [    19]: 01121
      0.08150 [     5]: 12101
      0.08125 [     1]: 21101
      0.04399 [    15]: 10121
      0.03681 [    20]: 01112
      0.03357 [     0]: 21110
      0.01123 [     2]: 21011
      0.00899 [     6]: 12011
      0.00533 [    18]: 01211
      0.00468 [    14]: 10211
      0.00443 [     8]: 11201
      0.00408 [    12]: 11021
      0.00363 [    17]: 02111
ROOT  21:  E=   -3037.0346430923 Eh  2.650 eV  21372.8 cm**-1
      0.33509 [     9]: 11120
      0.25435 [    11]: 11102
      0.10675 [     2]: 21011
      0.09188 [    18]: 01211
      0.05100 [     7]: 11210
      0.04844 [     1]: 21101
      0.03571 [    19]: 01121
      0.02596 [    13]: 11012
      0.01365 [     8]: 11201
      0.01168 [    12]: 11021
      0.00749 [    10]: 11111
      0.00501 [    17]: 02111
      0.00467 [     6]: 12011
ROOT  22:  E=   -3037.0330569841 Eh  2.693 eV  21720.9 cm**-1
      0.36107 [     6]: 12011
      0.32392 [    17]: 02111
      0.15487 [    14]: 10211
      0.13935 [     3]: 20111
      0.00986 [     4]: 12110
      0.00424 [    16]: 10112
ROOT  23:  E=   -3037.0327508232 Eh  2.701 eV  21788.1 cm**-1
      0.19338 [    12]: 11021
      0.18075 [    19]: 01121
      0.15563 [     2]: 21011
      0.14609 [    18]: 01211
      0.09712 [     8]: 11201
      0.07110 [     1]: 21101
      0.04308 [    13]: 11012
      0.03099 [    20]: 01112
      0.01978 [     7]: 11210
      0.01688 [     0]: 21110
      0.01614 [    10]: 11111
      0.01577 [     9]: 11120
      0.00922 [    11]: 11102

                 <<<<<<<<<<<<<<<<<<INITIAL CI STATE CHECK>>>>>>>>>>>>>>>>>>

   E(CAS)= -3037.181139915 Eh DE=    0.000000e+00
   --- Energy gap subspaces: Ext-Act = 0.113   Act-Int = 0.059
   N(occ)=  1.00000 1.00000 1.00000 1.00000 1.00000
   ||g|| =     4.518246e-04 Max(G)=   -5.535644e-05 Rot=522,19
                     ---- THE CAS-SCF GRADIENT HAS CONVERGED ----
                            --- FINALIZING ORBITALS ---
                    ---- DOING ONE FINAL ITERATION FOR PRINTING ----
   --- Forming Natural Orbitals
   --- Canonicalize Internal Space
   --- Canonicalize External Space

MACRO-ITERATION   2: 
   --- Inactive Energy E0 = -3026.54906082 Eh
   --- All densities will be recomputed
CI-ITERATION   0: 
 -3037.269021888   0.000000000000 (    0.00)
   CI-PROBLEM SOLVED
   DENSITIES MADE
CI-ITERATION   0: 
 -3037.132024515   0.000000000000 (    0.00)
 -3037.132013238   0.000000000000
 -3037.131528278   0.000000000000
 -3037.131498358   0.000000000000
 -3037.131176946   0.000000000000
 -3037.131160487   0.000000000000
 -3037.130876936   0.000000000000
 -3037.130514920   0.000000000000
 -3037.130105236   0.000000000000
 -3037.112306445   0.000000000000
 -3037.111976240   0.000000000000
 -3037.109563967   0.000000000000
 -3037.098307472   0.000000000000
 -3037.098101163   0.000000000000
 -3037.096863512   0.000000000000
 -3037.093786620   0.000000000000
 -3037.093399666   0.000000000000
 -3037.036334734   0.000000000000
 -3037.035616984   0.000000000000
 -3037.035607449   0.000000000000
 -3037.034976478   0.000000000000
 -3037.034643091   0.000000000000
 -3037.033056983   0.000000000000
 -3037.032750822   0.000000000000
   CI-PROBLEM SOLVED
   DENSITIES MADE
   E(CAS)= -3037.181139914 Eh DE=    1.266471e-09
   --- Energy gap subspaces: Ext-Act = 0.117   Act-Int = 0.059
   N(occ)=  1.00000 1.00000 1.00000 1.00000 1.00000
   ||g|| =     4.518246e-04 Max(G)=    5.535644e-05 Rot=522,19
--------------
CASSCF RESULTS
--------------

Final CASSCF energy       : -3037.181139914 Eh  -82645.9005 eV

----------------
ORBITAL ENERGIES
----------------

  NO   OCC          E(Eh)            E(eV) 
   0   2.0000    -240.568977     -6546.2147 
   1   2.0000     -29.142066      -792.9959 
   2   2.0000     -24.847839      -676.1441 
   3   2.0000     -24.846750      -676.1144 
   4   2.0000     -24.846713      -676.1134 
   5   2.0000      -4.719747      -128.4308 
   6   2.0000      -4.719588      -128.4265 
   7   2.0000      -4.719484      -128.4237 
   8   2.0000      -4.716956      -128.3549 
   9   2.0000      -4.716825      -128.3513 
  10   2.0000      -4.715623      -128.3186 
  11   2.0000      -4.712768      -128.2409 
  12   2.0000      -4.712686      -128.2387 
  13   2.0000      -4.709441      -128.1504 
  14   2.0000      -4.709308      -128.1468 
  15   2.0000      -4.709252      -128.1453 
  16   2.0000      -4.707709      -128.1033 
  17   2.0000      -4.707603      -128.1004 
  18   2.0000      -4.706914      -128.0816 
  19   2.0000      -3.846818      -104.6772 
  20   2.0000      -2.760504       -75.1171 
  21   2.0000      -2.759777       -75.0973 
  22   2.0000      -2.759217       -75.0821 
  23   2.0000      -2.758656       -75.0669 
  24   2.0000      -2.757470       -75.0346 
  25   2.0000      -2.757221       -75.0278 
  26   2.0000      -2.756219       -75.0005 
  27   2.0000      -2.755116       -74.9705 
  28   2.0000      -2.754195       -74.9455 
  29   2.0000      -2.754103       -74.9430 
  30   2.0000      -2.753338       -74.9221 
  31   2.0000      -2.752667       -74.9039 
  32   2.0000      -2.752001       -74.8857 
  33   2.0000      -2.751947       -74.8843 
  34   2.0000      -2.750829       -74.8539 
  35   2.0000      -2.750717       -74.8508 
  36   2.0000      -2.750452       -74.8436 
  37   2.0000      -2.750210       -74.8370 
  38   2.0000      -2.749776       -74.8252 
  39   2.0000      -2.748717       -74.7964 
  40   2.0000      -2.748326       -74.7858 
  41   2.0000      -2.747694       -74.7685 
  42   2.0000      -2.746952       -74.7484 
  43   2.0000      -2.746502       -74.7361 
  44   2.0000      -2.746318       -74.7311 
  45   2.0000      -2.745591       -74.7113 
  46   2.0000      -2.745404       -74.7062 
  47   2.0000      -2.744809       -74.6901 
  48   2.0000      -2.744265       -74.6752 
  49   2.0000      -2.743822       -74.6632 
  50   2.0000      -2.743666       -74.6589 
  51   2.0000      -2.743351       -74.6504 
  52   2.0000      -2.742754       -74.6341 
  53   2.0000      -2.742487       -74.6269 
  54   2.0000      -2.742296       -74.6217 
  55   2.0000      -2.742183       -74.6186 
  56   2.0000      -2.742133       -74.6172 
  57   2.0000      -2.741727       -74.6062 
  58   2.0000      -2.740994       -74.5862 
  59   2.0000      -2.740673       -74.5775 
  60   2.0000      -2.739141       -74.5358 
  61   2.0000      -2.738206       -74.5104 
  62   2.0000      -2.515680       -68.4551 
  63   2.0000      -2.514931       -68.4347 
  64   2.0000      -2.514730       -68.4293 
  65   2.0000      -0.573055       -15.5936 
  66   2.0000      -0.560199       -15.2438 
  67   2.0000      -0.554945       -15.1008 
  68   2.0000      -0.553043       -15.0491 
  69   2.0000      -0.551075       -14.9955 
  70   2.0000      -0.550426       -14.9778 
  71   2.0000      -0.549089       -14.9415 
  72   2.0000      -0.548336       -14.9210 
  73   2.0000      -0.543115       -14.7789 
  74   2.0000      -0.542009       -14.7488 
  75   2.0000      -0.541230       -14.7276 
  76   2.0000      -0.538468       -14.6525 
  77   2.0000      -0.537396       -14.6233 
  78   2.0000      -0.536492       -14.5987 
  79   2.0000      -0.535667       -14.5762 
  80   2.0000      -0.530538       -14.4367 
  81   2.0000      -0.529403       -14.4058 
  82   2.0000      -0.529016       -14.3952 
  83   2.0000      -0.524879       -14.2827 
  84   2.0000      -0.524767       -14.2796 
  85   2.0000      -0.516249       -14.0478 
  86   2.0000      -0.515385       -14.0243 
  87   2.0000      -0.513163       -13.9639 
  88   2.0000      -0.510416       -13.8891 
  89   2.0000      -0.510363       -13.8877 
  90   2.0000      -0.509459       -13.8631 
  91   2.0000      -0.506725       -13.7887 
  92   2.0000      -0.505815       -13.7639 
  93   2.0000      -0.501200       -13.6383 
  94   2.0000      -0.499724       -13.5982 
  95   2.0000      -0.493802       -13.4370 
  96   2.0000      -0.487531       -13.2664 
  97   2.0000      -0.484190       -13.1755 
  98   2.0000      -0.478149       -13.0111 
  99   2.0000      -0.475983       -12.9522 
 100   2.0000      -0.470877       -12.8132 
 101   2.0000      -0.469955       -12.7881 
 102   2.0000      -0.467661       -12.7257 
 103   2.0000      -0.465002       -12.6534 
 104   2.0000      -0.463851       -12.6220 
 105   2.0000      -0.461160       -12.5488 
 106   2.0000      -0.458693       -12.4817 
 107   2.0000      -0.457461       -12.4481 
 108   2.0000      -0.457361       -12.4454 
 109   2.0000      -0.455732       -12.4011 
 110   2.0000      -0.453949       -12.3526 
 111   2.0000      -0.451306       -12.2807 
 112   2.0000      -0.449595       -12.2341 
 113   2.0000      -0.447482       -12.1766 
 114   2.0000      -0.447239       -12.1700 
 115   2.0000      -0.445257       -12.1160 
 116   2.0000      -0.443380       -12.0650 
 117   2.0000      -0.442174       -12.0322 
 118   2.0000      -0.439997       -11.9729 
 119   2.0000      -0.439041       -11.9469 
 120   2.0000      -0.436296       -11.8722 
 121   2.0000      -0.436034       -11.8651 
 122   2.0000      -0.434117       -11.8129 
 123   2.0000      -0.433385       -11.7930 
 124   2.0000      -0.431676       -11.7465 
 125   2.0000      -0.426711       -11.6114 
 126   2.0000      -0.422492       -11.4966 
 127   2.0000      -0.421924       -11.4811 
 128   2.0000      -0.420371       -11.4389 
 129   2.0000      -0.419922       -11.4267 
 130   2.0000      -0.415072       -11.2947 
 131   2.0000      -0.411971       -11.2103 
 132   2.0000      -0.411649       -11.2015 
 133   2.0000      -0.403932       -10.9916 
 134   2.0000      -0.395302       -10.7567 
 135   2.0000      -0.384852       -10.4724 
 136   2.0000      -0.370282       -10.0759 
 137   2.0000      -0.363786        -9.8991 
 138   2.0000      -0.352193        -9.5837 
 139   2.0000      -0.253399        -6.8953 
 140   2.0000      -0.250691        -6.8217 
 141   2.0000      -0.235188        -6.3998 
 142   2.0000      -0.226903        -6.1743 
 143   1.0000      -0.161779        -4.4022 
 144   1.0000      -0.166984        -4.5439 
 145   1.0000      -0.167466        -4.5570 
 146   1.0000      -0.163425        -4.4470 
 147   1.0000      -0.160742        -4.3740 
 148   0.0000      -0.043606        -1.1866 
 149   0.0000      -0.016332        -0.4444 
 150   0.0000      -0.012054        -0.3280 
 151   0.0000      -0.004856        -0.1321 
 152   0.0000       0.013851         0.3769 
 153   0.0000       0.017114         0.4657 
 154   0.0000       0.032226         0.8769 
 155   0.0000       0.033765         0.9188 
 156   0.0000       0.042213         1.1487 
 157   0.0000       0.050721         1.3802 
 158   0.0000       0.052378         1.4253 
 159   0.0000       0.057536         1.5656 
 160   0.0000       0.071060         1.9336 
 161   0.0000       0.078021         2.1231 
 162   0.0000       0.094048         2.5592 
 163   0.0000       0.095137         2.5888 
 164   0.0000       0.106817         2.9066 
 165   0.0000       0.114196         3.1074 
 166   0.0000       0.118045         3.2122 
 167   0.0000       0.118520         3.2251 
 168   0.0000       0.119236         3.2446 
 169   0.0000       0.127517         3.4699 
 170   0.0000       0.131225         3.5708 
 171   0.0000       0.137986         3.7548 
 172   0.0000       0.139138         3.7861 
 173   0.0000       0.143674         3.9096 
 174   0.0000       0.145005         3.9458 
 175   0.0000       0.147240         4.0066 
 176   0.0000       0.152239         4.1426 
 177   0.0000       0.154994         4.2176 
 178   0.0000       0.157335         4.2813 
 179   0.0000       0.158079         4.3016 
 180   0.0000       0.177455         4.8288 
 181   0.0000       0.178707         4.8629 
 182   0.0000       0.185094         5.0367 
 183   0.0000       0.185971         5.0605 
 184   0.0000       0.190383         5.1806 
 185   0.0000       0.192787         5.2460 
 186   0.0000       0.195533         5.3207 
 187   0.0000       0.200081         5.4445 
 188   0.0000       0.206239         5.6120 
 189   0.0000       0.206534         5.6201 
 190   0.0000       0.219868         5.9829 
 191   0.0000       0.227062         6.1787 
 192   0.0000       0.230749         6.2790 
 193   0.0000       0.233285         6.3480 
 194   0.0000       0.233742         6.3605 
 195   0.0000       0.246237         6.7004 
 196   0.0000       0.253716         6.9040 
 197   0.0000       0.262807         7.1513 
 198   0.0000       0.277120         7.5408 
 199   0.0000       0.280181         7.6241 
 200   0.0000       0.295820         8.0497 
 201   0.0000       0.297780         8.1030 
 202   0.0000       0.300189         8.1686 
 203   0.0000       0.306286         8.3345 
 204   0.0000       0.317664         8.6441 
 205   0.0000       0.342467         9.3190 
 206   0.0000       0.363764         9.8985 
 207   0.0000       0.368058        10.0154 
 208   0.0000       0.370060        10.0698 
 209   0.0000       0.373878        10.1737 
 210   0.0000       0.375503        10.2180 
 211   0.0000       0.381202        10.3730 
 212   0.0000       0.386651        10.5213 
 213   0.0000       0.389571        10.6008 
 214   0.0000       0.394049        10.7226 
 215   0.0000       0.404487        11.0067 
 216   0.0000       0.412193        11.2163 
 217   0.0000       0.425491        11.5782 
 218   0.0000       0.425943        11.5905 
 219   0.0000       0.427703        11.6384 
 220   0.0000       0.433196        11.7879 
 221   0.0000       0.438736        11.9386 
 222   0.0000       0.440720        11.9926 
 223   0.0000       0.454618        12.3708 
 224   0.0000       0.460700        12.5363 
 225   0.0000       0.463392        12.6095 
 226   0.0000       0.464742        12.6463 
 227   0.0000       0.474143        12.9021 
 228   0.0000       0.480199        13.0669 
 229   0.0000       0.485130        13.2010 
 230   0.0000       0.486912        13.2496 
 231   0.0000       0.492621        13.4049 
 232   0.0000       0.496451        13.5091 
 233   0.0000       0.497618        13.5409 
 234   0.0000       0.507687        13.8149 
 235   0.0000       0.508899        13.8478 
 236   0.0000       0.512076        13.9343 
 237   0.0000       0.518614        14.1122 
 238   0.0000       0.521956        14.2032 
 239   0.0000       0.527563        14.3557 
 240   0.0000       0.529945        14.4205 
 241   0.0000       0.540698        14.7131 
 242   0.0000       0.540946        14.7199 
 243   0.0000       0.545815        14.8524 
 244   0.0000       0.546402        14.8684 
 245   0.0000       0.550805        14.9882 
 246   0.0000       0.553478        15.0609 
 247   0.0000       0.556871        15.1532 
 248   0.0000       0.565383        15.3849 
 249   0.0000       0.565617        15.3912 
 250   0.0000       0.574331        15.6283 
 251   0.0000       0.578374        15.7384 
 252   0.0000       0.586882        15.9699 
 253   0.0000       0.594621        16.1805 
 254   0.0000       0.595427        16.2024 
 255   0.0000       0.601745        16.3743 
 256   0.0000       0.602682        16.3998 
 257   0.0000       0.604532        16.4501 
 258   0.0000       0.624406        16.9909 
 259   0.0000       0.625936        17.0326 
 260   0.0000       0.631537        17.1850 
 261   0.0000       0.635978        17.3058 
 262   0.0000       0.638805        17.3828 
 263   0.0000       0.645751        17.5718 
 264   0.0000       0.652253        17.7487 
 265   0.0000       0.659380        17.9426 
 266   0.0000       0.660660        17.9775 
 267   0.0000       0.661791        18.0082 
 268   0.0000       0.671250        18.2656 
 269   0.0000       0.672008        18.2863 
 270   0.0000       0.679791        18.4981 
 271   0.0000       0.682643        18.5757 
 272   0.0000       0.686561        18.6823 
 273   0.0000       0.690593        18.7920 
 274   0.0000       0.700739        19.0681 
 275   0.0000       0.702833        19.1250 
 276   0.0000       0.704345        19.1662 
 277   0.0000       0.707601        19.2548 
 278   0.0000       0.716728        19.5032 
 279   0.0000       0.718166        19.5423 
 280   0.0000       0.726324        19.7643 
 281   0.0000       0.727468        19.7954 
 282   0.0000       0.730543        19.8791 
 283   0.0000       0.741296        20.1717 
 284   0.0000       0.749571        20.3969 
 285   0.0000       0.754779        20.5386 
 286   0.0000       0.757027        20.5998 
 287   0.0000       0.764957        20.8155 
 288   0.0000       0.774039        21.0627 
 289   0.0000       0.774747        21.0819 
 290   0.0000       0.850637        23.1470 
 291   0.0000       0.880936        23.9715 
 292   0.0000       0.913814        24.8661 
 293   0.0000       0.928562        25.2675 
 294   0.0000       0.935827        25.4651 
 295   0.0000       0.940576        25.5944 
 296   0.0000       0.964977        26.2584 
 297   0.0000       0.974507        26.5177 
 298   0.0000       0.982869        26.7452 
 299   0.0000       0.989468        26.9248 
 300   0.0000       0.997298        27.1378 
 301   0.0000       1.003286        27.3008 
 302   0.0000       1.020148        27.7596 
 303   0.0000       1.025446        27.9038 
 304   0.0000       1.032958        28.1082 
 305   0.0000       1.050252        28.5788 
 306   0.0000       1.053414        28.6649 
 307   0.0000       1.056981        28.7619 
 308   0.0000       1.085864        29.5479 
 309   0.0000       1.101635        29.9770 
 310   0.0000       1.104116        30.0445 
 311   0.0000       1.109951        30.2033 
 312   0.0000       1.130092        30.7514 
 313   0.0000       1.135073        30.8869 
 314   0.0000       1.146132        31.1878 
 315   0.0000       1.159040        31.5391 
 316   0.0000       1.181403        32.1476 
 317   0.0000       1.187586        32.3159 
 318   0.0000       1.188896        32.3515 
 319   0.0000       1.197310        32.5805 
 320   0.0000       1.199079        32.6286 
 321   0.0000       1.205313        32.7982 
 322   0.0000       1.208701        32.8904 
 323   0.0000       1.217882        33.1403 
 324   0.0000       1.224443        33.3188 
 325   0.0000       1.240362        33.7520 
 326   0.0000       1.241070        33.7712 
 327   0.0000       1.253484        34.1090 
 328   0.0000       1.264783        34.4165 
 329   0.0000       1.281128        34.8613 
 330   0.0000       1.286994        35.0209 
 331   0.0000       1.315560        35.7982 
 332   0.0000       1.333588        36.2888 
 333   0.0000       1.367406        37.2090 
 334   0.0000       1.495714        40.7004 
 335   0.0000       1.528496        41.5925 
 336   0.0000       1.535498        41.7830 
 337   0.0000       1.574345        42.8401 
 338   0.0000       1.584565        43.1182 
 339   0.0000       1.584627        43.1199 
 340   0.0000       1.591863        43.3168 
 341   0.0000       1.610860        43.8337 
 342   0.0000       1.623789        44.1855 
 343   0.0000       1.625512        44.2324 
 344   0.0000       1.635907        44.5153 
 345   0.0000       1.645910        44.7875 
 346   0.0000       1.650643        44.9163 
 347   0.0000       1.654631        45.0248 
 348   0.0000       1.666711        45.3535 
 349   0.0000       1.683510        45.8106 
 350   0.0000       1.688738        45.9529 
 351   0.0000       1.690499        46.0008 
 352   0.0000       1.691518        46.0286 
 353   0.0000       1.709149        46.5083 
 354   0.0000       1.716798        46.7165 
 355   0.0000       1.727007        46.9942 
 356   0.0000       1.727743        47.0143 
 357   0.0000       1.732156        47.1343 
 358   0.0000       1.740380        47.3581 
 359   0.0000       1.745692        47.5027 
 360   0.0000       1.753643        47.7190 
 361   0.0000       1.756087        47.7855 
 362   0.0000       1.769950        48.1628 
 363   0.0000       1.770468        48.1769 
 364   0.0000       1.774684        48.2916 
 365   0.0000       1.778168        48.3864 
 366   0.0000       1.779084        48.4113 
 367   0.0000       1.783872        48.5416 
 368   0.0000       1.787572        48.6423 
 369   0.0000       1.788502        48.6676 
 370   0.0000       1.793855        48.8133 
 371   0.0000       1.796039        48.8727 
 372   0.0000       1.809071        49.2273 
 373   0.0000       1.810436        49.2645 
 374   0.0000       1.814873        49.3852 
 375   0.0000       1.822596        49.5954 
 376   0.0000       1.823409        49.6175 
 377   0.0000       1.831172        49.8287 
 378   0.0000       1.835968        49.9592 
 379   0.0000       1.839860        50.0651 
 380   0.0000       1.841379        50.1065 
 381   0.0000       1.843335        50.1597 
 382   0.0000       1.846056        50.2338 
 383   0.0000       1.848865        50.3102 
 384   0.0000       1.851121        50.3716 
 385   0.0000       1.852249        50.4023 
 386   0.0000       1.858053        50.5602 
 387   0.0000       1.860599        50.6295 
 388   0.0000       1.863360        50.7046 
 389   0.0000       1.863786        50.7162 
 390   0.0000       1.865089        50.7516 
 391   0.0000       1.866919        50.8014 
 392   0.0000       1.867918        50.8286 
 393   0.0000       1.868927        50.8561 
 394   0.0000       1.871327        50.9214 
 395   0.0000       1.873064        50.9687 
 396   0.0000       1.876364        51.0584 
 397   0.0000       1.877981        51.1025 
 398   0.0000       1.878670        51.1212 
 399   0.0000       1.880635        51.1747 
 400   0.0000       1.881525        51.1989 
 401   0.0000       1.883403        51.2500 
 402   0.0000       1.884989        51.2932 
 403   0.0000       1.888188        51.3802 
 404   0.0000       1.888455        51.3875 
 405   0.0000       1.889429        51.4140 
 406   0.0000       1.889801        51.4241 
 407   0.0000       1.890897        51.4539 
 408   0.0000       1.892562        51.4992 
 409   0.0000       1.895739        51.5857 
 410   0.0000       1.896083        51.5951 
 411   0.0000       1.896845        51.6158 
 412   0.0000       1.898437        51.6591 
 413   0.0000       1.899722        51.6941 
 414   0.0000       1.901790        51.7503 
 415   0.0000       1.903642        51.8007 
 416   0.0000       1.904889        51.8347 
 417   0.0000       1.905647        51.8553 
 418   0.0000       1.907392        51.9028 
 419   0.0000       1.908059        51.9209 
 420   0.0000       1.908843        51.9422 
 421   0.0000       1.910646        51.9913 
 422   0.0000       1.913336        52.0645 
 423   0.0000       1.913956        52.0814 
 424   0.0000       1.915175        52.1145 
 425   0.0000       1.916788        52.1585 
 426   0.0000       1.918350        52.2010 
 427   0.0000       1.920950        52.2717 
 428   0.0000       1.923351        52.3370 
 429   0.0000       1.925191        52.3871 
 430   0.0000       1.925944        52.4076 
 431   0.0000       1.929962        52.5169 
 432   0.0000       1.930349        52.5275 
 433   0.0000       1.933180        52.6045 
 434   0.0000       1.934598        52.6431 
 435   0.0000       1.936149        52.6853 
 436   0.0000       1.937587        52.7244 
 437   0.0000       1.939679        52.7814 
 438   0.0000       1.941408        52.8284 
 439   0.0000       1.947214        52.9864 
 440   0.0000       1.947531        52.9950 
 441   0.0000       1.948701        53.0269 
 442   0.0000       1.950093        53.0647 
 443   0.0000       1.951630        53.1066 
 444   0.0000       1.955711        53.2176 
 445   0.0000       1.957848        53.2758 
 446   0.0000       1.958661        53.2979 
 447   0.0000       1.961275        53.3690 
 448   0.0000       1.962655        53.4065 
 449   0.0000       1.965012        53.4707 
 450   0.0000       1.966954        53.5235 
 451   0.0000       1.970010        53.6067 
 452   0.0000       1.972338        53.6700 
 453   0.0000       1.973699        53.7071 
 454   0.0000       1.975784        53.7638 
 455   0.0000       1.977990        53.8238 
 456   0.0000       1.982155        53.9372 
 457   0.0000       1.982884        53.9570 
 458   0.0000       1.984869        54.0110 
 459   0.0000       1.992071        54.2070 
 460   0.0000       1.994536        54.2741 
 461   0.0000       1.998175        54.3731 
 462   0.0000       2.000252        54.4296 
 463   0.0000       2.002220        54.4832 
 464   0.0000       2.008530        54.6549 
 465   0.0000       2.012078        54.7514 
 466   0.0000       2.012776        54.7704 
 467   0.0000       2.023329        55.0576 
 468   0.0000       2.026745        55.1505 
 469   0.0000       2.032136        55.2972 
 470   0.0000       2.036718        55.4219 
 471   0.0000       2.044460        55.6326 
 472   0.0000       2.053321        55.8737 
 473   0.0000       2.060523        56.0697 
 474   0.0000       2.070530        56.3420 
 475   0.0000       2.079594        56.5886 
 476   0.0000       2.099435        57.1285 
 477   0.0000       2.100138        57.1477 
 478   0.0000       2.107224        57.3405 
 479   0.0000       2.130900        57.9847 
 480   0.0000       2.135628        58.1134 
 481   0.0000       2.142578        58.3025 
 482   0.0000       2.166501        58.9535 
 483   0.0000       2.168043        58.9954 
 484   0.0000       2.181452        59.3603 
 485   0.0000       2.183765        59.4233 
 486   0.0000       2.194111        59.7048 
 487   0.0000       2.201698        59.9112 
 488   0.0000       2.219619        60.3989 
 489   0.0000       2.221789        60.4580 
 490   0.0000       2.225705        60.5645 
 491   0.0000       2.242208        61.0136 
 492   0.0000       2.247894        61.1683 
 493   0.0000       2.267342        61.6975 
 494   0.0000       2.271961        61.8232 
 495   0.0000       2.285676        62.1964 
 496   0.0000       2.288827        62.2821 
 497   0.0000       2.305089        62.7247 
 498   0.0000       2.309089        62.8335 
 499   0.0000       2.335505        63.5523 
 500   0.0000       2.355292        64.0908 
 501   0.0000       2.362568        64.2888 
 502   0.0000       2.384979        64.8986 
 503   0.0000       2.411709        65.6259 
 504   0.0000       2.509775        68.2945 
 505   0.0000       2.510679        68.3190 
 506   0.0000       2.646202        72.0068 
 507   0.0000       2.705812        73.6289 
 508   0.0000       2.714455        73.8641 
 509   0.0000       2.751487        74.8718 
 510   0.0000       2.851773        77.6007 
 511   0.0000       2.862222        77.8850 
 512   0.0000       2.875279        78.2403 
 513   0.0000       2.878892        78.3386 
 514   0.0000       2.929245        79.7088 
 515   0.0000       2.939423        79.9858 
 516   0.0000       2.967765        80.7570 
 517   0.0000       3.009266        81.8863 
 518   0.0000       3.011616        81.9502 
 519   0.0000       3.016763        82.0903 
 520   0.0000       3.025103        82.3172 
 521   0.0000       3.071334        83.5752 
 522   0.0000       3.461604        94.1950 
 523   0.0000       3.759251       102.2944 
 524   0.0000       3.761317       102.3507 
 525   0.0000       3.764595       102.4398 
 526   0.0000       3.770790       102.6084 
 527   0.0000       3.771788       102.6356 
 528   0.0000       3.780441       102.8710 
 529   0.0000       3.781573       102.9018 
 530   0.0000       3.906871       106.3114 
 531   0.0000       3.956218       107.6542 
 532   0.0000       3.959301       107.7381 
 533   0.0000       4.046221       110.1033 
 534   0.0000       4.085636       111.1758 
 535   0.0000      24.194559       658.3674 
 536   0.0000      24.368726       663.1067 
 537   0.0000      24.540355       667.7770 
 538   0.0000      24.615408       669.8193 
 539   0.0000      24.818237       675.3386 
 540   0.0000      24.977556       679.6739 
 541   0.0000      24.992392       680.0776 
 542   0.0000      25.132912       683.9013 
 543   0.0000      25.435348       692.1310 
 544   0.0000      25.536914       694.8948 
 545   0.0000      25.610768       696.9044 
 546   0.0000      25.717547       699.8100 
 547   0.0000      25.866006       703.8498 
 548   0.0000      25.993105       707.3084 
 549   0.0000      26.043362       708.6759 
 550   0.0000      26.118674       710.7252 
 551   0.0000      26.426579       719.1038 
 552   0.0000      26.470604       720.3018 
 553   0.0000      26.750220       727.9105 
 554   0.0000      26.763330       728.2672 
 555   0.0000      26.813795       729.6405 
 556   0.0000      26.887207       731.6381 
 557   0.0000      26.973797       733.9943 
 558   0.0000      27.000462       734.7199 
 559   0.0000      27.184831       739.7369 
 560   0.0000      27.293129       742.6838 
 561   0.0000      27.326431       743.5900 
 562   0.0000      27.509851       748.5811 
 563   0.0000      27.569783       750.2119 
 564   0.0000      27.667561       752.8726 
 565   0.0000      27.707918       753.9708 
 566   0.0000      27.847528       757.7698 
 567   0.0000      27.885139       758.7932 
 568   0.0000      28.048918       763.2499 
 569   0.0000      28.183471       766.9112 
 570   0.0000      28.310255       770.3612 
 571   0.0000      28.522434       776.1349 
 572   0.0000      28.610051       778.5191 
 573   0.0000      28.659631       779.8682 
 574   0.0000      29.912093       813.9494 
 575   0.0000      30.787650       837.7746 
 576   0.0000      30.898808       840.7993 
 577   0.0000      44.555873      1212.4269 
 578   0.0000      44.641628      1214.7605 
 579   0.0000      44.686794      1215.9895 
 580   0.0000      44.694775      1216.2067 
 581   0.0000      44.742011      1217.4920 
 582   0.0000      44.752784      1217.7852 
 583   0.0000      44.781321      1218.5617 
 584   0.0000      44.796742      1218.9813 
 585   0.0000      44.812003      1219.3966 
 586   0.0000      44.838817      1220.1262 
 587   0.0000      44.846624      1220.3387 
 588   0.0000      44.861253      1220.7368 
 589   0.0000      44.880428      1221.2585 
 590   0.0000      44.901218      1221.8242 
 591   0.0000     205.398467      5589.1764 
 592   0.0000     205.433313      5590.1246 
 593   0.0000     205.452157      5590.6374 
 594   0.0000     205.453605      5590.6768 
 595   0.0000     205.478776      5591.3618 
 596   0.0000     205.478874      5591.3644 
 597   0.0000     205.494077      5591.7781 
 598   0.0000     205.501934      5591.9919 
 599   0.0000     205.504735      5592.0681 
 600   0.0000     205.516330      5592.3836 
 601   0.0000     205.518172      5592.4338 
 602   0.0000     205.524808      5592.6143 
 603   0.0000     205.530035      5592.7566 
 604   0.0000     205.541034      5593.0559 


---------------------------------------------
CAS-SCF STATES FOR BLOCK  1 MULT= 6 NROOTS= 1
---------------------------------------------

ROOT   0:  E=   -3037.2690218885 Eh
      1.00000 [     0]: 11111


---------------------------------------------
CAS-SCF STATES FOR BLOCK  2 MULT= 4 NROOTS=24
---------------------------------------------

ROOT   0:  E=   -3037.1320245148 Eh
      0.23778 [    10]: 11111
      0.20028 [     5]: 12101
      0.12303 [    15]: 10121
      0.06417 [     7]: 11210
      0.05579 [    17]: 02111
      0.04054 [    13]: 11012
      0.03749 [     6]: 12011
      0.03361 [     0]: 21110
      0.03313 [     9]: 11120
      0.02785 [     8]: 11201
      0.02452 [    11]: 11102
      0.02095 [     2]: 21011
      0.01830 [     3]: 20111
      0.01696 [     4]: 12110
      0.01358 [     1]: 21101
      0.01316 [    14]: 10211
      0.01264 [    20]: 01112
      0.00944 [    12]: 11021
      0.00741 [    16]: 10112
      0.00518 [    18]: 01211
      0.00420 [    19]: 01121
ROOT   1:  E=   -3037.1320132383 Eh  0.000 eV      2.5 cm**-1
      0.22247 [    10]: 11111
      0.21716 [     4]: 12110
      0.12583 [     0]: 21110
      0.09675 [    16]: 10112
      0.06453 [    20]: 01112
      0.04011 [    17]: 02111
      0.03715 [     3]: 20111
      0.03208 [    18]: 01211
      0.03167 [     2]: 21011
      0.02787 [     5]: 12101
      0.02132 [    15]: 10121
      0.01806 [    12]: 11021
      0.01333 [     8]: 11201
      0.01295 [     6]: 12011
      0.01019 [     9]: 11120
      0.00929 [    19]: 01121
      0.00840 [    14]: 10211
      0.00442 [     7]: 11210
      0.00306 [    13]: 11012
      0.00254 [     1]: 21101
ROOT   2:  E=   -3037.1315282779 Eh  0.014 eV    108.9 cm**-1
      0.21078 [     8]: 11201
      0.18468 [    10]: 11111
      0.16659 [    12]: 11021
      0.10817 [     3]: 20111
      0.10310 [    17]: 02111
      0.06334 [     7]: 11210
      0.03033 [     9]: 11120
      0.02696 [    15]: 10121
      0.02604 [     5]: 12101
      0.01925 [    13]: 11012
      0.01206 [     6]: 12011
      0.00788 [    14]: 10211
      0.00780 [    18]: 01211
      0.00779 [     4]: 12110
      0.00736 [    16]: 10112
      0.00692 [    11]: 11102
      0.00421 [     2]: 21011
ROOT   3:  E=   -3037.1314983578 Eh  0.014 eV    115.5 cm**-1
      0.35031 [    10]: 11111
      0.15744 [    19]: 01121
      0.13350 [     1]: 21101
      0.05370 [     9]: 11120
      0.04807 [     6]: 12011
      0.04577 [    14]: 10211
      0.04481 [    18]: 01211
      0.04271 [    11]: 11102
      0.03063 [    17]: 02111
      0.02858 [     8]: 11201
      0.01894 [     3]: 20111
      0.01700 [     2]: 21011
      0.01195 [     4]: 12110
      0.00701 [    16]: 10112
      0.00339 [    13]: 11012
ROOT   4:  E=   -3037.1311769462 Eh  0.023 eV    186.0 cm**-1
      0.23589 [     0]: 21110
      0.21893 [    20]: 01112
      0.21787 [    10]: 11111
      0.05187 [     7]: 11210
      0.04909 [    13]: 11012
[...]
 3 96   44178.9    226.4   0.000000000   0.00000   0.00001   0.00000   0.00005
 3 97   44178.9    226.4   0.000000000   0.00000   0.00002   0.00003   0.00001
 3 98   44283.8    225.8   0.000000000   0.00000   0.00013   0.00002   0.00003
 3 99   44283.8    225.8   0.000000000   0.00000   0.00001   0.00000   0.00002
 3 100   44353.0    225.5   0.000000000   0.00000   0.00005   0.00003   0.00002
 3 101   44353.0    225.5   0.000000000   0.00000   0.00002   0.00001   0.00002
 4  5       0.0      0.0   0.000000000   0.00000   0.00000   0.00000   0.00000
 4  6   26217.3    381.4   0.000000003   0.00000   0.00094   0.00078   0.00036
 4  7   26217.3    381.4   0.000000002   0.00000   0.00025   0.00013   0.00082
 4  8   26236.6    381.1   0.000000000   0.00000   0.00029   0.00008   0.00010
 4  9   26236.6    381.1   0.000000000   0.00000   0.00009   0.00003   0.00014
 4 10   26258.8    380.8   0.000000000   0.00000   0.00014   0.00005   0.00006
 4 11   26258.8    380.8   0.000000000   0.00000   0.00033   0.00006   0.00006
 4 12   26278.2    380.5   0.000000008   0.00000   0.00149   0.00118   0.00026
 4 13   26278.2    380.5   0.000000000   0.00000   0.00003   0.00005   0.00025
 4 14   26412.6    378.6   0.000000002   0.00000   0.00104   0.00022   0.00025
 4 15   26412.6    378.6   0.000000000   0.00000   0.00027   0.00006   0.00007
 4 16   26439.1    378.2   0.000000000   0.00000   0.00003   0.00001   0.00007
 4 17   26439.1    378.2   0.000000000   0.00000   0.00029   0.00017   0.00006
 4 18   26465.6    377.8   0.000000001   0.00000   0.00049   0.00009   0.00012
 4 19   26465.6    377.8   0.000000000   0.00000   0.00003   0.00001   0.00016
 4 20   26491.4    377.5   0.000000006   0.00000   0.00150   0.00045   0.00045
 4 21   26491.4    377.5   0.000000001   0.00000   0.00033   0.00010   0.00055
 4 22   26627.2    375.6   0.000000000   0.00000   0.00006   0.00006   0.00004
 4 23   26627.2    375.6   0.000000000   0.00000   0.00027   0.00022   0.00005
 4 24   26629.7    375.5   0.000000000   0.00000   0.00005   0.00003   0.00023
 4 25   26629.7    375.5   0.000000001   0.00000   0.00054   0.00020   0.00010
 4 26   26643.9    375.3   0.000000000   0.00000   0.00036   0.00007   0.00007
 4 27   26643.9    375.3   0.000000000   0.00000   0.00005   0.00004   0.00015
 4 28   26645.1    375.3   0.000000000   0.00000   0.00012   0.00013   0.00012
 4 29   26645.1    375.3   0.000000000   0.00000   0.00013   0.00021   0.00007
 4 30   26653.1    375.2   0.000000000   0.00000   0.00008   0.00002   0.00046
 4 31   26653.1    375.2   0.000000009   0.00000   0.00200   0.00019   0.00046
 4 32   26656.2    375.1   0.000000000   0.00000   0.00035   0.00006   0.00006
 4 33   26656.2    375.1   0.000000000   0.00000   0.00008   0.00002   0.00013
 4 34   26842.7    372.5   0.000000000   0.00000   0.00035   0.00015   0.00010
 4 35   26842.7    372.5   0.000000000   0.00000   0.00006   0.00002   0.00006
 4 36   26843.9    372.5   0.000000009   0.00000   0.00184   0.00077   0.00051
 4 37   26843.9    372.5   0.000000000   0.00000   0.00017   0.00005   0.00022
 4 38   26995.9    370.4   0.000000003   0.00000   0.00100   0.00057   0.00033
 4 39   26995.9    370.4   0.000000000   0.00000   0.00032   0.00017   0.00022
 4 40   26998.3    370.4   0.000000000   0.00000   0.00003   0.00001   0.00004
 4 41   26998.3    370.4   0.000000000   0.00000   0.00014   0.00007   0.00005
 4 42   28258.8    353.9   0.000000000   0.00000   0.00018   0.00014   0.00005
 4 43   28258.8    353.9   0.000000000   0.00000   0.00005   0.00004   0.00002
 4 44   28391.0    352.2   0.000000000   0.00000   0.00006   0.00002   0.00001
 4 45   28391.0    352.2   0.000000000   0.00000   0.00004   0.00001   0.00002
 4 46   28587.3    349.8   0.000000000   0.00000   0.00004   0.00003   0.00001
 4 47   28587.3    349.8   0.000000000   0.00000   0.00001   0.00001   0.00000
 4 48   28782.9    347.4   0.000000001   0.00000   0.00041   0.00024   0.00009
 4 49   28782.9    347.4   0.000000000   0.00000   0.00008   0.00005   0.00000
 4 50   29338.3    340.9   0.000000000   0.00000   0.00014   0.00002   0.00004
 4 51   29338.3    340.9   0.000000000   0.00000   0.00006   0.00001   0.00000
 4 52   29384.5    340.3   0.000000000   0.00000   0.00002   0.00004   0.00001
 4 53   29384.5    340.3   0.000000000   0.00000   0.00001   0.00000   0.00001
 4 54   31317.8    319.3   0.000000000   0.00000   0.00003   0.00002   0.00010
 4 55   31317.8    319.3   0.000000000   0.00000   0.00007   0.00007   0.00004
 4 56   31365.9    318.8   0.000000000   0.00000   0.00000   0.00003   0.00001
 4 57   31365.9    318.8   0.000000000   0.00000   0.00001   0.00001   0.00002
 4 58   31444.6    318.0   0.000000000   0.00000   0.00007   0.00004   0.00004
 4 59   31444.6    318.0   0.000000000   0.00000   0.00002   0.00001   0.00006
 4 60   31452.1    317.9   0.000000000   0.00000   0.00009   0.00003   0.00024
 4 61   31452.1    317.9   0.000000000   0.00000   0.00022   0.00007   0.00015
 4 62   31907.1    313.4   0.000000000   0.00000   0.00005   0.00001   0.00002
 4 63   31907.1    313.4   0.000000000   0.00000   0.00003   0.00000   0.00005
 4 64   31947.9    313.0   0.000000000   0.00000   0.00026   0.00002   0.00009
 4 65   31947.9    313.0   0.000000000   0.00000   0.00013   0.00002   0.00028
 4 66   32798.4    304.9   0.000000000   0.00000   0.00004   0.00002   0.00003
 4 67   32798.4    304.9   0.000000000   0.00000   0.00038   0.00017   0.00008
 4 68   32950.7    303.5   0.000000000   0.00000   0.00001   0.00001   0.00003
 4 69   32950.7    303.5   0.000000000   0.00000   0.00010   0.00002   0.00002
 4 70   33125.4    301.9   0.000000000   0.00000   0.00001   0.00002   0.00001
 4 71   33125.4    301.9   0.000000000   0.00000   0.00002   0.00004   0.00001
 4 72   33243.8    300.8   0.000000000   0.00000   0.00001   0.00006   0.00001
 4 73   33243.8    300.8   0.000000000   0.00000   0.00001   0.00017   0.00002
 4 74   42838.5    233.4   0.000000000   0.00000   0.00003   0.00001   0.00001
 4 75   42838.5    233.4   0.000000000   0.00000   0.00001   0.00000   0.00000
 4 76   42839.8    233.4   0.000000000   0.00000   0.00007   0.00003   0.00002
 4 77   42839.8    233.4   0.000000000   0.00000   0.00001   0.00000   0.00000
 4 78   43073.6    232.2   0.000000000   0.00000   0.00002   0.00001   0.00001
 4 79   43073.6    232.2   0.000000000   0.00000   0.00006   0.00003   0.00002
 4 80   43095.1    232.0   0.000000000   0.00000   0.00000   0.00000   0.00000
 4 81   43095.1    232.0   0.000000000   0.00000   0.00001   0.00000   0.00000
 4 82   43116.2    231.9   0.000000000   0.00000   0.00000   0.00000   0.00000
 4 83   43116.2    231.9   0.000000000   0.00000   0.00000   0.00001   0.00000
 4 84   43135.2    231.8   0.000000000   0.00000   0.00002   0.00001   0.00002
 4 85   43135.2    231.8   0.000000000   0.00000   0.00004   0.00004   0.00002
 4 86   43362.9    230.6   0.000000000   0.00000   0.00000   0.00000   0.00001
 4 87   43362.9    230.6   0.000000000   0.00000   0.00001   0.00001   0.00000
 4 88   43398.0    230.4   0.000000000   0.00000   0.00000   0.00000   0.00000
 4 89   43398.0    230.4   0.000000000   0.00000   0.00000   0.00000   0.00001
 4 90   43494.8    229.9   0.000000000   0.00000   0.00000   0.00000   0.00001
 4 91   43494.8    229.9   0.000000000   0.00000   0.00002   0.00001   0.00000
 4 92   43540.9    229.7   0.000000000   0.00000   0.00001   0.00001   0.00008
 4 93   43540.9    229.7   0.000000000   0.00000   0.00010   0.00003   0.00003
 4 94   44098.6    226.8   0.000000000   0.00000   0.00002   0.00004   0.00003
 4 95   44098.6    226.8   0.000000000   0.00000   0.00001   0.00001   0.00005
 4 96   44178.9    226.4   0.000000000   0.00000   0.00000   0.00000   0.00001
 4 97   44178.9    226.4   0.000000000   0.00000   0.00001   0.00000   0.00000
 4 98   44283.7    225.8   0.000000000   0.00000   0.00001   0.00001   0.00000
 4 99   44283.7    225.8   0.000000000   0.00000   0.00000   0.00000   0.00001
 4 100   44352.9    225.5   0.000000000   0.00000   0.00013   0.00003   0.00003
 4 101   44352.9    225.5   0.000000000   0.00000   0.00003   0.00001   0.00003
 5  6   26217.3    381.4   0.000000002   0.00000   0.00025   0.00013   0.00082
 5  7   26217.3    381.4   0.000000003   0.00000   0.00094   0.00078   0.00036
 5  8   26236.6    381.1   0.000000000   0.00000   0.00009   0.00003   0.00014
 5  9   26236.6    381.1   0.000000000   0.00000   0.00029   0.00008   0.00010
 5 10   26258.8    380.8   0.000000000   0.00000   0.00033   0.00006   0.00006
 5 11   26258.8    380.8   0.000000000   0.00000   0.00014   0.00005   0.00006
 5 12   26278.2    380.5   0.000000000   0.00000   0.00003   0.00005   0.00025
 5 13   26278.2    380.5   0.000000008   0.00000   0.00149   0.00118   0.00026
 5 14   26412.6    378.6   0.000000000   0.00000   0.00027   0.00006   0.00007
 5 15   26412.6    378.6   0.000000002   0.00000   0.00104   0.00022   0.00025
 5 16   26439.1    378.2   0.000000000   0.00000   0.00029   0.00017   0.00006
 5 17   26439.1    378.2   0.000000000   0.00000   0.00003   0.00001   0.00007
 5 18   26465.6    377.8   0.000000000   0.00000   0.00003   0.00001   0.00016
 5 19   26465.6    377.8   0.000000001   0.00000   0.00049   0.00009   0.00012
 5 20   26491.4    377.5   0.000000001   0.00000   0.00033   0.00010   0.00055
 5 21   26491.4    377.5   0.000000006   0.00000   0.00150   0.00045   0.00045
 5 22   26627.2    375.6   0.000000000   0.00000   0.00027   0.00022   0.00005
 5 23   26627.2    375.6   0.000000000   0.00000   0.00006   0.00006   0.00004
 5 24   26629.7    375.5   0.000000001   0.00000   0.00054   0.00020   0.00010
 5 25   26629.7    375.5   0.000000000   0.00000   0.00005   0.00003   0.00023
 5 26   26643.9    375.3   0.000000000   0.00000   0.00005   0.00004   0.00015
 5 27   26643.9    375.3   0.000000000   0.00000   0.00036   0.00007   0.00007
 5 28   26645.1    375.3   0.000000000   0.00000   0.00013   0.00021   0.00007
 5 29   26645.1    375.3   0.000000000   0.00000   0.00012   0.00013   0.00012
 5 30   26653.1    375.2   0.000000009   0.00000   0.00200   0.00019   0.00046
 5 31   26653.1    375.2   0.000000000   0.00000   0.00008   0.00002   0.00046
 5 32   26656.2    375.1   0.000000000   0.00000   0.00008   0.00002   0.00013
 5 33   26656.2    375.1   0.000000000   0.00000   0.00035   0.00006   0.00006
 5 34   26842.7    372.5   0.000000000   0.00000   0.00006   0.00002   0.00006
 5 35   26842.7    372.5   0.000000000   0.00000   0.00035   0.00015   0.00010
 5 36   26843.9    372.5   0.000000000   0.00000   0.00017   0.00005   0.00022
 5 37   26843.9    372.5   0.000000009   0.00000   0.00184   0.00077   0.00051
 5 38   26995.9    370.4   0.000000000   0.00000   0.00032   0.00017   0.00022
 5 39   26995.9    370.4   0.000000003   0.00000   0.00100   0.00057   0.00033
 5 40   26998.3    370.4   0.000000000   0.00000   0.00014   0.00007   0.00005
 5 41   26998.3    370.4   0.000000000   0.00000   0.00003   0.00001   0.00004
 5 42   28258.8    353.9   0.000000000   0.00000   0.00005   0.00004   0.00002
 5 43   28258.8    353.9   0.000000000   0.00000   0.00018   0.00014   0.00005
 5 44   28391.0    352.2   0.000000000   0.00000   0.00004   0.00001   0.00002
 5 45   28391.0    352.2   0.000000000   0.00000   0.00006   0.00002   0.00001
 5 46   28587.3    349.8   0.000000000   0.00000   0.00001   0.00001   0.00000
 5 47   28587.3    349.8   0.000000000   0.00000   0.00004   0.00003   0.00001
 5 48   28782.9    347.4   0.000000000   0.00000   0.00008   0.00005   0.00000
 5 49   28782.9    347.4   0.000000001   0.00000   0.00041   0.00024   0.00009
 5 50   29338.3    340.9   0.000000000   0.00000   0.00006   0.00001   0.00000
 5 51   29338.3    340.9   0.000000000   0.00000   0.00014   0.00002   0.00004
 5 52   29384.5    340.3   0.000000000   0.00000   0.00001   0.00000   0.00001
 5 53   29384.5    340.3   0.000000000   0.00000   0.00002   0.00004   0.00001
 5 54   31317.8    319.3   0.000000000   0.00000   0.00007   0.00007   0.00004
 5 55   31317.8    319.3   0.000000000   0.00000   0.00003   0.00002   0.00010
 5 56   31365.9    318.8   0.000000000   0.00000   0.00001   0.00001   0.00002
 5 57   31365.9    318.8   0.000000000   0.00000   0.00000   0.00003   0.00001
 5 58   31444.6    318.0   0.000000000   0.00000   0.00002   0.00001   0.00006
 5 59   31444.6    318.0   0.000000000   0.00000   0.00007   0.00004   0.00004
 5 60   31452.1    317.9   0.000000000   0.00000   0.00022   0.00007   0.00015
 5 61   31452.1    317.9   0.000000000   0.00000   0.00009   0.00003   0.00024
 5 62   31907.1    313.4   0.000000000   0.00000   0.00003   0.00000   0.00005
 5 63   31907.1    313.4   0.000000000   0.00000   0.00005   0.00001   0.00002
 5 64   31947.9    313.0   0.000000000   0.00000   0.00013   0.00002   0.00028
 5 65   31947.9    313.0   0.000000000   0.00000   0.00026   0.00002   0.00009
 5 66   32798.4    304.9   0.000000000   0.00000   0.00038   0.00017   0.00008
 5 67   32798.4    304.9   0.000000000   0.00000   0.00004   0.00002   0.00003
 5 68   32950.7    303.5   0.000000000   0.00000   0.00010   0.00002   0.00002
 5 69   32950.7    303.5   0.000000000   0.00000   0.00001   0.00001   0.00003
 5 70   33125.4    301.9   0.000000000   0.00000   0.00002   0.00004   0.00001
 5 71   33125.4    301.9   0.000000000   0.00000   0.00001   0.00002   0.00001
 5 72   33243.8    300.8   0.000000000   0.00000   0.00001   0.00017   0.00002
 5 73   33243.8    300.8   0.000000000   0.00000   0.00001   0.00006   0.00001
 5 74   42838.5    233.4   0.000000000   0.00000   0.00001   0.00000   0.00000
 5 75   42838.5    233.4   0.000000000   0.00000   0.00003   0.00001   0.00001
 5 76   42839.8    233.4   0.000000000   0.00000   0.00001   0.00000   0.00000
 5 77   42839.8    233.4   0.000000000   0.00000   0.00007   0.00003   0.00002
 5 78   43073.6    232.2   0.000000000   0.00000   0.00006   0.00003   0.00002
 5 79   43073.6    232.2   0.000000000   0.00000   0.00002   0.00001   0.00001
 5 80   43095.1    232.0   0.000000000   0.00000   0.00001   0.00000   0.00000
 5 81   43095.1    232.0   0.000000000   0.00000   0.00000   0.00000   0.00000
 5 82   43116.2    231.9   0.000000000   0.00000   0.00000   0.00001   0.00000
 5 83   43116.2    231.9   0.000000000   0.00000   0.00000   0.00000   0.00000
 5 84   43135.2    231.8   0.000000000   0.00000   0.00004   0.00004   0.00002
 5 85   43135.2    231.8   0.000000000   0.00000   0.00002   0.00001   0.00002
 5 86   43362.9    230.6   0.000000000   0.00000   0.00001   0.00001   0.00000
 5 87   43362.9    230.6   0.000000000   0.00000   0.00000   0.00000   0.00001
 5 88   43398.0    230.4   0.000000000   0.00000   0.00000   0.00000   0.00001
 5 89   43398.0    230.4   0.000000000   0.00000   0.00000   0.00000   0.00000
 5 90   43494.8    229.9   0.000000000   0.00000   0.00002   0.00001   0.00000
 5 91   43494.8    229.9   0.000000000   0.00000   0.00000   0.00000   0.00001
 5 92   43540.9    229.7   0.000000000   0.00000   0.00010   0.00003   0.00003
 5 93   43540.9    229.7   0.000000000   0.00000   0.00001   0.00001   0.00008
 5 94   44098.6    226.8   0.000000000   0.00000   0.00001   0.00001   0.00005
 5 95   44098.6    226.8   0.000000000   0.00000   0.00002   0.00004   0.00003
 5 96   44178.9    226.4   0.000000000   0.00000   0.00001   0.00000   0.00000
 5 97   44178.9    226.4   0.000000000   0.00000   0.00000   0.00000   0.00001
 5 98   44283.7    225.8   0.000000000   0.00000   0.00000   0.00000   0.00001
 5 99   44283.7    225.8   0.000000000   0.00000   0.00001   0.00001   0.00000
 5 100   44352.9    225.5   0.000000000   0.00000   0.00003   0.00001   0.00003
 5 101   44352.9    225.5   0.000000000   0.00000   0.00013   0.00003   0.00003

------------------------------------------------------------------------------
                           SOC CORRECTED DIPOLE MOMENTS
------------------------------------------------------------------------------
      TX        TY        TZ           |T|
   (Debye)   (Debye)   (Debye)      (Debye)
------------------------------------------------------------------------------
  84.31375 -17.48984 -21.83302     88.83346

--------------
CASSCF TIMINGS
--------------

Total time                       ...     7954.9 sec
Sum of individual times          ...     7973.6 sec (100.2%)

Calculation of AO operators
   F(Core) operator              ...      104.2 sec (  1.3%)
   G(Act) operator               ...       94.3 sec (  1.2%)
   J(AO) operators               ...        0.0 sec (  0.0%)
Calculation of MO transformed quantities
   J(MO) operators               ...        9.5 sec (  0.1%)
   (pq|rs) integrals             ...        0.0 sec (  0.0%)
   AO->MO one electron integrals ...        0.2 sec (  0.0%)
Configuration interaction steps
   CI-setup phase                ...        0.0 sec (  0.0%)
   CI-solution phase             ...        0.0 sec (  0.0%)
   Generation of densities       ...        0.0 sec (  0.0%)
Orbital improvement steps
   Orbital gradient              ...        0.2 sec (  0.0%)
PT2 
   NEVPT2 time                   ...     7697.8 sec ( 96.8%)
Properties                       ...       34.5 sec (  0.4%)
   SOC integral calculation      ...       32.9 sec (  0.4%)
   SSC RMEs (incl. integrals)    ...        0.0 sec (  0.0%)
   SOC RMEs                      ...        0.0 sec (  0.0%)

Maximum memory used throughout the entire CASSCF-calculation: 1671.6 MB

-------------------------   --------------------
FINAL SINGLE POINT ENERGY     -3044.137014641611
-------------------------   --------------------


                            ***************************************
                            *     ORCA property calculations      *
                            ***************************************

                                    ---------------------
                                    Active property flags
                                    ---------------------
   (+) Dipole Moment


------------------------------------------------------------------------------
                       ORCA ELECTRIC PROPERTIES CALCULATION
------------------------------------------------------------------------------

Dipole Moment Calculation                       ... on
Quadrupole Moment Calculation                   ... off
Polarizability Calculation                      ... off
GBWName                                         ... nevpt2.gbw
Electron density                                ... nevpt2.scfp
The origin for moment calculation is the CENTER OF MASS  = (14.537236, 13.528595 15.057561)

-------------
DIPOLE MOMENT
-------------
                                X             Y             Z
Electronic contribution:    -33.04603       6.95940       8.56448
Nuclear contribution   :     33.17091      -6.88089      -8.58960
                        -----------------------------------------
Total Dipole Moment    :      0.12488       0.07851      -0.02512
                        -----------------------------------------
Magnitude (a.u.)       :      0.14963
Magnitude (Debye)      :      0.38034



--------------------
Rotational spectrum 
--------------------
 
Rotational constants in cm-1:     0.001137     0.000970     0.000906 
Rotational constants in MHz :    34.088371    29.065900    27.165973 

 Dipole components along the rotational axes: 
x,y,z [a.u.] :     0.057224     0.000830     0.138257 
x,y,z [Debye]:     0.145451     0.002110     0.351421 

 

Timings for individual modules:

Sum of individual times         ...     7997.700 sec (= 133.295 min)
GTO integral calculation        ...       25.853 sec (=   0.431 min)   0.3 %
SCF iterations                  ...       12.471 sec (=   0.208 min)   0.2 %
CASSCF iterations               ...     7959.375 sec (= 132.656 min)  99.5 %
                             ****ORCA TERMINATED NORMALLY****
TOTAL RUN TIME: 0 days 2 hours 13 minutes 19 seconds 122 msec
