
                                 *****************
                                 * O   R   C   A *
                                 *****************

                                            #,                                       
                                            ###                                      
                                            ####                                     
                                            #####                                    
                                            ######                                   
                                           ########,                                 
                                     ,,################,,,,,                         
                               ,,#################################,,                 
                          ,,##########################################,,             
                       ,#########################################, ''#####,          
                    ,#############################################,,   '####,        
                  ,##################################################,,,,####,       
                ,###########''''           ''''###############################       
              ,#####''   ,,,,##########,,,,          '''####'''          '####       
            ,##' ,,,,###########################,,,                        '##       
           ' ,,###''''                  '''############,,,                           
         ,,##''                                '''############,,,,        ,,,,,,###''
      ,#''                                            '''#######################'''  
     '                                                          ''''####''''         
             ,#######,   #######,   ,#######,      ##                                
            ,#'     '#,  ##    ##  ,#'     '#,    #''#        ######   ,####,        
            ##       ##  ##   ,#'  ##            #'  '#       #        #'  '#        
            ##       ##  #######   ##           ,######,      #####,   #    #        
            '#,     ,#'  ##    ##  '#,     ,#' ,#      #,         ##   #,  ,#        
             '#######'   ##     ##  '#######'  #'      '#     #####' # '####'        



                  #######################################################
                  #                        -***-                        #
                  #          Department of theory and spectroscopy      #
                  #    Directorship and core code : Frank Neese         #
                  #        Max Planck Institute fuer Kohlenforschung    #
                  #                Kaiser Wilhelm Platz 1               #
                  #                 D-45470 Muelheim/Ruhr               #
                  #                      Germany                        #
                  #                                                     #
                  #                  All rights reserved                #
                  #                        -***-                        #
                  #######################################################


                         Program Version 5.0.3 -  RELEASE  -


 With contributions from (in alphabetic order):
   Daniel Aravena         : Magnetic Suceptibility
   Michael Atanasov       : Ab Initio Ligand Field Theory (pilot matlab implementation)
   Alexander A. Auer      : GIAO ZORA, VPT2 properties, NMR spectrum
   Ute Becker             : Parallelization
   Giovanni Bistoni       : ED, misc. LED, open-shell LED, HFLD
   Martin Brehm           : Molecular dynamics
   Dmytro Bykov           : SCF Hessian
   Vijay G. Chilkuri      : MRCI spin determinant printing, contributions to CSF-ICE
   Dipayan Datta          : RHF DLPNO-CCSD density
   Achintya Kumar Dutta   : EOM-CC, STEOM-CC
   Dmitry Ganyushin       : Spin-Orbit,Spin-Spin,Magnetic field MRCI
   Miquel Garcia          : C-PCM and meta-GGA Hessian, CC/C-PCM, Gaussian charge scheme
   Yang Guo               : DLPNO-NEVPT2, F12-NEVPT2, CIM, IAO-localization
   Andreas Hansen         : Spin unrestricted coupled pair/coupled cluster methods
   Benjamin Helmich-Paris : MC-RPA, TRAH-SCF, COSX integrals
   Lee Huntington         : MR-EOM, pCC
   Robert Izsak           : Overlap fitted RIJCOSX, COSX-SCS-MP3, EOM
   Marcus Kettner         : VPT2
   Christian Kollmar      : KDIIS, OOCD, Brueckner-CCSD(T), CCSD density, CASPT2, CASPT2-K
   Simone Kossmann        : Meta GGA functionals, TD-DFT gradient, OOMP2, MP2 Hessian
   Martin Krupicka        : Initial AUTO-CI
   Lucas Lang             : DCDCAS
   Marvin Lechner         : AUTO-CI (C++ implementation), FIC-MRCC
   Dagmar Lenk            : GEPOL surface, SMD
   Dimitrios Liakos       : Extrapolation schemes; Compound Job, initial MDCI parallelization
   Dimitrios Manganas     : Further ROCIS development; embedding schemes
   Dimitrios Pantazis     : SARC Basis sets
   Anastasios Papadopoulos: AUTO-CI, single reference methods and gradients
   Taras Petrenko         : DFT Hessian,TD-DFT gradient, ASA, ECA, R-Raman, ABS, FL, XAS/XES, NRVS
   Peter Pinski           : DLPNO-MP2, DLPNO-MP2 Gradient
   Christoph Reimann      : Effective Core Potentials
   Marius Retegan         : Local ZFS, SOC
   Christoph Riplinger    : Optimizer, TS searches, QM/MM, DLPNO-CCSD(T), (RO)-DLPNO pert. Triples
   Tobias Risthaus        : Range-separated hybrids, TD-DFT gradient, RPA, STAB
   Michael Roemelt        : Original ROCIS implementation
   Masaaki Saitow         : Open-shell DLPNO-CCSD energy and density
   Barbara Sandhoefer     : DKH picture change effects
   Avijit Sen             : IP-ROCIS
   Kantharuban Sivalingam : CASSCF convergence, NEVPT2, FIC-MRCI
   Bernardo de Souza      : ESD, SOC TD-DFT
   Georgi Stoychev        : AutoAux, RI-MP2 NMR, DLPNO-MP2 response
   Willem Van den Heuvel  : Paramagnetic NMR
   Boris Wezisla          : Elementary symmetry handling
   Frank Wennmohs         : Technical directorship


 We gratefully acknowledge several colleagues who have allowed us to
 interface, adapt or use parts of their codes:
   Stefan Grimme, W. Hujo, H. Kruse, P. Pracht,  : VdW corrections, initial TS optimization,
                  C. Bannwarth, S. Ehlert          DFT functionals, gCP, sTDA/sTD-DF
   Ed Valeev, F. Pavosevic, A. Kumar             : LibInt (2-el integral package), F12 methods
   Garnet Chan, S. Sharma, J. Yang, R. Olivares  : DMRG
   Ulf Ekstrom                                   : XCFun DFT Library
   Mihaly Kallay                                 : mrcc  (arbitrary order and MRCC methods)
   Jiri Pittner, Ondrej Demel                    : Mk-CCSD
   Frank Weinhold                                : gennbo (NPA and NBO analysis)
   Christopher J. Cramer and Donald G. Truhlar   : smd solvation model
   Lars Goerigk                                  : TD-DFT with DH, B97 family of functionals
   V. Asgeirsson, H. Jonsson                     : NEB implementation
   FAccTs GmbH                                   : IRC, NEB, NEB-TS, DLPNO-Multilevel, CI-OPT
                                                   MM, QMMM, 2- and 3-layer-ONIOM, Crystal-QMMM,
                                                   LR-CPCM, SF, NACMEs, symmetry and pop. for TD-DFT,
                                                   nearIR, NL-DFT gradient (VV10), updates on ESD,
                                                   ML-optimized integration grids
   S Lehtola, MJT Oliveira, MAL Marques          : LibXC Library
   Liviu Ungur et al                             : ANISO software


 Your calculation uses the libint2 library for the computation of 2-el integrals
 For citations please refer to: http://libint.valeyev.net

 Your ORCA version has been built with support for libXC version: 5.1.0
 For citations please refer to: https://tddft.org/programs/libxc/

 This ORCA versions uses:
   CBLAS   interface :  Fast vector & matrix operations
   LAPACKE interface :  Fast linear algebra routines
   SCALAPACK package :  Parallel linear algebra routines
   Shared memory     :  Shared parallel matrices
   BLAS/LAPACK       :  OpenBLAS 0.3.15  USE64BITINT DYNAMIC_ARCH NO_AFFINITY Sandybridge SINGLE_THREADED
        Core in use  :  Sandybridge
   Copyright (c) 2011-2014, The OpenBLAS Project




***************************************
The coordinates will be read from file: pbe.xyz
***************************************


================================================================================

cite the ECPs for Au [Def2-ECP] as follows:
Ce-Yb(ecp-28): M. Dolg, H. Stoll, H.Preuss, J. Chem. Phys., 1989, 90, 1730-1734.
Y-Cd(ecp-28), Hf-Hg(ecp-46): D. Andrae,U. Haeussermann, M. Dolg, H. Stoll, H. Preuss, Theor. Chim. Acta, 1990, 77, 123-141.
In-Sb(ecp-28), Tl-Bi(ecp-46): B. Metz, H. Stoll, M. Dolg, J. Chem. Phys., 2000, 113, 2563-2569.
Te-Xe(ecp-28), Po-Rn(ecp-46): K. A. Peterson, D. Figgen, E. Goll, H. Stoll, M. Dolg, J. Chem. Phys., 2003, 119, 11113-11123.
Rb(ecp-28), Cs(ecp-46): T. Leininger, A. Nicklass, W. Kuechle, H. Stoll, M. Dolg, A. Bergner, Chem. Phys. Lett., 1996, 255, 274-280.
Sr(ecp-28), Ba(ecp-46): M. Kaupp, P. V. Schleyer, H. Stoll and H. Preuss, J. Chem. Phys., 1991, 94, 1360-1366.
La(ecp-46): M. Dolg, H. Stoll, A. Savin, H. Preuss, Theor. Chim. Acta, 1989, 75, 173-194.
Lu(ecp-28): X. Cao, M. Dolg, J. Chem. Phys., 2001, 115, 7348-7355.

ECP parameters for Au [Def2-ECP] have been obtained from:
TURBOMOLE (7.0.2)

----- Orbital basis set information -----
Your calculation utilizes the basis: def2-TZVP
   F. Weigend and R. Ahlrichs, Phys. Chem. Chem. Phys. 7, 3297 (2005).

----- AuxJ basis set information -----
Your calculation utilizes the auxiliary basis: def2/J
   F. Weigend, Phys. Chem. Chem. Phys. 8, 1057 (2006).

----- AuxC basis set information -----
Your calculation utilizes the auxiliary basis: def2-TZVP/C
  H-La, Hf-Rn : A. Hellweg, C. Hattig, S. Hofener and W. Klopper, Theor. Chem. Acc. 117, 587 (2007).
        Ce-Lu : J. Chmela and M. E. Harding, Mol. Phys. (2018).

================================================================================
                                        WARNINGS
                       Please study these warnings very carefully!
================================================================================


INFO   : the flag for use of the SHARK integral package has been found!

================================================================================
                                       INPUT FILE
================================================================================
NAME = casscf.inp
|  1> !CASSCF def2-TZVP def2-TZVP/C
|  2> !MOREAD RIJCOSX
|  3> %maxcore 6000
|  4> %moinp "pbe.qro"
|  5> %pal nprocs 6 end 
|  6> 
|  7> %casscf
|  8>  mult 6,4
|  9>  bweight 1,1
| 10>  nroots 1,24
| 11>  nel 5
| 12>  norb 5
| 13> end
| 14> 
| 15> 
| 16> *xyzfile 0 6 pbe.xyz
| 17> 
| 18> 
| 19>                          ****END OF INPUT****
================================================================================

                       ****************************
                       * Single Point Calculation *
                       ****************************

---------------------------------
CARTESIAN COORDINATES (ANGSTROEM)
---------------------------------
  Au     9.066252    6.810736    8.556787
  Au     9.000919    9.511091    7.546276
  Au     7.916612    9.616141    4.962143
  Au     9.043649    7.265093    5.844002
  Au     6.368438   10.988417    6.857036
  Au     7.756942   11.384502    9.194946
  Au     6.439604    6.700014    9.547191
  Au     5.582964    9.650762    9.453358
  Au     3.877062    9.764245    7.242295
  Au     3.867892    7.583181    8.918145
  Au     4.697005    5.098051    8.013328
  Au     5.175760    9.368957    4.846374
  Au     4.180812    7.086663    6.137360
  Au     7.186386    5.476470    6.955020
  Au     8.120389    8.800522   10.178319
  Au     6.557762    6.954462    4.642405
  Mn     6.530586    8.205715    7.181047

----------------------------
CARTESIAN COORDINATES (A.U.)
----------------------------
  NO LB      ZA    FRAG     MASS         X           Y           Z
   0 Au   19.0000*   0   196.966   17.132733   12.870426   16.169983
   1 Au   19.0000*   0   196.966   17.009272   17.973357   14.260395
   2 Au   19.0000*   0   196.966   14.960228   18.171874    9.377091
   3 Au   19.0000*   0   196.966   17.090020   13.729036   11.043563
   4 Au   19.0000*   0   196.966   12.034604   20.765099   12.957920
   5 Au   19.0000*   0   196.966   14.658495   21.513590   17.375930
   6 Au   19.0000*   0   196.966   12.169087   12.661192   18.041577
   7 Au   19.0000*   0   196.966   10.550273   18.237297   17.864258
   8 Au   19.0000*   0   196.966    7.326586   18.451750   13.685954
   9 Au   19.0000*   0   196.966    7.309256   14.330136   16.852851
  10 Au   19.0000*   0   196.966    8.876053    9.633920   15.142996
  11 Au   19.0000*   0   196.966    9.780770   17.704764    9.158319
  12 Au   19.0000*   0   196.966    7.900590   13.391852   11.597930
  13 Au   19.0000*   0   196.966   13.580301   10.349029   13.143083
  14 Au   19.0000*   0   196.966   15.345311   16.630576   19.234236
  15 Au   19.0000*   0   196.966   12.392373   13.142028    8.772874
  16 Mn   25.0000    0    54.940   12.341018   15.506554   13.570211
* core charge reduced due to ECP

--------------------------------
INTERNAL COORDINATES (ANGSTROEM)
--------------------------------
 Au     0   0   0     0.000000000000     0.00000000     0.00000000
 Au     1   0   0     2.883975801205     0.00000000     0.00000000
 Au     2   1   0     2.804372227947   111.51249107     0.00000000
 Au     1   2   3     2.750663671384    59.97268321    24.20891748
 Au     3   2   1     2.805459210356    67.00233384   116.12585129
 Au     5   3   2     2.747844442824   111.48911654    14.06512510
 Au     1   2   3     2.809348835761    98.00430625   275.37114612
 Au     6   5   3     2.792634775067    66.16374489   246.71448540
 Au     8   6   5     2.794955907423   112.13119091   346.35241453
 Au     8   6   5     2.739126643572   159.71295128    47.95819772
 Au    10   8   6     2.771641384873   123.59283524    38.70184815
 Au     9   8   6     2.753780993867   113.24189246    53.42443470
 Au    11  10   8     2.782137760270    61.55812175   272.19860257
 Au    11  10   8     2.731343004604   105.95648244   339.80163987
 Au     1   2   3     2.735556859517    61.23598367   226.46618368
 Au     4   1   2     2.778482186359   114.54417554   259.70486400
 Mn    13  11  10     2.804103257527    83.03887650    70.84610572

---------------------------
INTERNAL COORDINATES (A.U.)
---------------------------
 Au     0   0   0     0.000000000000     0.00000000     0.00000000
 Au     1   0   0     5.449924441133     0.00000000     0.00000000
 Au     2   1   0     5.299495488395   111.51249107     0.00000000
 Au     1   2   3     5.198001025443    59.97268321    24.20891748
 Au     3   2   1     5.301549587461    67.00233384   116.12585129
 Au     5   3   2     5.192673455554   111.48911654    14.06512510
 Au     1   2   3     5.308899914240    98.00430625   275.37114612
 Au     6   5   3     5.277314916941    66.16374489   246.71448540
 Au     8   6   5     5.281701221415   112.13119091   346.35241453
 Au     8   6   5     5.176199202478   159.71295128    47.95819772
 Au    10   8   6     5.237643158852   123.59283524    38.70184815
 Au     9   8   6     5.203891911206   113.24189246    53.42443470
 Au    11  10   8     5.257478433751    61.55812175   272.19860257
 Au    11  10   8     5.161490256503   105.95648244   339.80163987
 Au     1   2   3     5.169453288257    61.23598367   226.46618368
 Au     4   1   2     5.250570400197   114.54417554   259.70486400
 Mn    13  11  10     5.298987207962    83.03887650    70.84610572

---------------------
BASIS SET INFORMATION
---------------------
There are 2 groups of distinct atoms

 Group   1 Type Au  : 8s7p6d1f contracted to 6s4p3d1f pattern {311111/4111/411/1}
 Group   2 Type Mn  : 17s11p7d1f contracted to 6s4p4d1f pattern {842111/6311/4111/1}

Atom   0Au   basis set group =>   1
Atom   1Au   basis set group =>   1
Atom   2Au   basis set group =>   1
Atom   3Au   basis set group =>   1
Atom   4Au   basis set group =>   1
Atom   5Au   basis set group =>   1
Atom   6Au   basis set group =>   1
Atom   7Au   basis set group =>   1
Atom   8Au   basis set group =>   1
Atom   9Au   basis set group =>   1
Atom  10Au   basis set group =>   1
Atom  11Au   basis set group =>   1
Atom  12Au   basis set group =>   1
Atom  13Au   basis set group =>   1
Atom  14Au   basis set group =>   1
Atom  15Au   basis set group =>   1
Atom  16Mn   basis set group =>   2
---------------------------------
AUXILIARY/J BASIS SET INFORMATION
---------------------------------
There are 2 groups of distinct atoms

 Group   1 Type Au  : 11s5p5d3f3g contracted to 8s5p5d2f3g pattern {41111111/11111/11111/21/111}
 Group   2 Type Mn  : 19s5p5d3f3g contracted to 8s5p5d2f3g pattern {121111111/11111/11111/21/111}

Atom   0Au   basis set group =>   1
Atom   1Au   basis set group =>   1
Atom   2Au   basis set group =>   1
Atom   3Au   basis set group =>   1
Atom   4Au   basis set group =>   1
Atom   5Au   basis set group =>   1
Atom   6Au   basis set group =>   1
Atom   7Au   basis set group =>   1
Atom   8Au   basis set group =>   1
Atom   9Au   basis set group =>   1
Atom  10Au   basis set group =>   1
Atom  11Au   basis set group =>   1
Atom  12Au   basis set group =>   1
Atom  13Au   basis set group =>   1
Atom  14Au   basis set group =>   1
Atom  15Au   basis set group =>   1
Atom  16Mn   basis set group =>   2
---------------------------------
AUXILIARY/C BASIS SET INFORMATION
---------------------------------
There are 2 groups of distinct atoms

 Group   1 Type Au  : 8s8p7d5f3g2h contracted to 8s8p7d5f3g2h pattern {11111111/11111111/1111111/11111/111/11}
 Group   2 Type Mn  : 11s9p8d6f5g2h contracted to 9s8p8d6f5g2h pattern {311111111/21111111/11111111/111111/11111/11}

Atom   0Au   basis set group =>   1
Atom   1Au   basis set group =>   1
Atom   2Au   basis set group =>   1
Atom   3Au   basis set group =>   1
Atom   4Au   basis set group =>   1
Atom   5Au   basis set group =>   1
Atom   6Au   basis set group =>   1
Atom   7Au   basis set group =>   1
Atom   8Au   basis set group =>   1
Atom   9Au   basis set group =>   1
Atom  10Au   basis set group =>   1
Atom  11Au   basis set group =>   1
Atom  12Au   basis set group =>   1
Atom  13Au   basis set group =>   1
Atom  14Au   basis set group =>   1
Atom  15Au   basis set group =>   1
Atom  16Mn   basis set group =>   2
-------------------------
ECP PARAMETER INFORMATION
-------------------------

 Group 1, Type Au ECP Def2-ECP (replacing 60 core electrons, lmax=3)

Atom   0Au   ECP group =>   1
Atom   1Au   ECP group =>   1
Atom   2Au   ECP group =>   1
Atom   3Au   ECP group =>   1
Atom   4Au   ECP group =>   1
Atom   5Au   ECP group =>   1
Atom   6Au   ECP group =>   1
Atom   7Au   ECP group =>   1
Atom   8Au   ECP group =>   1
Atom   9Au   ECP group =>   1
Atom  10Au   ECP group =>   1
Atom  11Au   ECP group =>   1
Atom  12Au   ECP group =>   1
Atom  13Au   ECP group =>   1
Atom  14Au   ECP group =>   1
Atom  15Au   ECP group =>   1



           ************************************************************
           *        Program running with 6 parallel MPI-processes     *
           *              working on a common directory               *
           ************************************************************
------------------------------------------------------------------------------
                           ORCA GTO INTEGRAL CALCULATION
                           -- RI-GTO INTEGRALS CHOSEN --
------------------------------------------------------------------------------
------------------------------------------------------------------------------
                   ___                                                        
                  /   \      - P O W E R E D   B Y -                         
                 /     \                                                     
                 |  |  |   _    _      __       _____    __    __             
                 |  |  |  | |  | |    /  \     |  _  \  |  |  /  |          
                  \  \/   | |  | |   /    \    | | | |  |  | /  /          
                 / \  \   | |__| |  /  /\  \   | |_| |  |  |/  /          
                |  |  |   |  __  | /  /__\  \  |    /   |      \           
                |  |  |   | |  | | |   __   |  |    \   |  |\   \          
                \     /   | |  | | |  |  |  |  | |\  \  |  | \   \       
                 \___/    |_|  |_| |__|  |__|  |_| \__\ |__|  \__/        
                                                                              
                      - O R C A' S   B I G   F R I E N D -                    
                                      &                                       
                       - I N T E G R A L  F E E D E R -                       
                                                                              
 v1 FN, 2020, v2 2021                                                         
------------------------------------------------------------------------------


Reading SHARK input file casscf.SHARKINP.tmp ... ok
----------------------
SHARK INTEGRAL PACKAGE
----------------------

Number of atoms                             ...     17
Number of basis functions                   ...    685
Number of shells                            ...    239
Maximum angular momentum                    ...      3
Integral batch strategy                     ... SHARK/LIBINT Hybrid
RI-J (if used) integral strategy            ... SPLIT-RIJ (Revised 2003 algorithm where possible)
Printlevel                                  ...      1
Contraction scheme used                     ... SEGMENTED contraction
Coulomb Range Separation                    ... NOT USED
Exchange Range Separation                   ... NOT USED
Finite Nucleus Model                        ... NOT USED
Auxiliary Coulomb fitting basis             ... AVAILABLE
   # of basis functions in Aux-J            ...   1513
   # of shells in Aux-J                     ...    391
   Maximum angular momentum in Aux-J        ...      4
Auxiliary J/K fitting basis                 ... NOT available
Auxiliary Correlation fitting basis         ... AVAILABLE
   # of basis functions in Aux-C            ...   2598
   # of shells in Aux-C                     ...    566
   Maximum angular momentum in Aux-C        ...      5
Auxiliary 'external' fitting basis          ... NOT available
Integral threshold                          ...     1.000000e-10
Primitive cut-off                           ...     1.000000e-11
Primitive pair pre-selection threshold      ...     1.000000e-11

Calculating pre-screening integrals         ... done (  0.3 sec) Dimension = 239
Organizing shell pair data                  ... done (  1.1 sec)
Shell pair information
Total number of shell pairs                 ...     28680
Shell pairs after pre-screening             ...     22470
Total number of primitive shell pairs       ...     75765
Primitive shell pairs kept                  ...     42669
          la=0 lb=0:   3552 shell pairs
          la=1 lb=0:   5120 shell pairs
          la=1 lb=1:   1927 shell pairs
          la=2 lb=0:   4464 shell pairs
          la=2 lb=1:   3142 shell pairs
          la=2 lb=2:   1301 shell pairs
          la=3 lb=0:   1156 shell pairs
          la=3 lb=1:    894 shell pairs
          la=3 lb=2:    796 shell pairs
          la=3 lb=3:    118 shell pairs

Calculating one electron integrals          ... done (  0.1 sec)
Calculating ECP integrals                   ... done ( 17.6 sec)
Calculating RI/J V-Matrix + Cholesky decomp.... done (  0.2 sec)
Calculating RI/C V-Matrix + Cholesky decomp.... done (  0.6 sec)
Calculating Nuclear repulsion               ... done (  0.0 sec) ENN=   7090.320424335641 Eh

SHARK setup successfully completed in  20.4 seconds

Maximum memory used throughout the entire GTOINT-calculation: 61.1 MB


           ************************************************************
           *        Program running with 6 parallel MPI-processes     *
           *              working on a common directory               *
           ************************************************************
-------------------------------------------------------------------------------
                                 ORCA SCF
-------------------------------------------------------------------------------

------------
SCF SETTINGS
------------
Hamiltonian:
 Ab initio Hamiltonian  Method          .... Hartree-Fock(GTOs)
 RI-approximation to the Coulomb term is turned on
   Number of AuxJ basis functions       .... 1513
   RIJ-COSX (HFX calculated with COS-X)).... on


General Settings:
 Integral files         IntName         .... casscf
 Hartree-Fock type      HFTyp           .... CASSCF
 Total Charge           Charge          ....    0
 Multiplicity           Mult            ....    6
 Number of Electrons    NEL             ....  329
 Basis Dimension        Dim             ....  685
 Nuclear Repulsion      ENuc            ....   7090.3204243356 Eh


Diagonalization of the overlap matrix:
Smallest eigenvalue                        ... 2.740e-04
Time for diagonalization                   ...    0.153 sec
Threshold for overlap eigenvalues          ... 1.000e-08
Number of eigenvalues below threshold      ... 0
Time for construction of square roots      ...    0.088 sec
Total time needed                          ...    0.244 sec

---------------------
INITIAL GUESS: MOREAD
---------------------
Guess MOs are being read from file: pbe.qro
Input Geometry matches current geometry (good)
Input basis set matches current basis set (good)
MOs were renormalized
Gram-Schmidt orthogonalization of all MOs with pivot on actives
                      ------------------
                      INITIAL GUESS DONE (  13.1 sec)
                      ------------------
--------------------
COSX GRID GENERATION
--------------------

GRIDX 1
-------
General Integration Accuracy     IntAcc      ... 3.816
Radial Grid Type                 RadialGrid  ... OptM3 with GC (2021)
Angular Grid (max. ang.)         AngularGrid ... 1 (Lebedev-50)
Angular grid pruning method      GridPruning ... 4 (adaptive)
Weight generation scheme         WeightScheme... Becke
Basis function cutoff            BFCut       ... 1.0000e-10
Integration weight cutoff        WCut        ... 1.0000e-14
Angular grids for H and He will be reduced by one unit
Partially contracted basis set               ... on
Rotationally invariant grid construction     ... off

Total number of grid points                  ...    19488
Total number of batches                      ...      312
Average number of points per batch           ...       62
Average number of grid points per atom       ...     1146
UseSFitting                                  ... on

GRIDX 2
-------
General Integration Accuracy     IntAcc      ... 4.020
Radial Grid Type                 RadialGrid  ... OptM3 with GC (2021)
Angular Grid (max. ang.)         AngularGrid ... 2 (Lebedev-110)
Angular grid pruning method      GridPruning ... 4 (adaptive)
Weight generation scheme         WeightScheme... Becke
Basis function cutoff            BFCut       ... 1.0000e-10
Integration weight cutoff        WCut        ... 1.0000e-14
Angular grids for H and He will be reduced by one unit
Partially contracted basis set               ... on
Rotationally invariant grid construction     ... off

Total number of grid points                  ...    59085
Total number of batches                      ...      933
Average number of points per batch           ...       63
Average number of grid points per atom       ...     3476
UseSFitting                                  ... on

GRIDX 3
-------
General Integration Accuracy     IntAcc      ... 4.338
Radial Grid Type                 RadialGrid  ... OptM3 with GC (2021)
Angular Grid (max. ang.)         AngularGrid ... 3 (Lebedev-194)
Angular grid pruning method      GridPruning ... 4 (adaptive)
Weight generation scheme         WeightScheme... Becke
Basis function cutoff            BFCut       ... 1.0000e-10
Integration weight cutoff        WCut        ... 1.0000e-14
Angular grids for H and He will be reduced by one unit
Partially contracted basis set               ... on
Rotationally invariant grid construction     ... off

Total number of grid points                  ...   107082
Total number of batches                      ...     1682
Average number of points per batch           ...       63
Average number of grid points per atom       ...     6299
UseSFitting                                  ... on

Time for X-Grid setup             =    2.491 sec



 ... the calculation is a CASSCF calculation -I'm leaving here GOOD LUCK!!!



           ************************************************************
           *        Program running with 6 parallel MPI-processes     *
           *              working on a common directory               *
           ************************************************************
-------------------------------------------------------------------------------
                              ORCA-CASSCF
-------------------------------------------------------------------------------

Setting up the integral package       ... done
Setting up the integral package (RI)  ... done
Building the CAS space                ... done (1 configurations for Mult=6)
Building the CAS space                ... done (21 configurations for Mult=4)

SYSTEM-SPECIFIC SETTINGS:
Number of active electrons          ...    5
Number of active orbitals           ...    5
Total number of electrons           ...  329
Total number of orbitals            ...  685
Total number aux. functions         ... 2598

Determined orbital ranges:
   Internal       0 -  161 ( 162 orbitals)
   Active       162 -  166 (   5 orbitals)
   External     167 -  684 ( 518 orbitals)
Number of rotation parameters      ...  87316

CI-STEP:
CI strategy                         ... General CI
Number of multiplicity blocks       ...    2
BLOCK  1 WEIGHT=   0.5000
  Multiplicity                      ...    6
  #(Configurations)                 ...    1
  #(CSFs)                           ...    1
  #(Roots)                          ...    1
    ROOT=0 WEIGHT=    0.500000

BLOCK  2 WEIGHT=   0.5000
  Multiplicity                      ...    4
  #(Configurations)                 ...   21
  #(CSFs)                           ...   24
  #(Roots)                          ...   24
    ROOT=0 WEIGHT=    0.020833
    ROOT=1 WEIGHT=    0.020833
    ROOT=2 WEIGHT=    0.020833
    ROOT=3 WEIGHT=    0.020833
    ROOT=4 WEIGHT=    0.020833
    ROOT=5 WEIGHT=    0.020833
    ROOT=6 WEIGHT=    0.020833
    ROOT=7 WEIGHT=    0.020833
    ROOT=8 WEIGHT=    0.020833
    ROOT=9 WEIGHT=    0.020833
    ROOT=10 WEIGHT=    0.020833
    ROOT=11 WEIGHT=    0.020833
    ROOT=12 WEIGHT=    0.020833
    ROOT=13 WEIGHT=    0.020833
    ROOT=14 WEIGHT=    0.020833
    ROOT=15 WEIGHT=    0.020833
    ROOT=16 WEIGHT=    0.020833
    ROOT=17 WEIGHT=    0.020833
    ROOT=18 WEIGHT=    0.020833
    ROOT=19 WEIGHT=    0.020833
    ROOT=20 WEIGHT=    0.020833
    ROOT=21 WEIGHT=    0.020833
    ROOT=22 WEIGHT=    0.020833
    ROOT=23 WEIGHT=    0.020833

  PrintLevel                        ...    1
  N(GuessMat)                       ...       512
  MaxDim(CI)                        ...        10
  MaxIter(CI)                       ...        64
  Energy Tolerance CI               ...  1.00e-08
  Residual Tolerance CI             ...  1.00e-08
  Shift(CI)                         ...  1.00e-04

INTEGRAL-TRANSFORMATION-STEP:
  Algorithm                         ... RI-MO

ORBITAL-IMPROVEMENT-STEP:
  Algorithm                         ... SuperCI(PT)
  Default Parametrization           ... CAYLEY
  Act-Act rotations                 ... depends on algorithm used

  Note: SuperCI(PT) will ignore FreezeIE, FreezeAct and FreezeGrad. In general Default settings are encouraged.
        In conjunction with ShiftUp, ShiftDn or GradScaling the performance of SuperCI(PT) is less optimal.  

  MaxRot                            ... 2.00e-01 
  Max. no of vectors (DIIS)         ... 15
  DThresh (cut-off) metric          ... 1.00e-06
  Switch step at gradient           ...  3.00e-02 
  Switch step at iteration          ...        50   
  Switch step to                    ... SuperCI(PT)    

SCF-SETTINGS:
  Incremental                       ... off
  RIJCOSX approximation             ... on
  UseFinalGrid                      ... on
  RI-JK approximation               ... off
  AO integral handling              ... DIRECT
  Integral Neglect Thresh           ...  1.00e-10
  Primitive cutoff TCut             ...  1.00e-11
  Energy convergence tolerance      ...  1.00e-07
  Orbital gradient convergence      ...  1.00e-03
  Max. number of iterations         ...        75  


FINAL ORBITALS:
  Active   Orbitals                 ... natural 
  Internal Orbitals                 ... canonical 
  External Orbitals                 ... canonical 

------------------
CAS-SCF ITERATIONS
------------------


MACRO-ITERATION   1: 
   --- Inactive Energy E0 = -3297.40346453 Eh
CI-ITERATION   0: 
 -3306.405633728   0.000000000000 (    0.00)
   CI-PROBLEM SOLVED
   DENSITIES MADE
CI-ITERATION   0: 
 -3306.296147593   0.000000000000 (    0.00)
 -3306.296023423   0.000000000000
 -3306.295890726   0.000000000000
 -3306.294260769   0.000000000000
 -3306.294036961   0.000000000000
 -3306.293542738   0.000000000000
 -3306.293226072   0.000000000000
 -3306.293147470   0.000000000000
 -3306.292826881   0.000000000000
 -3306.278129559   0.000000000000
 -3306.276458788   0.000000000000
 -3306.276016523   0.000000000000
 -3306.269307054   0.000000000000
 -3306.266822068   0.000000000000
 -3306.266570154   0.000000000000
 -3306.265442117   0.000000000000
 -3306.265239156   0.000000000000
 -3306.225458604   0.000000000000
 -3306.224674499   0.000000000000
 -3306.217445416   0.000000000000
 -3306.216670384   0.000000000000
 -3306.215907716   0.000000000000
 -3306.215659847   0.000000000000
 -3306.212858871   0.000000000000
   CI-PROBLEM SOLVED
   DENSITIES MADE

                 <<<<<<<<<<<<<<<<<<INITIAL CI STATE CHECK>>>>>>>>>>>>>>>>>>

BLOCK  1 MULT= 6 NROOTS= 1 
ROOT   0:  E=   -3306.4056337275 Eh
      1.00000 [     0]: 11111

BLOCK  2 MULT= 4 NROOTS=24 
ROOT   0:  E=   -3306.2961475935 Eh
      0.92504 [    10]: 11111
      0.02140 [     8]: 11201
      0.02055 [    12]: 11021
      0.01438 [     0]: 21110
      0.00892 [    20]: 01112
ROOT   1:  E=   -3306.2960234229 Eh  0.003 eV     27.3 cm**-1
      0.54522 [    10]: 11111
      0.16265 [     8]: 11201
      0.15645 [    12]: 11021
      0.03912 [    11]: 11102
      0.03911 [     9]: 11120
      0.01355 [     0]: 21110
      0.00986 [    20]: 01112
      0.00730 [     7]: 11210
      0.00687 [    13]: 11012
      0.00589 [     1]: 21101
      0.00402 [     6]: 12011
      0.00346 [    19]: 01121
      0.00326 [    14]: 10211
ROOT   2:  E=   -3306.2958907261 Eh  0.007 eV     56.4 cm**-1
      0.41117 [    10]: 11111
      0.28181 [    12]: 11021
      0.27453 [     8]: 11201
      0.00586 [     5]: 12101
      0.00532 [    15]: 10121
      0.00387 [     2]: 21011
      0.00339 [    13]: 11012
      0.00333 [     7]: 11210
      0.00290 [     1]: 21101
ROOT   3:  E=   -3306.2942607689 Eh  0.051 eV    414.1 cm**-1
      0.26980 [    10]: 11111
      0.22261 [    11]: 11102
      0.21006 [     9]: 11120
      0.11135 [     3]: 20111
      0.08872 [    17]: 02111
      0.01989 [     7]: 11210
      0.01974 [    13]: 11012
      0.01803 [    16]: 10112
      0.01444 [     8]: 11201
      0.01127 [     4]: 12110
      0.00897 [    12]: 11021
ROOT   4:  E=   -3306.2940369610 Eh  0.057 eV    463.2 cm**-1
      0.22351 [    13]: 11012
      0.21610 [    10]: 11111
      0.21389 [     7]: 11210
      0.11968 [     3]: 20111
      0.10827 [    17]: 02111
      0.02245 [     0]: 21110
      0.01792 [    20]: 01112
      0.01526 [    12]: 11021
      0.01158 [     8]: 11201
      0.01142 [    11]: 11102
      0.01079 [     9]: 11120
      0.00879 [    16]: 10112
      0.00680 [     4]: 12110
      0.00598 [     2]: 21011
      0.00551 [    18]: 01211
ROOT   5:  E=   -3306.2935427384 Eh  0.071 eV    571.7 cm**-1
      0.31247 [    16]: 10112
      0.23224 [     4]: 12110
      0.09260 [    15]: 10121
      0.07739 [    20]: 01112
      0.07434 [     0]: 21110
      0.06873 [     5]: 12101
      0.02879 [    13]: 11012
      0.02329 [    10]: 11111
      0.02108 [    18]: 01211
      0.02105 [     7]: 11210
      0.01517 [     2]: 21011
      0.00987 [    17]: 02111
      0.00783 [     3]: 20111
      0.00534 [    19]: 01121
      0.00381 [     1]: 21101
      0.00251 [    12]: 11021
ROOT   6:  E=   -3306.2932260721 Eh  0.079 eV    641.2 cm**-1
      0.34317 [    20]: 01112
      0.30903 [     0]: 21110
      0.09838 [    16]: 10112
      0.06290 [     4]: 12110
      0.05824 [    14]: 10211
      0.04735 [     6]: 12011
      0.01937 [    10]: 11111
      0.01227 [    15]: 10121
      0.01196 [    11]: 11102
      0.00826 [     9]: 11120
      0.00676 [     5]: 12101
      0.00582 [    19]: 01121
      0.00420 [     1]: 21101
      0.00399 [    13]: 11012
      0.00339 [     2]: 21011
      0.00269 [     7]: 11210
ROOT   7:  E=   -3306.2931474704 Eh  0.082 eV    658.5 cm**-1
      0.22278 [    14]: 10211
      0.22096 [     1]: 21101
      0.19933 [    19]: 01121
      0.19801 [     6]: 12011
      0.03024 [    18]: 01211
      0.02862 [     2]: 21011
      0.02316 [     5]: 12101
      0.02088 [    15]: 10121
      0.01295 [    10]: 11111
      0.01129 [     0]: 21110
      0.01039 [    12]: 11021
      0.00652 [    20]: 01112
      0.00616 [     8]: 11201
      0.00276 [    13]: 11012
ROOT   8:  E=   -3306.2928268805 Eh  0.090 eV    728.8 cm**-1
      0.22563 [     2]: 21011
      0.20680 [    18]: 01211
      0.20649 [    15]: 10121
      0.18377 [     5]: 12101
      0.03232 [     1]: 21101
      0.03180 [    19]: 01121
      0.02346 [    10]: 11111
      0.02058 [     4]: 12110
      0.01789 [    16]: 10112
      0.01758 [     6]: 12011
      0.01710 [    14]: 10211
      0.00651 [    20]: 01112
      0.00419 [     0]: 21110
      0.00251 [     3]: 20111
ROOT   9:  E=   -3306.2781295586 Eh  0.490 eV   3954.5 cm**-1
      0.40178 [    12]: 11021
      0.39896 [     8]: 11201
      0.08278 [     3]: 20111
      0.07802 [    17]: 02111
      0.01261 [    13]: 11012
      0.00467 [     5]: 12101
      0.00453 [     7]: 11210
      0.00443 [     1]: 21101
      0.00329 [    19]: 01121
ROOT  10:  E=   -3306.2764587877 Eh  0.536 eV   4321.2 cm**-1
      0.26335 [     0]: 21110
      0.25462 [    20]: 01112
      0.09980 [     5]: 12101
      0.06484 [    15]: 10121
      0.05866 [     2]: 21011
      0.05606 [    18]: 01211
      0.05499 [     4]: 12110
      0.04301 [    16]: 10112
      0.03006 [     6]: 12011
      0.02534 [    14]: 10211
      0.01693 [    10]: 11111
      0.01256 [    19]: 01121
      0.00992 [     1]: 21101
      0.00621 [    13]: 11012
ROOT  11:  E=   -3306.2760165231 Eh  0.548 eV   4418.3 cm**-1
      0.24070 [     4]: 12110
      0.17012 [    16]: 10112
      0.09647 [     6]: 12011
      0.08379 [     0]: 21110
      0.07386 [    20]: 01112
      0.07088 [     5]: 12101
      0.04956 [     1]: 21101
      0.04830 [    14]: 10211
      0.04426 [    19]: 01121
      0.03931 [     2]: 21011
      0.03855 [    15]: 10121
      0.02441 [    18]: 01211
      0.00840 [     8]: 11201
      0.00620 [    12]: 11021
ROOT  12:  E=   -3306.2693070538 Eh  0.730 eV   5890.8 cm**-1
      0.93138 [    10]: 11111
      0.01914 [     9]: 11120
      0.01825 [    11]: 11102
      0.00706 [     0]: 21110
      0.00677 [    18]: 01211
      0.00452 [    14]: 10211
      0.00445 [    20]: 01112
ROOT  13:  E=   -3306.2668220678 Eh  0.798 eV   6436.2 cm**-1
      0.46332 [    10]: 11111
      0.20916 [    11]: 11102
      0.18728 [     9]: 11120
      0.06272 [     3]: 20111
      0.06158 [    17]: 02111
      0.00592 [     1]: 21101
      0.00324 [    16]: 10112
ROOT  14:  E=   -3306.2665701536 Eh  0.805 eV   6491.5 cm**-1
      0.21755 [    13]: 11012
      0.20370 [     3]: 20111
      0.20370 [     7]: 11210
      0.19864 [    17]: 02111
      0.12418 [    10]: 11111
      0.01817 [     2]: 21011
      0.00720 [    16]: 10112
      0.00682 [    12]: 11021
      0.00542 [    20]: 01112
      0.00454 [    18]: 01211
      0.00289 [     4]: 12110
ROOT  15:  E=   -3306.2654421167 Eh  0.836 eV   6739.1 cm**-1
      0.21531 [    18]: 01211
      0.19960 [     2]: 21011
      0.19838 [    15]: 10121
      0.15618 [     5]: 12101
      0.09374 [     4]: 12110
      0.07385 [    16]: 10112
      0.01247 [    17]: 02111
      0.00883 [    10]: 11111
      0.00763 [     7]: 11210
      0.00747 [    20]: 01112
      0.00699 [     0]: 21110
      0.00606 [    13]: 11012
      0.00508 [     3]: 20111
      0.00295 [    14]: 10211
ROOT  16:  E=   -3306.2652391558 Eh  0.841 eV   6783.6 cm**-1
      0.24327 [    19]: 01121
      0.23225 [     1]: 21101
      0.22323 [    14]: 10211
      0.19220 [     6]: 12011
      0.03260 [     0]: 21110
      0.02710 [    20]: 01112
      0.01493 [     4]: 12110
      0.00980 [    16]: 10112
      0.00607 [    10]: 11111
      0.00455 [     5]: 12101
      0.00302 [    15]: 10121
ROOT  17:  E=   -3306.2254586044 Eh  1.924 eV  15514.4 cm**-1
      0.51920 [     9]: 11120
      0.47717 [    11]: 11102
ROOT  18:  E=   -3306.2246744987 Eh  1.945 eV  15686.5 cm**-1
      0.50798 [     7]: 11210
      0.46352 [    13]: 11012
      0.00924 [     8]: 11201
      0.00810 [    12]: 11021
      0.00328 [    20]: 01112
ROOT  19:  E=   -3306.2174454155 Eh  2.142 eV  17273.1 cm**-1
      0.22342 [     4]: 12110
      0.20430 [    16]: 10112
      0.19784 [     5]: 12101
      0.19109 [    15]: 10121
      0.04771 [    18]: 01211
      0.04612 [     2]: 21011
      0.03034 [    19]: 01121
      0.02735 [     1]: 21101
      0.01358 [    20]: 01112
      0.01260 [     0]: 21110
ROOT  20:  E=   -3306.2166703841 Eh  2.163 eV  17443.2 cm**-1
      0.16330 [    19]: 01121
      0.16036 [     1]: 21101
      0.15302 [     6]: 12011
      0.14831 [    14]: 10211
      0.13838 [     0]: 21110
      0.13429 [    20]: 01112
      0.04020 [    18]: 01211
      0.03535 [     2]: 21011
      0.01010 [     4]: 12110
      0.00809 [    16]: 10112
      0.00287 [     5]: 12101
ROOT  21:  E=   -3306.2159077165 Eh  2.183 eV  17610.6 cm**-1
      0.24729 [     6]: 12011
      0.24153 [    19]: 01121
      0.23553 [    14]: 10211
      0.22835 [     1]: 21101
      0.01002 [     4]: 12110
      0.00892 [     5]: 12101
      0.00834 [    16]: 10112
      0.00731 [    15]: 10121
      0.00281 [     2]: 21011
ROOT  22:  E=   -3306.2156598466 Eh  2.190 eV  17665.0 cm**-1
      0.33180 [    18]: 01211
      0.30977 [     2]: 21011
      0.15679 [     5]: 12101
      0.14650 [    15]: 10121
      0.00882 [     1]: 21101
      0.00840 [    19]: 01121
      0.00808 [     4]: 12110
      0.00778 [     6]: 12011
      0.00731 [    16]: 10112
      0.00646 [    14]: 10211
ROOT  23:  E=   -3306.2128588709 Eh  2.266 eV  18279.8 cm**-1
      0.43681 [    17]: 02111
      0.39663 [     3]: 20111
      0.07674 [     8]: 11201
      0.07628 [    12]: 11021
      0.00327 [    15]: 10121

                 <<<<<<<<<<<<<<<<<<INITIAL CI STATE CHECK>>>>>>>>>>>>>>>>>>

   E(CAS)= -3306.334936934 Eh DE=    0.000000e+00
   --- Energy gap subspaces: Ext-Act = 0.086   Act-Int = 0.143
   N(occ)=  1.00000 1.00000 1.00000 1.00000 1.00000
   ||g|| =     2.745517e+00 Max(G)=    4.627992e-01 Rot=592,1
   --- Orbital Update [SuperCI(PT)]
   --- Canonicalize Internal Space
   --- Canonicalize External Space
   --- SX_PT (Skipped TA=0 IT=0): ||X|| =      0.510381343 Max(X)(164,159) =      0.062038647 
   --- SFit(Active Orbitals)

MACRO-ITERATION   2: 
   --- Inactive Energy E0 = -3296.46901860 Eh
CI-ITERATION   0: 
 -3306.857373848   0.000000000000 (    0.00)
   CI-PROBLEM SOLVED
   DENSITIES MADE
CI-ITERATION   0: 
 -3306.731626160   0.000000000000 (    0.00)
 -3306.730708024   0.000000000000
 -3306.729930445   0.000000000000
 -3306.729895000   0.000000000000
 -3306.729770132   0.000000000000
 -3306.729085308   0.000000000000
 -3306.729003242   0.000000000000
 -3306.728908461   0.000000000000
 -3306.728876901   0.000000000000
 -3306.709776314   0.000000000000
 -3306.707777812   0.000000000000
 -3306.707123978   0.000000000000
 -3306.698826508   0.000000000000
 -3306.697709263   0.000000000000
 -3306.697632905   0.000000000000
 -3306.697392367   0.000000000000
 -3306.697312964   0.000000000000
 -3306.645271255   0.000000000000
 -3306.644898505   0.000000000000
 -3306.640924217   0.000000000000
 -3306.640484403   0.000000000000
 -3306.640158110   0.000000000000
 -3306.640112426   0.000000000000
 -3306.638986114   0.000000000000
   CI-PROBLEM SOLVED
   DENSITIES MADE
   E(CAS)= -3306.776024232 Eh DE=   -4.410873e-01
   --- Energy gap subspaces: Ext-Act = 0.190   Act-Int = 0.029
   N(occ)=  1.00000 1.00000 1.00000 1.00000 1.00000
   ||g|| =     9.019352e-01 Max(G)=   -4.135554e-02 Rot=592,21
   --- Orbital Update [SuperCI(PT)]
   --- Canonicalize Internal Space
   --- Canonicalize External Space
   --- SX_PT (Skipped TA=0 IT=0): ||X|| =      0.174447134 Max(X)(229,166) =     -0.027534960 
   --- SFit(Active Orbitals)

MACRO-ITERATION   3: 
   --- Inactive Energy E0 = -3296.47343854 Eh
CI-ITERATION   0: 
 -3306.905256076   0.000000000000 (    0.00)
   CI-PROBLEM SOLVED
   DENSITIES MADE
CI-ITERATION   0: 
 -3306.769621372   0.000000000000 (    0.00)
 -3306.769201610   0.000000000000
 -3306.769153378   0.000000000000
 -3306.769131331   0.000000000000
 -3306.769048302   0.000000000000
 -3306.768562018   0.000000000000
 -3306.768488253   0.000000000000
 -3306.768388192   0.000000000000
 -3306.768378388   0.000000000000
 -3306.747773657   0.000000000000
 -3306.747044710   0.000000000000
 -3306.746692839   0.000000000000
 -3306.735934760   0.000000000000
 -3306.735188496   0.000000000000
 -3306.735133500   0.000000000000
 -3306.734814973   0.000000000000
 -3306.734729341   0.000000000000
 -3306.678281413   0.000000000000
 -3306.677965610   0.000000000000
 -3306.675323547   0.000000000000
 -3306.674877533   0.000000000000
 -3306.674548545   0.000000000000
 -3306.674462617   0.000000000000
 -3306.673561568   0.000000000000
   CI-PROBLEM SOLVED
   DENSITIES MADE
   E(CAS)= -3306.818592745 Eh DE=   -4.256851e-02
   --- Energy gap subspaces: Ext-Act = 0.099   Act-Int = 0.133
   N(occ)=  1.00000 1.00000 1.00000 1.00000 1.00000
   ||g|| =     5.059748e-01 Max(G)=    8.804689e-02 Rot=592,21
   --- Orbital Update [SuperCI(PT)]
   --- Canonicalize Internal Space
   --- Canonicalize External Space
   --- SX_PT (Skipped TA=0 IT=0): ||X|| =      0.115774012 Max(X)(166,161) =     -0.024254482 
   --- SFit(Active Orbitals)

MACRO-ITERATION   4: 
   --- Inactive Energy E0 = -3296.27481296 Eh
CI-ITERATION   0: 
 -3306.919956013   0.000000000000 (    0.00)
   CI-PROBLEM SOLVED
   DENSITIES MADE
CI-ITERATION   0: 
 -3306.783450982   0.000000000000 (    0.00)
 -3306.782880711   0.000000000000
 -3306.782455339   0.000000000000
 -3306.782433412   0.000000000000
 -3306.782333287   0.000000000000
 -3306.782063090   0.000000000000
 -3306.782044909   0.000000000000
 -3306.782018611   0.000000000000
 -3306.781993431   0.000000000000
 -3306.760964605   0.000000000000
 -3306.760159033   0.000000000000
 -3306.759694470   0.000000000000
 -3306.748751370   0.000000000000
 -3306.748367047   0.000000000000
 -3306.748320486   0.000000000000
 -3306.748108325   0.000000000000
 -3306.748086681   0.000000000000
 -3306.689900386   0.000000000000
 -3306.689695905   0.000000000000
 -3306.687911243   0.000000000000
 -3306.687620273   0.000000000000
 -3306.687399747   0.000000000000
 -3306.687336417   0.000000000000
 -3306.686883519   0.000000000000
   CI-PROBLEM SOLVED
   DENSITIES MADE
   E(CAS)= -3306.832496199 Eh DE=   -1.390345e-02
   --- Energy gap subspaces: Ext-Act = 0.134   Act-Int = 0.092
   N(occ)=  1.00000 1.00000 1.00000 1.00000 1.00000
   ||g|| =     1.026418e-01 Max(G)=   -7.893565e-03 Rot=604,166
   --- Orbital Update [SuperCI(PT)]
   --- Canonicalize Internal Space
   --- Canonicalize External Space
   --- SX_PT (Skipped TA=0 IT=0): ||X|| =      0.025160713 Max(X)(166,161) =     -0.004925158 
   --- SFit(Active Orbitals)

MACRO-ITERATION   5: 
   --- Inactive Energy E0 = -3296.17468975 Eh
CI-ITERATION   0: 
 -3306.920665157   0.000000000000 (    0.00)
   CI-PROBLEM SOLVED
   DENSITIES MADE
CI-ITERATION   0: 
 -3306.783640312   0.000000000000 (    0.00)
 -3306.783056681   0.000000000000
 -3306.782596219   0.000000000000
 -3306.782572023   0.000000000000
 -3306.782469410   0.000000000000
 -3306.782257451   0.000000000000
 -3306.782248066   0.000000000000
 -3306.782216137   0.000000000000
 -3306.782182875   0.000000000000
 -3306.761038411   0.000000000000
 -3306.760254287   0.000000000000
 -3306.759772489   0.000000000000
 -3306.748720579   0.000000000000
 -3306.748432443   0.000000000000
 -3306.748373683   0.000000000000
 -3306.748173599   0.000000000000
 -3306.748148926   0.000000000000
 -3306.689492382   0.000000000000
 -3306.689313372   0.000000000000
 -3306.687731546   0.000000000000
 -3306.687483795   0.000000000000
 -3306.687282128   0.000000000000
 -3306.687212988   0.000000000000
 -3306.686853703   0.000000000000
   CI-PROBLEM SOLVED
   DENSITIES MADE
   E(CAS)= -3306.832864318 Eh DE=   -3.681184e-04
   --- Energy gap subspaces: Ext-Act = 0.144   Act-Int = 0.082
   N(occ)=  1.00000 1.00000 1.00000 1.00000 1.00000
   ||g|| =     8.136111e-02 Max(G)=   -1.011935e-02 Rot=167,73
   --- Orbital Update [SuperCI(PT)]
   --- Canonicalize Internal Space
   --- Canonicalize External Space
   --- SX_PT (Skipped TA=0 IT=0): ||X|| =      0.020541967 Max(X)(167,73) =     -0.003584566 
   --- SFit(Active Orbitals)

MACRO-ITERATION   6: 
   --- Inactive Energy E0 = -3296.21174377 Eh
CI-ITERATION   0: 
 -3306.921166942   0.000000000000 (    0.00)
   CI-PROBLEM SOLVED
   DENSITIES MADE
CI-ITERATION   0: 
 -3306.783757633   0.000000000000 (    0.00)
 -3306.783199477   0.000000000000
 -3306.782785464   0.000000000000
 -3306.782761807   0.000000000000
 -3306.782654262   0.000000000000
 -3306.782474622   0.000000000000
 -3306.782466536   0.000000000000
 -3306.782434897   0.000000000000
 -3306.782398708   0.000000000000
 -3306.761197640   0.000000000000
 -3306.760483391   0.000000000000
 -3306.760020230   0.000000000000
 -3306.748811733   0.000000000000
 -3306.748572927   0.000000000000
 -3306.748515102   0.000000000000
 -3306.748309859   0.000000000000
 -3306.748285570   0.000000000000
 -3306.689371251   0.000000000000
 -3306.689207845   0.000000000000
 -3306.687773227   0.000000000000
 -3306.687543495   0.000000000000
 -3306.687350708   0.000000000000
 -3306.687274205   0.000000000000
 -3306.686960076   0.000000000000
   CI-PROBLEM SOLVED
   DENSITIES MADE
   E(CAS)= -3306.833179526 Eh DE=   -3.152084e-04
   --- Energy gap subspaces: Ext-Act = 0.136   Act-Int = 0.091
   N(occ)=  1.00000 1.00000 1.00000 1.00000 1.00000
   ||g|| =     2.245678e-02 Max(G)=    4.816432e-03 Rot=592,21
   --- Orbital Update [SuperCI(PT)]
   --- Canonicalize Internal Space
   --- Canonicalize External Space
   --- SX_PT (Skipped TA=0 IT=0): ||X|| =      0.005902698 Max(X)(166,161) =     -0.001606838 
   --- SFit(Active Orbitals)

MACRO-ITERATION   7: 
   --- Inactive Energy E0 = -3296.19714795 Eh
CI-ITERATION   0: 
 -3306.921175432   0.000000000000 (    0.00)
   CI-PROBLEM SOLVED
   DENSITIES MADE
CI-ITERATION   0: 
 -3306.783798673   0.000000000000 (    0.00)
 -3306.783237365   0.000000000000
 -3306.782830488   0.000000000000
 -3306.782805998   0.000000000000
 -3306.782693012   0.000000000000
 -3306.782533978   0.000000000000
 -3306.782525676   0.000000000000
 -3306.782490767   0.000000000000
 -3306.782453199   0.000000000000
 -3306.761257098   0.000000000000
 -3306.760556336   0.000000000000
 -3306.760093160   0.000000000000
 -3306.748849286   0.000000000000
 -3306.748640562   0.000000000000
 -3306.748580408   0.000000000000
 -3306.748369362   0.000000000000
 -3306.748342971   0.000000000000
 -3306.689380061   0.000000000000
 -3306.689226193   0.000000000000
 -3306.687857085   0.000000000000
 -3306.687640211   0.000000000000
 -3306.687452586   0.000000000000
 -3306.687371204   0.000000000000
 -3306.687083792   0.000000000000
   CI-PROBLEM SOLVED
   DENSITIES MADE
   E(CAS)= -3306.833214163 Eh DE=   -3.463692e-05
   --- Energy gap subspaces: Ext-Act = 0.138   Act-Int = 0.088
   N(occ)=  1.00000 1.00000 1.00000 1.00000 1.00000
   ||g|| =     9.766896e-03 Max(G)=   -1.094250e-03 Rot=592,21
   --- Orbital Update [SuperCI(PT)]
   --- Canonicalize Internal Space
   --- Canonicalize External Space
   --- SX_PT (Skipped TA=0 IT=0): ||X|| =      0.002866949 Max(X)(167,157) =     -0.000912989 
   --- SFit(Active Orbitals)

MACRO-ITERATION   8: 
   --- Inactive Energy E0 = -3296.19861384 Eh
CI-ITERATION   0: 
 -3306.921190453   0.000000000000 (    0.00)
   CI-PROBLEM SOLVED
   DENSITIES MADE
CI-ITERATION   0: 
 -3306.783796446   0.000000000000 (    0.00)
 -3306.783233700   0.000000000000
 -3306.782836296   0.000000000000
 -3306.782811484   0.000000000000
 -3306.782695370   0.000000000000
 -3306.782541861   0.000000000000
 -3306.782533527   0.000000000000
 -3306.782497429   0.000000000000
 -3306.782459721   0.000000000000
 -3306.761262441   0.000000000000
 -3306.760568876   0.000000000000
 -3306.760105342   0.000000000000
 -3306.748848929   0.000000000000
 -3306.748645245   0.000000000000
 -3306.748584689   0.000000000000
 -3306.748373325   0.000000000000
 -3306.748346273   0.000000000000
 -3306.689363233   0.000000000000
 -3306.689211989   0.000000000000
 -3306.687859682   0.000000000000
 -3306.687646884   0.000000000000
 -3306.687460858   0.000000000000
 -3306.687378980   0.000000000000
 -3306.687095264   0.000000000000
   CI-PROBLEM SOLVED
   DENSITIES MADE
   E(CAS)= -3306.833223515 Eh DE=   -9.351543e-06
   --- Energy gap subspaces: Ext-Act = 0.138   Act-Int = 0.088
   N(occ)=  1.00000 1.00000 1.00000 1.00000 1.00000
   ||g|| =     4.133562e-03 Max(G)=   -7.309262e-04 Rot=592,21
   --- Orbital Update [SuperCI(PT)]
   --- Canonicalize Internal Space
   --- Canonicalize External Space
   --- SX_PT (Skipped TA=0 IT=0): ||X|| =      0.001578283 Max(X)(167,160) =      0.000533022 
   --- SFit(Active Orbitals)

MACRO-ITERATION   9: 
   --- Inactive Energy E0 = -3296.19959455 Eh
CI-ITERATION   0: 
 -3306.921198205   0.000000000000 (    0.00)
   CI-PROBLEM SOLVED
   DENSITIES MADE
CI-ITERATION   0: 
 -3306.783793550   0.000000000000 (    0.00)
 -3306.783228858   0.000000000000
 -3306.782837358   0.000000000000
 -3306.782812255   0.000000000000
 -3306.782694297   0.000000000000
 -3306.782542090   0.000000000000
 -3306.782533814   0.000000000000
 -3306.782497662   0.000000000000
 -3306.782459335   0.000000000000
 -3306.761262506   0.000000000000
 -3306.760573111   0.000000000000
 -3306.760109402   0.000000000000
 -3306.748844468   0.000000000000
 -3306.748644670   0.000000000000
 -3306.748584541   0.000000000000
 -3306.748368695   0.000000000000
 -3306.748340834   0.000000000000
 -3306.689353720   0.000000000000
 -3306.689203024   0.000000000000
 -3306.687855113   0.000000000000
 -3306.687642277   0.000000000000
 -3306.687455830   0.000000000000
 -3306.687372152   0.000000000000
 -3306.687089637   0.000000000000
   CI-PROBLEM SOLVED
   DENSITIES MADE
   E(CAS)= -3306.833226169 Eh DE=   -2.654324e-06
   --- Energy gap subspaces: Ext-Act = 0.138   Act-Int = 0.088
   N(occ)=  1.00000 1.00000 1.00000 1.00000 1.00000
   ||g|| =     3.141897e-03 Max(G)=    2.610195e-04 Rot=592,21
   --- Orbital Update [SuperCI(PT)]
   --- Canonicalize Internal Space
   --- Canonicalize External Space
   --- SX_PT (Skipped TA=0 IT=0): ||X|| =      0.000991919 Max(X)(167,160) =     -0.000291121 
   --- SFit(Active Orbitals)

MACRO-ITERATION  10: 
   --- Inactive Energy E0 = -3296.19946247 Eh
CI-ITERATION   0: 
 -3306.921193180   0.000000000000 (    0.00)
   CI-PROBLEM SOLVED
   DENSITIES MADE
CI-ITERATION   0: 
 -3306.783799761   0.000000000000 (    0.00)
 -3306.783232519   0.000000000000
 -3306.782842523   0.000000000000
 -3306.782817221   0.000000000000
 -3306.782698805   0.000000000000
 -3306.782546651   0.000000000000
 -3306.782538295   0.000000000000
 -3306.782502098   0.000000000000
 -3306.782463786   0.000000000000
 -3306.761268709   0.000000000000
 -3306.760579582   0.000000000000
 -3306.760114165   0.000000000000
 -3306.748851504   0.000000000000
 -3306.748651596   0.000000000000
 -3306.748591539   0.000000000000
 -3306.748375609   0.000000000000
 -3306.748347577   0.000000000000
 -3306.689365016   0.000000000000
 -3306.689214165   0.000000000000
 -3306.687866127   0.000000000000
 -3306.687653438   0.000000000000
 -3306.687466992   0.000000000000
 -3306.687383144   0.000000000000
 -3306.687099983   0.000000000000
   CI-PROBLEM SOLVED
   DENSITIES MADE
   E(CAS)= -3306.833227231 Eh DE=   -1.062346e-06
   --- Energy gap subspaces: Ext-Act = 0.138   Act-Int = 0.088
   N(occ)=  1.00000 1.00000 1.00000 1.00000 1.00000
   ||g|| =     1.331342e-03 Max(G)=    1.572150e-04 Rot=167,160
   --- Orbital Update [SuperCI(PT)]
   --- Canonicalize Internal Space
   --- Canonicalize External Space
   --- SX_PT (Skipped TA=0 IT=0): ||X|| =      0.000577124 Max(X)(167,160) =     -0.000180159 
   --- SFit(Active Orbitals)

MACRO-ITERATION  11: 
   --- Inactive Energy E0 = -3296.19969769 Eh
CI-ITERATION   0: 
 -3306.921190612   0.000000000000 (    0.00)
   CI-PROBLEM SOLVED
   DENSITIES MADE
CI-ITERATION   0: 
 -3306.783804009   0.000000000000 (    0.00)
 -3306.783235048   0.000000000000
 -3306.782845042   0.000000000000
 -3306.782819592   0.000000000000
 -3306.782701333   0.000000000000
 -3306.782548233   0.000000000000
 -3306.782539837   0.000000000000
 -3306.782503921   0.000000000000
 -3306.782465540   0.000000000000
 -3306.761271301   0.000000000000
 -3306.760581781   0.000000000000
 -3306.760115293   0.000000000000
 -3306.748855073   0.000000000000
 -3306.748654771   0.000000000000
 -3306.748594973   0.000000000000
 -3306.748378258   0.000000000000
 -3306.748350133   0.000000000000
 -3306.689372894   0.000000000000
 -3306.689221443   0.000000000000
 -3306.687870721   0.000000000000
 -3306.687657355   0.000000000000
 -3306.687470577   0.000000000000
 -3306.687386415   0.000000000000
 -3306.687102261   0.000000000000
   CI-PROBLEM SOLVED
   DENSITIES MADE
   E(CAS)= -3306.833227510 Eh DE=   -2.786869e-07
   --- Energy gap subspaces: Ext-Act = 0.138   Act-Int = 0.088
   N(occ)=  1.00000 1.00000 1.00000 1.00000 1.00000
   ||g|| =     1.229514e-03 Max(G)=    8.393732e-05 Rot=171,161
   --- Orbital Update [SuperCI(PT)]
   --- Canonicalize Internal Space
   --- Canonicalize External Space
   --- SX_PT (Skipped TA=0 IT=0): ||X|| =      0.000410535 Max(X)(172,161) =     -0.000112390 
   --- SFit(Active Orbitals)

MACRO-ITERATION  12: 
   --- Inactive Energy E0 = -3296.19946917 Eh
CI-ITERATION   0: 
 -3306.921191087   0.000000000000 (    0.00)
   CI-PROBLEM SOLVED
   DENSITIES MADE
CI-ITERATION   0: 
 -3306.783806153   0.000000000000 (    0.00)
 -3306.783235931   0.000000000000
 -3306.782845309   0.000000000000
 -3306.782819770   0.000000000000
 -3306.782701777   0.000000000000
 -3306.782547961   0.000000000000
 -3306.782539532   0.000000000000
 -3306.782503860   0.000000000000
 -3306.782465393   0.000000000000
 -3306.761271078   0.000000000000
 -3306.760581041   0.000000000000
 -3306.760113666   0.000000000000
 -3306.748855173   0.000000000000
 -3306.748654859   0.000000000000
 -3306.748595287   0.000000000000
 -3306.748377813   0.000000000000
 -3306.748349531   0.000000000000
 -3306.689374649   0.000000000000
 -3306.689222668   0.000000000000
 -3306.687870111   0.000000000000
 -3306.687656059   0.000000000000
 -3306.687468917   0.000000000000
 -3306.687384344   0.000000000000
 -3306.687099852   0.000000000000
   CI-PROBLEM SOLVED
   DENSITIES MADE
   E(CAS)= -3306.833227642 Eh DE=   -1.319395e-07
   --- Energy gap subspaces: Ext-Act = 0.138   Act-Int = 0.088
   N(occ)=  1.00000 1.00000 1.00000 1.00000 1.00000
   ||g|| =     4.473760e-04 Max(G)=   -3.707047e-05 Rot=167,73
                     ---- THE CAS-SCF GRADIENT HAS CONVERGED ----
                            --- FINALIZING ORBITALS ---
                    ---- DOING ONE FINAL ITERATION FOR PRINTING ----
   --- Forming Natural Orbitals
   --- Canonicalize Internal Space
   --- Canonicalize External Space

MACRO-ITERATION  13: 
   --- Inactive Energy E0 = -3296.19946917 Eh
   --- All densities will be recomputed
CI-ITERATION   0: 
 -3306.921191086   0.000000000000 (    0.77)
   CI-PROBLEM SOLVED
   DENSITIES MADE
CI-ITERATION   0: 
 -3306.783806150   0.000000000000 (    0.34)
 -3306.783235929   0.000000000000
 -3306.782845307   0.000000000000
 -3306.782819768   0.000000000000
 -3306.782701776   0.000000000000
 -3306.782547960   0.000000000000
 -3306.782539530   0.000000000000
 -3306.782503859   0.000000000000
 -3306.782465391   0.000000000000
 -3306.761271076   0.000000000000
 -3306.760581040   0.000000000000
 -3306.760113666   0.000000000000
 -3306.748855172   0.000000000000
 -3306.748654858   0.000000000000
 -3306.748595285   0.000000000000
 -3306.748377812   0.000000000000
 -3306.748349530   0.000000000000
 -3306.689374647   0.000000000000
 -3306.689222666   0.000000000000
 -3306.687870110   0.000000000000
 -3306.687656058   0.000000000000
 -3306.687468916   0.000000000000
 -3306.687384344   0.000000000000
 -3306.687099851   0.000000000000
   CI-PROBLEM SOLVED
   DENSITIES MADE
   E(CAS)= -3306.833227640 Eh DE=    1.547505e-09
   --- Energy gap subspaces: Ext-Act = 0.126   Act-Int = 0.065
   N(occ)=  1.00000 1.00000 1.00000 1.00000 1.00000
   ||g|| =     4.473760e-04 Max(G)=    3.801362e-05 Rot=592,21
--------------
CASSCF RESULTS
--------------

Final CASSCF energy       : -3306.833227640 Eh  -89983.5068 eV

----------------
ORBITAL ENERGIES
----------------

  NO   OCC          E(Eh)            E(eV) 
   0   2.0000    -240.571594     -6546.2859 
   1   2.0000     -29.143492      -793.0347 
   2   2.0000     -24.848971      -676.1749 
   3   2.0000     -24.848665      -676.1666 
   4   2.0000     -24.848652      -676.1662 
   5   2.0000      -4.721498      -128.4785 
   6   2.0000      -4.720689      -128.4565 
   7   2.0000      -4.720677      -128.4562 
   8   2.0000      -4.719880      -128.4345 
   9   2.0000      -4.718389      -128.3939 
  10   2.0000      -4.717358      -128.3658 
  11   2.0000      -4.716847      -128.3519 
  12   2.0000      -4.716826      -128.3513 
  13   2.0000      -4.714137      -128.2782 
  14   2.0000      -4.713588      -128.2632 
  15   2.0000      -4.713279      -128.2548 
  16   2.0000      -4.712869      -128.2437 
  17   2.0000      -4.712576      -128.2357 
  18   2.0000      -4.712232      -128.2264 
  19   2.0000      -4.711387      -128.2034 
  20   2.0000      -4.710510      -128.1795 
  21   2.0000      -3.848486      -104.7226 
  22   2.0000      -2.760102       -75.1062 
  23   2.0000      -2.759761       -75.0969 
  24   2.0000      -2.759366       -75.0862 
  25   2.0000      -2.758986       -75.0758 
  26   2.0000      -2.758004       -75.0491 
  27   2.0000      -2.757452       -75.0341 
  28   2.0000      -2.757205       -75.0274 
  29   2.0000      -2.757094       -75.0243 
  30   2.0000      -2.756840       -75.0174 
  31   2.0000      -2.756636       -75.0119 
  32   2.0000      -2.756505       -75.0083 
  33   2.0000      -2.756339       -75.0038 
  34   2.0000      -2.755497       -74.9809 
  35   2.0000      -2.755400       -74.9782 
  36   2.0000      -2.754400       -74.9510 
  37   2.0000      -2.754292       -74.9481 
  38   2.0000      -2.753722       -74.9326 
  39   2.0000      -2.753590       -74.9290 
  40   2.0000      -2.753376       -74.9232 
  41   2.0000      -2.752945       -74.9115 
  42   2.0000      -2.752735       -74.9057 
  43   2.0000      -2.752073       -74.8877 
  44   2.0000      -2.751818       -74.8808 
  45   2.0000      -2.751498       -74.8721 
  46   2.0000      -2.750887       -74.8554 
  47   2.0000      -2.750653       -74.8491 
  48   2.0000      -2.749830       -74.8267 
  49   2.0000      -2.749640       -74.8215 
  50   2.0000      -2.749139       -74.8079 
  51   2.0000      -2.748758       -74.7975 
  52   2.0000      -2.748426       -74.7885 
  53   2.0000      -2.748057       -74.7784 
  54   2.0000      -2.747913       -74.7745 
  55   2.0000      -2.747743       -74.7699 
  56   2.0000      -2.747244       -74.7563 
  57   2.0000      -2.746774       -74.7435 
  58   2.0000      -2.746636       -74.7398 
  59   2.0000      -2.746528       -74.7368 
  60   2.0000      -2.746310       -74.7309 
  61   2.0000      -2.746068       -74.7243 
  62   2.0000      -2.746042       -74.7236 
  63   2.0000      -2.745669       -74.7134 
  64   2.0000      -2.745518       -74.7093 
  65   2.0000      -2.745100       -74.6980 
  66   2.0000      -2.744827       -74.6905 
  67   2.0000      -2.744502       -74.6817 
  68   2.0000      -2.744360       -74.6778 
  69   2.0000      -2.744176       -74.6728 
  70   2.0000      -2.517831       -68.5137 
  71   2.0000      -2.517287       -68.4989 
  72   2.0000      -2.517157       -68.4953 
  73   2.0000      -0.582647       -15.8546 
  74   2.0000      -0.560427       -15.2500 
  75   2.0000      -0.557262       -15.1639 
  76   2.0000      -0.556634       -15.1468 
  77   2.0000      -0.555754       -15.1228 
  78   2.0000      -0.552398       -15.0315 
  79   2.0000      -0.551146       -14.9974 
  80   2.0000      -0.550359       -14.9760 
  81   2.0000      -0.549212       -14.9448 
  82   2.0000      -0.548799       -14.9336 
  83   2.0000      -0.548226       -14.9180 
  84   2.0000      -0.546362       -14.8673 
  85   2.0000      -0.545937       -14.8557 
  86   2.0000      -0.544860       -14.8264 
  87   2.0000      -0.544252       -14.8098 
  88   2.0000      -0.543001       -14.7758 
  89   2.0000      -0.541398       -14.7322 
  90   2.0000      -0.540467       -14.7068 
  91   2.0000      -0.538962       -14.6659 
  92   2.0000      -0.537166       -14.6170 
  93   2.0000      -0.536298       -14.5934 
  94   2.0000      -0.533145       -14.5076 
  95   2.0000      -0.532085       -14.4788 
  96   2.0000      -0.530674       -14.4404 
  97   2.0000      -0.527589       -14.3564 
  98   2.0000      -0.525861       -14.3094 
  99   2.0000      -0.523336       -14.2407 
 100   2.0000      -0.518771       -14.1165 
 101   2.0000      -0.516588       -14.0571 
 102   2.0000      -0.511313       -13.9135 
 103   2.0000      -0.509605       -13.8670 
 104   2.0000      -0.508085       -13.8257 
 105   2.0000      -0.505736       -13.7618 
 106   2.0000      -0.502670       -13.6783 
 107   2.0000      -0.500699       -13.6247 
 108   2.0000      -0.498417       -13.5626 
 109   2.0000      -0.497751       -13.5445 
 110   2.0000      -0.486964       -13.2510 
 111   2.0000      -0.486379       -13.2350 
 112   2.0000      -0.480938       -13.0870 
 113   2.0000      -0.479514       -13.0482 
 114   2.0000      -0.476202       -12.9581 
 115   2.0000      -0.473380       -12.8813 
 116   2.0000      -0.468071       -12.7368 
 117   2.0000      -0.466970       -12.7069 
 118   2.0000      -0.462021       -12.5722 
 119   2.0000      -0.460697       -12.5362 
 120   2.0000      -0.460235       -12.5236 
 121   2.0000      -0.459360       -12.4998 
 122   2.0000      -0.457521       -12.4498 
 123   2.0000      -0.456258       -12.4154 
 124   2.0000      -0.453686       -12.3454 
 125   2.0000      -0.452486       -12.3128 
 126   2.0000      -0.450392       -12.2558 
 127   2.0000      -0.449943       -12.2436 
 128   2.0000      -0.449397       -12.2287 
 129   2.0000      -0.448009       -12.1910 
 130   2.0000      -0.447317       -12.1721 
 131   2.0000      -0.446271       -12.1436 
 132   2.0000      -0.445275       -12.1166 
 133   2.0000      -0.443649       -12.0723 
 134   2.0000      -0.440573       -11.9886 
 135   2.0000      -0.439949       -11.9716 
 136   2.0000      -0.436069       -11.8660 
 137   2.0000      -0.435670       -11.8552 
 138   2.0000      -0.434923       -11.8349 
 139   2.0000      -0.433359       -11.7923 
 140   2.0000      -0.430544       -11.7157 
 141   2.0000      -0.424686       -11.5563 
 142   2.0000      -0.423616       -11.5272 
 143   2.0000      -0.423100       -11.5131 
 144   2.0000      -0.422110       -11.4862 
 145   2.0000      -0.421419       -11.4674 
 146   2.0000      -0.420073       -11.4308 
 147   2.0000      -0.418866       -11.3979 
 148   2.0000      -0.417687       -11.3658 
 149   2.0000      -0.409116       -11.1326 
 150   2.0000      -0.404272       -11.0008 
 151   2.0000      -0.397990       -10.8298 
 152   2.0000      -0.394720       -10.7409 
 153   2.0000      -0.391511       -10.6535 
 154   2.0000      -0.378843       -10.3088 
 155   2.0000      -0.372077       -10.1247 
 156   2.0000      -0.371131       -10.0990 
 157   2.0000      -0.261372        -7.1123 
 158   2.0000      -0.255647        -6.9565 
 159   2.0000      -0.244958        -6.6657 
 160   2.0000      -0.237332        -6.4581 
 161   2.0000      -0.233319        -6.3489 
 162   1.0000      -0.168390        -4.5821 
 163   1.0000      -0.163576        -4.4511 
 164   1.0000      -0.162691        -4.4270 
 165   1.0000      -0.163388        -4.4460 
 166   1.0000      -0.166776        -4.5382 
 167   0.0000      -0.036934        -1.0050 
 168   0.0000      -0.012328        -0.3355 
 169   0.0000      -0.004308        -0.1172 
 170   0.0000      -0.001794        -0.0488 
 171   0.0000       0.000657         0.0179 
 172   0.0000       0.002268         0.0617 
 173   0.0000       0.008590         0.2337 
 174   0.0000       0.012629         0.3437 
 175   0.0000       0.027357         0.7444 
 176   0.0000       0.032984         0.8975 
 177   0.0000       0.033322         0.9067 
 178   0.0000       0.070147         1.9088 
 179   0.0000       0.083059         2.2602 
 180   0.0000       0.090916         2.4740 
 181   0.0000       0.093071         2.5326 
 182   0.0000       0.093588         2.5467 
 183   0.0000       0.097264         2.6467 
 184   0.0000       0.102879         2.7995 
 185   0.0000       0.103064         2.8045 
 186   0.0000       0.108228         2.9450 
 187   0.0000       0.110998         3.0204 
 188   0.0000       0.118311         3.2194 
 189   0.0000       0.119695         3.2571 
 190   0.0000       0.123830         3.3696 
 191   0.0000       0.126011         3.4289 
 192   0.0000       0.130270         3.5448 
 193   0.0000       0.135641         3.6910 
 194   0.0000       0.147050         4.0014 
 195   0.0000       0.149449         4.0667 
 196   0.0000       0.152651         4.1538 
 197   0.0000       0.154073         4.1925 
 198   0.0000       0.154618         4.2074 
 199   0.0000       0.165078         4.4920 
 200   0.0000       0.173897         4.7320 
 201   0.0000       0.177051         4.8178 
 202   0.0000       0.178764         4.8644 
 203   0.0000       0.178971         4.8700 
 204   0.0000       0.181450         4.9375 
 205   0.0000       0.182292         4.9604 
 206   0.0000       0.184090         5.0093 
 207   0.0000       0.186592         5.0774 
 208   0.0000       0.187159         5.0928 
 209   0.0000       0.195793         5.3278 
 210   0.0000       0.197127         5.3641 
 211   0.0000       0.198627         5.4049 
 212   0.0000       0.205246         5.5850 
 213   0.0000       0.211039         5.7427 
 214   0.0000       0.226481         6.1629 
 215   0.0000       0.232706         6.3323 
 216   0.0000       0.238684         6.4949 
 217   0.0000       0.240558         6.5459 
 218   0.0000       0.241381         6.5683 
 219   0.0000       0.241597         6.5742 
 220   0.0000       0.251080         6.8322 
 221   0.0000       0.254875         6.9355 
 222   0.0000       0.264658         7.2017 
 223   0.0000       0.266748         7.2586 
 224   0.0000       0.280202         7.6247 
 225   0.0000       0.285192         7.7605 
 226   0.0000       0.287424         7.8212 
 227   0.0000       0.293227         7.9791 
 228   0.0000       0.296711         8.0739 
 229   0.0000       0.302082         8.2201 
 230   0.0000       0.310609         8.4521 
 231   0.0000       0.326268         8.8782 
 232   0.0000       0.347257         9.4494 
 233   0.0000       0.351814         9.5733 
 234   0.0000       0.360033         9.7970 
 235   0.0000       0.363658         9.8956 
 236   0.0000       0.369834        10.0637 
 237   0.0000       0.379905        10.3377 
 238   0.0000       0.382442        10.4068 
 239   0.0000       0.393286        10.7019 
 240   0.0000       0.395575        10.7641 
 241   0.0000       0.405990        11.0476 
 242   0.0000       0.415196        11.2981 
 243   0.0000       0.418261        11.3815 
 244   0.0000       0.419854        11.4248 
 245   0.0000       0.424115        11.5408 
 246   0.0000       0.429639        11.6911 
 247   0.0000       0.432296        11.7634 
 248   0.0000       0.438602        11.9350 
 249   0.0000       0.439516        11.9598 
 250   0.0000       0.441827        12.0227 
 251   0.0000       0.443716        12.0741 
 252   0.0000       0.451103        12.2751 
 253   0.0000       0.453072        12.3287 
 254   0.0000       0.462973        12.5981 
 255   0.0000       0.470590        12.8054 
 256   0.0000       0.477715        12.9993 
 257   0.0000       0.482645        13.1334 
 258   0.0000       0.488168        13.2837 
 259   0.0000       0.491046        13.3620 
 260   0.0000       0.495082        13.4719 
 261   0.0000       0.498473        13.5641 
 262   0.0000       0.501844        13.6559 
 263   0.0000       0.503826        13.7098 
 264   0.0000       0.507815        13.8183 
 265   0.0000       0.511818        13.9273 
 266   0.0000       0.516709        14.0604 
 267   0.0000       0.521830        14.1997 
 268   0.0000       0.526349        14.3227 
 269   0.0000       0.528383        14.3780 
 270   0.0000       0.533810        14.5257 
 271   0.0000       0.541164        14.7258 
 272   0.0000       0.544006        14.8032 
 273   0.0000       0.544708        14.8222 
 274   0.0000       0.555001        15.1024 
 275   0.0000       0.568065        15.4578 
 276   0.0000       0.570328        15.5194 
 277   0.0000       0.572279        15.5725 
 278   0.0000       0.576888        15.6979 
 279   0.0000       0.579645        15.7729 
 280   0.0000       0.584341        15.9007 
 281   0.0000       0.586287        15.9537 
 282   0.0000       0.594293        16.1715 
 283   0.0000       0.595840        16.2136 
 284   0.0000       0.596181        16.2229 
 285   0.0000       0.604528        16.4500 
 286   0.0000       0.607975        16.5438 
 287   0.0000       0.610246        16.6056 
 288   0.0000       0.621205        16.9038 
 289   0.0000       0.623287        16.9605 
 290   0.0000       0.631100        17.1731 
 291   0.0000       0.634003        17.2521 
 292   0.0000       0.635540        17.2939 
 293   0.0000       0.644996        17.5512 
 294   0.0000       0.646903        17.6031 
 295   0.0000       0.650950        17.7132 
 296   0.0000       0.659838        17.9551 
 297   0.0000       0.662162        18.0183 
 298   0.0000       0.665558        18.1108 
 299   0.0000       0.671043        18.2600 
 300   0.0000       0.677459        18.4346 
 301   0.0000       0.681080        18.5331 
 302   0.0000       0.682049        18.5595 
 303   0.0000       0.685686        18.6585 
 304   0.0000       0.687527        18.7086 
 305   0.0000       0.689468        18.7614 
 306   0.0000       0.693936        18.8830 
 307   0.0000       0.695359        18.9217 
 308   0.0000       0.699598        19.0370 
 309   0.0000       0.703200        19.1350 
 310   0.0000       0.706471        19.2240 
 311   0.0000       0.718002        19.5378 
 312   0.0000       0.721213        19.6252 
 313   0.0000       0.727997        19.8098 
 314   0.0000       0.730752        19.8848 
 315   0.0000       0.737547        20.0697 
 316   0.0000       0.738726        20.1018 
 317   0.0000       0.744078        20.2474 
 318   0.0000       0.749330        20.3903 
 319   0.0000       0.755089        20.5470 
 320   0.0000       0.755404        20.5556 
 321   0.0000       0.757885        20.6231 
 322   0.0000       0.763795        20.7839 
 323   0.0000       0.767122        20.8744 
 324   0.0000       0.772458        21.0196 
 325   0.0000       0.786252        21.3950 
 326   0.0000       0.793094        21.5812 
 327   0.0000       0.811117        22.0716 
 328   0.0000       0.924425        25.1549 
 329   0.0000       0.933964        25.4145 
 330   0.0000       0.945887        25.7389 
 331   0.0000       0.957137        26.0450 
 332   0.0000       0.967538        26.3280 
 333   0.0000       0.974052        26.5053 
 334   0.0000       0.978549        26.6277 
 335   0.0000       0.994602        27.0645 
 336   0.0000       0.998043        27.1581 
 337   0.0000       1.003712        27.3124 
 338   0.0000       1.009800        27.4781 
 339   0.0000       1.016526        27.6611 
 340   0.0000       1.023517        27.8513 
 341   0.0000       1.030490        28.0410 
 342   0.0000       1.047135        28.4940 
 343   0.0000       1.049752        28.5652 
 344   0.0000       1.068246        29.0684 
 345   0.0000       1.073608        29.2143 
 346   0.0000       1.079637        29.3784 
 347   0.0000       1.098877        29.9020 
 348   0.0000       1.102700        30.0060 
 349   0.0000       1.111510        30.2457 
 350   0.0000       1.119656        30.4674 
 351   0.0000       1.127551        30.6822 
 352   0.0000       1.138110        30.9696 
 353   0.0000       1.141559        31.0634 
 354   0.0000       1.149620        31.2827 
 355   0.0000       1.157165        31.4881 
 356   0.0000       1.161702        31.6115 
 357   0.0000       1.167050        31.7570 
 358   0.0000       1.173466        31.9316 
 359   0.0000       1.184055        32.2198 
 360   0.0000       1.189439        32.3663 
 361   0.0000       1.203184        32.7403 
 362   0.0000       1.208936        32.8968 
 363   0.0000       1.224790        33.3282 
 364   0.0000       1.228576        33.4312 
 365   0.0000       1.232486        33.5376 
 366   0.0000       1.239505        33.7286 
 367   0.0000       1.258196        34.2373 
 368   0.0000       1.260624        34.3033 
 369   0.0000       1.266649        34.4673 
 370   0.0000       1.276853        34.7449 
 371   0.0000       1.284674        34.9578 
 372   0.0000       1.290930        35.1280 
 373   0.0000       1.339133        36.4397 
 374   0.0000       1.359050        36.9816 
 375   0.0000       1.405633        38.2492 
 376   0.0000       1.475287        40.1446 
 377   0.0000       1.482834        40.3500 
 378   0.0000       1.530092        41.6359 
 379   0.0000       1.537218        41.8298 
 380   0.0000       1.567982        42.6670 
 381   0.0000       1.571073        42.7511 
 382   0.0000       1.581068        43.0230 
 383   0.0000       1.593970        43.3741 
 384   0.0000       1.601324        43.5742 
 385   0.0000       1.607257        43.7357 
 386   0.0000       1.610664        43.8284 
 387   0.0000       1.615438        43.9583 
 388   0.0000       1.635188        44.4957 
[...]
      dxy     :     1.990793
      f0      :     0.000812  f :     0.004513
      f+1     :     0.000439
      f-1     :     0.000711
      f+2     :     0.000894
      f-2     :     0.000545
      f+3     :     0.000596
      f-3     :     0.000516
 13 Aus       :     2.494639  s :     2.494639
      pz      :     2.226097  p :     6.539060
      px      :     2.219971
      py      :     2.092992
      dz2     :     1.990716  d :     9.980261
      dxz     :     2.002330
      dyz     :     2.008068
      dx2y2   :     1.984817
      dxy     :     1.994329
      f0      :     0.000622  f :     0.004706
      f+1     :     0.000537
      f-1     :     0.000654
      f+2     :     0.000713
      f-2     :     0.000878
      f+3     :     0.000704
      f-3     :     0.000598
 14 Aus       :     2.457901  s :     2.457901
      pz      :     2.095728  p :     6.518999
      px      :     2.168458
      py      :     2.254812
      dz2     :     2.003125  d :    10.003661
      dxz     :     2.002462
      dyz     :     2.010183
      dx2y2   :     2.000765
      dxy     :     1.987125
      f0      :     0.000706  f :     0.004892
      f+1     :     0.000493
      f-1     :     0.000663
      f+2     :     0.000733
      f-2     :     0.000690
      f+3     :     0.000797
      f-3     :     0.000811
 15 Aus       :     2.487270  s :     2.487270
      pz      :     2.094005  p :     6.490560
      px      :     2.223116
      py      :     2.173439
      dz2     :     1.988130  d :     9.982770
      dxz     :     2.005181
      dyz     :     1.987542
      dx2y2   :     1.997678
      dxy     :     2.004239
      f0      :     0.000540  f :     0.004369
      f+1     :     0.000575
      f-1     :     0.000607
      f+2     :     0.000769
      f-2     :     0.000535
      f+3     :     0.000875
      f-3     :     0.000469
 16 Mns       :     6.210398  s :     6.210398
      pz      :     4.165735  p :    12.489057
      px      :     4.153009
      py      :     4.170313
      dz2     :     1.322793  d :     6.548115
      dxz     :     1.310289
      dyz     :     1.306822
      dx2y2   :     1.316092
      dxy     :     1.292120
      f0      :     0.000069  f :     0.000613
      f+1     :     0.000071
      f-1     :     0.000141
      f+2     :     0.000072
      f-2     :     0.000077
      f+3     :     0.000058
      f-3     :     0.000125

SPIN
  0 Aus       :     0.002033  s :     0.002033
      pz      :     0.001252  p :     0.003010
      px      :     0.000797
      py      :     0.000962
      dz2     :     0.000182  d :     0.001872
      dxz     :     0.000541
      dyz     :     0.000305
      dx2y2   :     0.000259
      dxy     :     0.000586
      f0      :     0.000003  f :     0.000017
      f+1     :     0.000001
      f-1     :     0.000001
      f+2     :     0.000002
      f-2     :     0.000005
      f+3     :     0.000000
      f-3     :     0.000005
  1 Aus       :     0.002100  s :     0.002100
      pz      :     0.000761  p :     0.002665
      px      :     0.001345
      py      :     0.000559
      dz2     :     0.001329  d :     0.006998
      dxz     :     0.000773
      dyz     :     0.000448
      dx2y2   :     0.001979
      dxy     :     0.002469
      f0      :     0.000007  f :     0.000098
      f+1     :     0.000019
      f-1     :     0.000006
      f+2     :     0.000004
      f-2     :     0.000009
      f+3     :     0.000014
      f-3     :     0.000039
  2 Aus       :     0.002150  s :     0.002150
      pz      :     0.000596  p :     0.002421
      px      :     0.000988
      py      :     0.000837
      dz2     :     0.000551  d :     0.003397
      dxz     :     0.001045
      dyz     :     0.001070
      dx2y2   :     0.000165
      dxy     :     0.000566
      f0      :     0.000002  f :     0.000043
      f+1     :     0.000010
      f-1     :     0.000010
      f+2     :     0.000001
      f-2     :     0.000017
      f+3     :     0.000002
      f-3     :     0.000002
  3 Aus       :     0.001803  s :     0.001803
      pz      :     0.000974  p :     0.003043
      px      :     0.000799
      py      :     0.001270
      dz2     :     0.000198  d :     0.003090
      dxz     :     0.001129
      dyz     :     0.000169
      dx2y2   :     0.000857
      dxy     :     0.000737
      f0      :     0.000005  f :     0.000041
      f+1     :     0.000002
      f-1     :     0.000001
      f+2     :     0.000011
      f-2     :     0.000007
      f+3     :     0.000003
      f-3     :     0.000011
  4 Aus       :     0.002038  s :     0.002038
      pz      :     0.000882  p :     0.002588
      px      :     0.000603
      py      :     0.001103
      dz2     :     0.001069  d :     0.006502
      dxz     :     0.000044
      dyz     :     0.001463
      dx2y2   :     0.002916
      dxy     :     0.001010
      f0      :     0.000007  f :     0.000097
      f+1     :     0.000001
      f-1     :     0.000024
      f+2     :     0.000012
      f-2     :     0.000001
      f+3     :     0.000012
      f-3     :     0.000040
  5 Aus       :     0.002252  s :     0.002252
      pz      :     0.000749  p :     0.002205
      px      :     0.001094
      py      :     0.000361
      dz2     :     0.000031  d :     0.000410
      dxz     :     0.000097
      dyz     :     0.000129
      dx2y2   :     0.000063
      dxy     :     0.000090
      f0      :     0.000001  f :     0.000003
      f+1     :     0.000000
      f-1     :     0.000001
      f+2     :     0.000000
      f-2     :     0.000001
      f+3     :     0.000000
      f-3     :     0.000001
  6 Aus       :     0.001808  s :     0.001808
      pz      :     0.001183  p :     0.002905
      px      :     0.000764
      py      :     0.000958
      dz2     :     0.002209  d :     0.006726
      dxz     :     0.000815
      dyz     :     0.002861
      dx2y2   :     0.000453
      dxy     :     0.000388
      f0      :     0.000016  f :     0.000103
      f+1     :     0.000009
      f-1     :     0.000047
      f+2     :     0.000016
      f-2     :     0.000011
      f+3     :     0.000002
      f-3     :     0.000003
  7 Aus       :     0.001908  s :     0.001908
      pz      :     0.001234  p :     0.002979
      px      :     0.000749
      py      :     0.000996
      dz2     :     0.001446  d :     0.006001
      dxz     :     0.001588
      dyz     :     0.001795
      dx2y2   :     0.000389
      dxy     :     0.000783
      f0      :     0.000007  f :     0.000082
      f+1     :     0.000014
      f-1     :     0.000027
      f+2     :     0.000009
      f-2     :     0.000019
      f+3     :     0.000003
      f-3     :     0.000003
  8 Aus       :     0.001916  s :     0.001916
      pz      :     0.001194  p :     0.002833
      px      :     0.000676
      py      :     0.000963
      dz2     :     0.000538  d :     0.002556
      dxz     :     0.000160
      dyz     :     0.000099
      dx2y2   :     0.000469
      dxy     :     0.001290
      f0      :     0.000000  f :     0.000029
      f+1     :     0.000007
      f-1     :     0.000004
      f+2     :     0.000001
      f-2     :     0.000001
      f+3     :     0.000001
      f-3     :     0.000016
  9 Aus       :     0.002075  s :     0.002075
      pz      :     0.001045  p :     0.003041
      px      :     0.000750
      py      :     0.001247
      dz2     :     0.000108  d :     0.001778
      dxz     :     0.000868
      dyz     :     0.000091
      dx2y2   :     0.000585
      dxy     :     0.000125
      f0      :     0.000002  f :     0.000015
      f+1     :     0.000001
      f-1     :     0.000000
      f+2     :     0.000006
      f-2     :     0.000002
      f+3     :     0.000003
      f-3     :     0.000001
 10 Aus       :     0.002359  s :     0.002359
      pz      :     0.000631  p :     0.002243
      px      :     0.001221
      py      :     0.000391
      dz2     :     0.000085  d :     0.000513
      dxz     :     0.000064
      dyz     :     0.000115
      dx2y2   :     0.000074
      dxy     :     0.000175
      f0      :     0.000000  f :     0.000003
      f+1     :     0.000000
      f-1     :     0.000000
      f+2     :     0.000000
      f-2     :     0.000001
      f+3     :     0.000000
      f-3     :     0.000001
 11 Aus       :     0.001684  s :     0.001684
      pz      :     0.000634  p :     0.002860
      px      :     0.001033
      py      :     0.001193
      dz2     :     0.000844  d :     0.003600
      dxz     :     0.001130
      dyz     :     0.000936
      dx2y2   :     0.000224
      dxy     :     0.000467
      f0      :     0.000002  f :     0.000053
      f+1     :     0.000015
      f-1     :     0.000014
      f+2     :     0.000002
      f-2     :     0.000017
      f+3     :     0.000001
      f-3     :     0.000003
 12 Aus       :     0.002224  s :     0.002224
      pz      :     0.000593  p :     0.002473
      px      :     0.001420
      py      :     0.000460
      dz2     :     0.000618  d :     0.006805
      dxz     :     0.002179
      dyz     :     0.000611
      dx2y2   :     0.001717
      dxy     :     0.001679
      f0      :     0.000015  f :     0.000101
      f+1     :     0.000009
      f-1     :     0.000003
      f+2     :     0.000017
      f-2     :     0.000020
      f+3     :     0.000011
      f-3     :     0.000026
 13 Aus       :     0.002166  s :     0.002166
      pz      :     0.000877  p :     0.002548
      px      :     0.000611
      py      :     0.001060
      dz2     :     0.000958  d :     0.006168
      dxz     :     0.000108
      dyz     :     0.000826
      dx2y2   :     0.002488
      dxy     :     0.001788
      f0      :     0.000003  f :     0.000092
      f+1     :     0.000003
      f-1     :     0.000023
      f+2     :     0.000007
      f-2     :     0.000003
      f+3     :     0.000024
      f-3     :     0.000029
 14 Aus       :     0.002199  s :     0.002199
      pz      :     0.000496  p :     0.003052
      px      :     0.001291
      py      :     0.001265
      dz2     :     0.000475  d :     0.001110
      dxz     :     0.000365
      dyz     :     0.000065
      dx2y2   :     0.000158
      dxy     :     0.000047
      f0      :     0.000001  f :     0.000006
      f+1     :     0.000002
      f-1     :     0.000000
      f+2     :     0.000001
      f-2     :     0.000000
      f+3     :     0.000001
      f-3     :     0.000001
 15 Aus       :     0.002041  s :     0.002041
      pz      :     0.000705  p :     0.002182
      px      :     0.000841
      py      :     0.000635
      dz2     :     0.002175  d :     0.005324
      dxz     :     0.000607
      dyz     :     0.002105
      dx2y2   :     0.000268
      dxy     :     0.000168
      f0      :     0.000018  f :     0.000081
      f+1     :     0.000005
      f-1     :     0.000043
      f+2     :     0.000010
      f-2     :     0.000004
      f+3     :     0.000000
      f-3     :     0.000001
 16 Mns       :     0.000096  s :     0.000096
      pz      :     0.000184  p :     0.000686
      px      :     0.000243
      py      :     0.000259
      dz2     :     0.769986  d :     3.859701
      dxz     :     0.774448
      dyz     :     0.770827
      dx2y2   :     0.770260
      dxy     :     0.774180
      f0      :     0.000000  f :     0.000001
      f+1     :     0.000000
      f-1     :     0.000000
      f+2     :     0.000000
      f-2     :     0.000000
      f+3     :     0.000000
      f-3     :     0.000000


                      *****************************
                      * MAYER POPULATION ANALYSIS *
                      *****************************

  NA   - Mulliken gross atomic population
  ZA   - Total nuclear charge
  QA   - Mulliken gross atomic charge
  VA   - Mayer's total valence
  BVA  - Mayer's bonded valence
  FA   - Mayer's free valence

  ATOM       NA         ZA         QA         VA         BVA        FA
  0 Au    18.8052    19.0000     0.1948     1.4214     1.4192     0.0022
  1 Au    19.1663    19.0000    -0.1663     1.8255     1.8215     0.0040
  2 Au    18.7671    19.0000     0.2329     1.3560     1.3532     0.0028
  3 Au    18.6749    19.0000     0.3251     1.3878     1.3853     0.0025
  4 Au    19.0548    19.0000    -0.0548     1.6695     1.6653     0.0042
  5 Au    18.5700    19.0000     0.4300     1.1185     1.1167     0.0019
  6 Au    19.1637    19.0000    -0.1637     1.8633     1.8591     0.0041
  7 Au    19.2162    19.0000    -0.2162     1.9049     1.9010     0.0039
  8 Au    18.7591    19.0000     0.2409     1.3740     1.3717     0.0023
  9 Au    18.7405    19.0000     0.2595     1.4455     1.4434     0.0021
 10 Au    18.5985    19.0000     0.4015     1.1715     1.1695     0.0019
 11 Au    18.6697    19.0000     0.3303     1.3798     1.3772     0.0026
 12 Au    19.0203    19.0000    -0.0203     1.6289     1.6249     0.0040
 13 Au    19.0149    19.0000    -0.0149     1.5833     1.5792     0.0041
 14 Au    18.7289    19.0000     0.2711     1.4096     1.4075     0.0020
 15 Au    18.7729    19.0000     0.2271     1.3317     1.3282     0.0035
 16 Mn    27.2770    25.0000    -2.2770     9.7473     4.9618     4.7855

  Mayer bond orders larger than 0.100000
B(  0-Au,  1-Au) :   0.2001 B(  0-Au,  3-Au) :   0.1750 B(  0-Au,  6-Au) :   0.2031 
B(  0-Au, 13-Au) :   0.1790 B(  0-Au, 14-Au) :   0.2000 B(  0-Au, 16-Mn) :   0.3041 
B(  1-Au,  2-Au) :   0.1861 B(  1-Au,  3-Au) :   0.2188 B(  1-Au,  4-Au) :   0.1493 
B(  1-Au,  5-Au) :   0.2375 B(  1-Au,  7-Au) :   0.1422 B(  1-Au, 14-Au) :   0.2313 
B(  1-Au, 16-Mn) :   0.3468 B(  2-Au,  3-Au) :   0.1707 B(  2-Au,  4-Au) :   0.1611 
B(  2-Au, 11-Au) :   0.1849 B(  2-Au, 16-Mn) :   0.3719 B(  3-Au, 13-Au) :   0.1846 
B(  3-Au, 15-Au) :   0.1902 B(  3-Au, 16-Mn) :   0.3080 B(  4-Au,  5-Au) :   0.2394 
B(  4-Au,  7-Au) :   0.1751 B(  4-Au,  8-Au) :   0.1755 B(  4-Au, 11-Au) :   0.1927 
B(  4-Au, 16-Mn) :   0.3960 B(  5-Au,  7-Au) :   0.2493 B(  5-Au, 14-Au) :   0.1653 
B(  6-Au,  7-Au) :   0.1584 B(  6-Au,  9-Au) :   0.2139 B(  6-Au, 10-Au) :   0.2494 
B(  6-Au, 12-Au) :   0.1034 B(  6-Au, 13-Au) :   0.1671 B(  6-Au, 14-Au) :   0.2502 
B(  6-Au, 16-Mn) :   0.4023 B(  7-Au,  8-Au) :   0.1937 B(  7-Au,  9-Au) :   0.2584 
B(  7-Au, 14-Au) :   0.2404 B(  7-Au, 16-Mn) :   0.3932 B(  8-Au,  9-Au) :   0.1780 
B(  8-Au, 11-Au) :   0.1681 B(  8-Au, 12-Au) :   0.1574 B(  8-Au, 16-Mn) :   0.3303 
B(  9-Au, 10-Au) :   0.1871 B(  9-Au, 12-Au) :   0.2264 B(  9-Au, 16-Mn) :   0.2442 
B( 10-Au, 12-Au) :   0.2179 B( 10-Au, 13-Au) :   0.2341 B( 10-Au, 16-Mn) :   0.1232 
B( 11-Au, 12-Au) :   0.1910 B( 11-Au, 15-Au) :   0.1665 B( 11-Au, 16-Mn) :   0.3246 
B( 12-Au, 13-Au) :   0.1018 B( 12-Au, 15-Au) :   0.1401 B( 12-Au, 16-Mn) :   0.3565 
B( 13-Au, 15-Au) :   0.1368 B( 13-Au, 16-Mn) :   0.3895 B( 14-Au, 16-Mn) :   0.1886 
B( 15-Au, 16-Mn) :   0.4049 


-------------------------------------------------------------
 Forming the transition density       ... done in 2.336704 sec
-------------------------------------------------------------



==========================================
CASSCF UV, CD spectra and dipole moments
==========================================
-------------------
ABSORPTION SPECTRUM
-------------------

Center of mass           = ( 12.3815, 15.5957, 14.0343)
Nuclear contribution to the dipole moment =    -0.798301,   -1.756027,   -9.143555 au

Calculating the Dipole integrals                  ... done
Transforming integrals                            ... done
Calculating the Linear Momentum integrals         ... done
Transforming integrals                            ... done
Calculating the Angular Momentum integrals        ... done
Transforming integrals                            ... done

------------------------------------------------------------------------------
                                 DIPOLE MOMENTS
------------------------------------------------------------------------------
  Root  Block           TX        TY        TZ           |T|
                      (Debye)   (Debye)   (Debye)      (Debye)
------------------------------------------------------------------------------
    0    0            0.00594   0.21283   0.23480      0.31696

--------------
CASSCF TIMINGS
--------------

Total time                       ...     1747.3 sec
Sum of individual times          ...     1703.0 sec ( 97.5%)

Calculation of AO operators
   F(Core) operator              ...      634.6 sec ( 36.3%)
   G(Act) operator               ...      599.8 sec ( 34.3%)
   J(AO) operators               ...        0.0 sec (  0.0%)
Calculation of MO transformed quantities
   J(MO) operators               ...      442.4 sec ( 25.3%)
   (pq|rs) integrals             ...        0.0 sec (  0.0%)
   AO->MO one electron integrals ...        2.0 sec (  0.1%)
Configuration interaction steps
   CI-setup phase                ...        0.0 sec (  0.0%)
   CI-solution phase             ...        9.0 sec (  0.5%)
   Generation of densities       ...        0.1 sec (  0.0%)
Orbital improvement steps
   Orbital gradient              ...        4.2 sec (  0.2%)
   O(1) converger                ...        8.6 sec (  0.5%)
Properties                       ...        2.3 sec (  0.1%)
   SOC integral calculation      ...        0.0 sec (  0.0%)
   SSC RMEs (incl. integrals)    ...        0.0 sec (  0.0%)
   SOC RMEs                      ...        0.0 sec (  0.0%)

Maximum memory used throughout the entire CASSCF-calculation: 369.4 MB

-------------------------   --------------------
FINAL SINGLE POINT ENERGY     -3306.833227640424
-------------------------   --------------------


                            ***************************************
                            *     ORCA property calculations      *
                            ***************************************

                                    ---------------------
                                    Active property flags
                                    ---------------------
   (+) Dipole Moment


------------------------------------------------------------------------------
                       ORCA ELECTRIC PROPERTIES CALCULATION
------------------------------------------------------------------------------

Dipole Moment Calculation                       ... on
Quadrupole Moment Calculation                   ... off
Polarizability Calculation                      ... off
GBWName                                         ... casscf.gbw
Electron density                                ... casscf.scfp
The origin for moment calculation is the CENTER OF MASS  = (12.381540, 15.595691 14.034344)

-------------
DIPOLE MOMENT
-------------
                                X             Y             Z
Electronic contribution:      0.80064       1.83976       9.23593
Nuclear contribution   :     -0.79830      -1.75603      -9.14356
                        -----------------------------------------
Total Dipole Moment    :      0.00234       0.08373       0.09237
                        -----------------------------------------
Magnitude (a.u.)       :      0.12470
Magnitude (Debye)      :      0.31696



--------------------
Rotational spectrum 
--------------------
 
Rotational constants in cm-1:     0.000904     0.000815     0.000811 
Rotational constants in MHz :    27.113646    24.438174    24.322988 

 Dipole components along the rotational axes: 
x,y,z [a.u.] :     0.090391     0.058409     0.062990 
x,y,z [Debye]:     0.229755     0.148464     0.160107 

 

Timings for individual modules:

Sum of individual times         ...     1794.063 sec (=  29.901 min)
GTO integral calculation        ...       20.636 sec (=   0.344 min)   1.2 %
SCF iterations                  ...       17.602 sec (=   0.293 min)   1.0 %
CASSCF iterations               ...     1755.825 sec (=  29.264 min)  97.9 %
                             ****ORCA TERMINATED NORMALLY****
TOTAL RUN TIME: 0 days 0 hours 31 minutes 25 seconds 253 msec
