
                                 *****************
                                 * O   R   C   A *
                                 *****************

                                            #,                                       
                                            ###                                      
                                            ####                                     
                                            #####                                    
                                            ######                                   
                                           ########,                                 
                                     ,,################,,,,,                         
                               ,,#################################,,                 
                          ,,##########################################,,             
                       ,#########################################, ''#####,          
                    ,#############################################,,   '####,        
                  ,##################################################,,,,####,       
                ,###########''''           ''''###############################       
              ,#####''   ,,,,##########,,,,          '''####'''          '####       
            ,##' ,,,,###########################,,,                        '##       
           ' ,,###''''                  '''############,,,                           
         ,,##''                                '''############,,,,        ,,,,,,###''
      ,#''                                            '''#######################'''  
     '                                                          ''''####''''         
             ,#######,   #######,   ,#######,      ##                                
            ,#'     '#,  ##    ##  ,#'     '#,    #''#        ######   ,####,        
            ##       ##  ##   ,#'  ##            #'  '#       #        #'  '#        
            ##       ##  #######   ##           ,######,      #####,   #    #        
            '#,     ,#'  ##    ##  '#,     ,#' ,#      #,         ##   #,  ,#        
             '#######'   ##     ##  '#######'  #'      '#     #####' # '####'        



                  #######################################################
                  #                        -***-                        #
                  #          Department of theory and spectroscopy      #
                  #    Directorship and core code : Frank Neese         #
                  #        Max Planck Institute fuer Kohlenforschung    #
                  #                Kaiser Wilhelm Platz 1               #
                  #                 D-45470 Muelheim/Ruhr               #
                  #                      Germany                        #
                  #                                                     #
                  #                  All rights reserved                #
                  #                        -***-                        #
                  #######################################################


                         Program Version 5.0.3 -  RELEASE  -


 With contributions from (in alphabetic order):
   Daniel Aravena         : Magnetic Suceptibility
   Michael Atanasov       : Ab Initio Ligand Field Theory (pilot matlab implementation)
   Alexander A. Auer      : GIAO ZORA, VPT2 properties, NMR spectrum
   Ute Becker             : Parallelization
   Giovanni Bistoni       : ED, misc. LED, open-shell LED, HFLD
   Martin Brehm           : Molecular dynamics
   Dmytro Bykov           : SCF Hessian
   Vijay G. Chilkuri      : MRCI spin determinant printing, contributions to CSF-ICE
   Dipayan Datta          : RHF DLPNO-CCSD density
   Achintya Kumar Dutta   : EOM-CC, STEOM-CC
   Dmitry Ganyushin       : Spin-Orbit,Spin-Spin,Magnetic field MRCI
   Miquel Garcia          : C-PCM and meta-GGA Hessian, CC/C-PCM, Gaussian charge scheme
   Yang Guo               : DLPNO-NEVPT2, F12-NEVPT2, CIM, IAO-localization
   Andreas Hansen         : Spin unrestricted coupled pair/coupled cluster methods
   Benjamin Helmich-Paris : MC-RPA, TRAH-SCF, COSX integrals
   Lee Huntington         : MR-EOM, pCC
   Robert Izsak           : Overlap fitted RIJCOSX, COSX-SCS-MP3, EOM
   Marcus Kettner         : VPT2
   Christian Kollmar      : KDIIS, OOCD, Brueckner-CCSD(T), CCSD density, CASPT2, CASPT2-K
   Simone Kossmann        : Meta GGA functionals, TD-DFT gradient, OOMP2, MP2 Hessian
   Martin Krupicka        : Initial AUTO-CI
   Lucas Lang             : DCDCAS
   Marvin Lechner         : AUTO-CI (C++ implementation), FIC-MRCC
   Dagmar Lenk            : GEPOL surface, SMD
   Dimitrios Liakos       : Extrapolation schemes; Compound Job, initial MDCI parallelization
   Dimitrios Manganas     : Further ROCIS development; embedding schemes
   Dimitrios Pantazis     : SARC Basis sets
   Anastasios Papadopoulos: AUTO-CI, single reference methods and gradients
   Taras Petrenko         : DFT Hessian,TD-DFT gradient, ASA, ECA, R-Raman, ABS, FL, XAS/XES, NRVS
   Peter Pinski           : DLPNO-MP2, DLPNO-MP2 Gradient
   Christoph Reimann      : Effective Core Potentials
   Marius Retegan         : Local ZFS, SOC
   Christoph Riplinger    : Optimizer, TS searches, QM/MM, DLPNO-CCSD(T), (RO)-DLPNO pert. Triples
   Tobias Risthaus        : Range-separated hybrids, TD-DFT gradient, RPA, STAB
   Michael Roemelt        : Original ROCIS implementation
   Masaaki Saitow         : Open-shell DLPNO-CCSD energy and density
   Barbara Sandhoefer     : DKH picture change effects
   Avijit Sen             : IP-ROCIS
   Kantharuban Sivalingam : CASSCF convergence, NEVPT2, FIC-MRCI
   Bernardo de Souza      : ESD, SOC TD-DFT
   Georgi Stoychev        : AutoAux, RI-MP2 NMR, DLPNO-MP2 response
   Willem Van den Heuvel  : Paramagnetic NMR
   Boris Wezisla          : Elementary symmetry handling
   Frank Wennmohs         : Technical directorship


 We gratefully acknowledge several colleagues who have allowed us to
 interface, adapt or use parts of their codes:
   Stefan Grimme, W. Hujo, H. Kruse, P. Pracht,  : VdW corrections, initial TS optimization,
                  C. Bannwarth, S. Ehlert          DFT functionals, gCP, sTDA/sTD-DF
   Ed Valeev, F. Pavosevic, A. Kumar             : LibInt (2-el integral package), F12 methods
   Garnet Chan, S. Sharma, J. Yang, R. Olivares  : DMRG
   Ulf Ekstrom                                   : XCFun DFT Library
   Mihaly Kallay                                 : mrcc  (arbitrary order and MRCC methods)
   Jiri Pittner, Ondrej Demel                    : Mk-CCSD
   Frank Weinhold                                : gennbo (NPA and NBO analysis)
   Christopher J. Cramer and Donald G. Truhlar   : smd solvation model
   Lars Goerigk                                  : TD-DFT with DH, B97 family of functionals
   V. Asgeirsson, H. Jonsson                     : NEB implementation
   FAccTs GmbH                                   : IRC, NEB, NEB-TS, DLPNO-Multilevel, CI-OPT
                                                   MM, QMMM, 2- and 3-layer-ONIOM, Crystal-QMMM,
                                                   LR-CPCM, SF, NACMEs, symmetry and pop. for TD-DFT,
                                                   nearIR, NL-DFT gradient (VV10), updates on ESD,
                                                   ML-optimized integration grids
   S Lehtola, MJT Oliveira, MAL Marques          : LibXC Library
   Liviu Ungur et al                             : ANISO software


 Your calculation uses the libint2 library for the computation of 2-el integrals
 For citations please refer to: http://libint.valeyev.net

 Your ORCA version has been built with support for libXC version: 5.1.0
 For citations please refer to: https://tddft.org/programs/libxc/

 This ORCA versions uses:
   CBLAS   interface :  Fast vector & matrix operations
   LAPACKE interface :  Fast linear algebra routines
   SCALAPACK package :  Parallel linear algebra routines
   Shared memory     :  Shared parallel matrices
   BLAS/LAPACK       :  OpenBLAS 0.3.15  USE64BITINT DYNAMIC_ARCH NO_AFFINITY Haswell SINGLE_THREADED
        Core in use  :  Haswell
   Copyright (c) 2011-2014, The OpenBLAS Project




***************************************
The coordinates will be read from file: 0.xyz
***************************************


================================================================================

cite the ECPs for Au [Def2-ECP] as follows:
Ce-Yb(ecp-28): M. Dolg, H. Stoll, H.Preuss, J. Chem. Phys., 1989, 90, 1730-1734.
Y-Cd(ecp-28), Hf-Hg(ecp-46): D. Andrae,U. Haeussermann, M. Dolg, H. Stoll, H. Preuss, Theor. Chim. Acta, 1990, 77, 123-141.
In-Sb(ecp-28), Tl-Bi(ecp-46): B. Metz, H. Stoll, M. Dolg, J. Chem. Phys., 2000, 113, 2563-2569.
Te-Xe(ecp-28), Po-Rn(ecp-46): K. A. Peterson, D. Figgen, E. Goll, H. Stoll, M. Dolg, J. Chem. Phys., 2003, 119, 11113-11123.
Rb(ecp-28), Cs(ecp-46): T. Leininger, A. Nicklass, W. Kuechle, H. Stoll, M. Dolg, A. Bergner, Chem. Phys. Lett., 1996, 255, 274-280.
Sr(ecp-28), Ba(ecp-46): M. Kaupp, P. V. Schleyer, H. Stoll and H. Preuss, J. Chem. Phys., 1991, 94, 1360-1366.
La(ecp-46): M. Dolg, H. Stoll, A. Savin, H. Preuss, Theor. Chim. Acta, 1989, 75, 173-194.
Lu(ecp-28): X. Cao, M. Dolg, J. Chem. Phys., 2001, 115, 7348-7355.

ECP parameters for Au [Def2-ECP] have been obtained from:
TURBOMOLE (7.0.2)

----- Orbital basis set information -----
Your calculation utilizes the basis: def2-TZVP
   F. Weigend and R. Ahlrichs, Phys. Chem. Chem. Phys. 7, 3297 (2005).

----- AuxJ basis set information -----
Your calculation utilizes the auxiliary basis: def2/J
   F. Weigend, Phys. Chem. Chem. Phys. 8, 1057 (2006).

================================================================================
                                        WARNINGS
                       Please study these warnings very carefully!
================================================================================


WARNING: your system is open-shell and RHF/RKS was chosen
  ===> : WILL SWITCH to UHF/UKS


WARNING: Geometry Optimization
  ===> : Switching off AutoStart
         For restart on a previous wavefunction, please use MOREAD

INFO   : the flag for use of the SHARK integral package has been found!

================================================================================
                                       INPUT FILE
================================================================================
NAME = pbe.inp
|  1> %pal nprocs 1 end 
|  2> 
|  3> !PBE def2-TZVP OPT UNO
|  4> !SLOWCONV KDIIS 
|  5> 
|  6> %geom maxiter 300 end
|  7> 
|  8> *xyzfile 0 5 0.xyz                           ****END OF INPUT****
================================================================================

                       *****************************
                       * Geometry Optimization Run *
                       *****************************

Geometry optimization settings:
Update method            Update   .... BFGS
Choice of coordinates    CoordSys .... Z-matrix Internals
Initial Hessian          InHess   .... Almoef's Model

Convergence Tolerances:
Energy Change            TolE     ....  5.0000e-06 Eh
Max. Gradient            TolMAXG  ....  3.0000e-04 Eh/bohr
RMS Gradient             TolRMSG  ....  1.0000e-04 Eh/bohr
Max. Displacement        TolMAXD  ....  4.0000e-03 bohr
RMS Displacement         TolRMSD  ....  2.0000e-03 bohr
Strict Convergence                ....  False
------------------------------------------------------------------------------
                        ORCA OPTIMIZATION COORDINATE SETUP
------------------------------------------------------------------------------

The optimization will be done in new redundant internal coordinates
Making redundant internal coordinates   ...  (new redundants) done
Evaluating the initial hessian          ...  (Almloef) done
Evaluating the coordinates              ...  done
Calculating the B-matrix                .... done
Calculating the G-matrix                .... done
Diagonalizing the G-matrix              .... done
The first mode is                       ....  215
The number of degrees of freedom        ....   27

    -----------------------------------------------------------------
                    Redundant Internal Coordinates


    -----------------------------------------------------------------
         Definition                    Initial Value    Approx d2E/dq
    -----------------------------------------------------------------
      1. B(Au  1,Au  0)                  2.8434         0.005809   
      2. B(Au  3,Au  0)                  2.8435         0.005807   
      3. B(Au  5,Au  0)                  2.8441         0.005795   
      4. B(Au  7,Au  4)                  2.8387         0.005909   
      5. B(Au  7,Au  2)                  2.8391         0.005902   
      6. B(Au  7,Au  6)                  2.8394         0.005895   
      7. B(Au  8,Au  7)                  2.8396         0.005891   
      8. B(Au  9,Au  0)                  2.8441         0.005794   
      9. B(Cr 10,Au  8)                  2.5500         0.124083   
     10. B(Cr 10,Au  6)                  2.5499         0.124154   
     11. B(Cr 10,Au  3)                  2.5654         0.117254   
     12. B(Cr 10,Au  0)                  3.2670         0.008909   
     13. B(Cr 10,Au  5)                  2.5657         0.117124   
     14. B(Cr 10,Au  7)                  3.1031         0.016266   
     15. B(Cr 10,Au  9)                  2.5657         0.117156   
     16. B(Cr 10,Au  4)                  2.5493         0.124401   
     17. B(Cr 10,Au  2)                  2.5496         0.124275   
     18. B(Cr 10,Au  1)                  2.5655         0.117214   
     19. A(Au  1,Au  0,Au  3)           64.5608         0.134713   
     20. A(Au  5,Au  0,Au  9)           64.5617         0.134664   
     21. A(Au  3,Au  0,Au  9)           98.0985         0.134686   
     22. A(Au  3,Au  0,Au  5)           64.5649         0.134688   
     23. A(Au  1,Au  0,Au  5)           98.1028         0.134691   
     24. A(Au  1,Au  0,Cr 10)           49.0511         0.145483   
     25. A(Au  5,Au  0,Cr 10)           49.0517         0.145452   
     26. A(Au  1,Au  0,Au  9)           64.5582         0.134689   
     27. A(Au  9,Au  0,Cr 10)           49.0498         0.145449   
     28. A(Au  3,Au  0,Cr 10)           49.0487         0.145479   
     29. A(Au  0,Au  1,Cr 10)           74.1134         0.190209   
     30. A(Au  7,Au  2,Cr 10)           70.0840         0.191928   
     31. A(Au  0,Au  3,Cr 10)           74.1134         0.190210   
     32. A(Au  7,Au  4,Cr 10)           70.0933         0.191980   
     33. A(Au  0,Au  5,Cr 10)           74.0987         0.190135   
     34. A(Au  7,Au  6,Cr 10)           70.0748         0.191876   
     35. A(Au  2,Au  7,Au  8)          101.1607         0.135027   
     36. A(Au  2,Au  7,Au  6)           66.2200         0.135034   
     37. A(Au  2,Au  7,Au  4)           66.2168         0.135060   
     38. A(Au  4,Au  7,Au  6)          101.1552         0.135047   
     39. A(Au  6,Au  7,Au  8)           66.2222         0.135014   
     40. A(Au  4,Au  7,Au  8)           66.2168         0.135040   
     41. A(Au  8,Au  7,Cr 10)           50.5829         0.153933   
     42. A(Au  4,Au  7,Cr 10)           50.5743         0.153979   
     43. A(Au  2,Au  7,Cr 10)           50.5777         0.153961   
     44. A(Au  6,Au  7,Cr 10)           50.5809         0.153943   
     45. A(Au  7,Au  8,Cr 10)           70.0697         0.191847   
     46. A(Au  0,Au  9,Cr 10)           74.0989         0.190137   
     47. A(Au  6,Cr 10,Au  7)           59.3443         0.234174   
     48. A(Au  4,Cr 10,Au  7)           59.3324         0.234240   
     49. A(Au  2,Cr 10,Au  8)          118.6856         0.318992   
     50. A(Au  2,Cr 10,Au  7)           59.3382         0.234206   
     51. A(Au  1,Cr 10,Au  7)          123.1558         0.232297   
     52. A(Au  1,Cr 10,Au  8)          106.1896         0.315967   
     53. A(Au  1,Cr 10,Au  5)          113.6852         0.313022   
     54. A(Au  5,Cr 10,Au  6)           63.8147         0.315957   
     55. A(Au  8,Cr 10,Au  9)           63.8033         0.315942   
     56. A(Au  4,Cr 10,Au  6)          118.6766         0.319075   
     57. A(Au  3,Cr 10,Au  4)          106.1956         0.316116   
     58. A(Au  2,Cr 10,Au  3)           63.8219         0.316064   
     59. A(Au  6,Cr 10,Au  9)          106.1962         0.315971   
     60. A(Au  5,Cr 10,Au  9)           72.6011         0.312997   
     61. A(Au  3,Cr 10,Au  6)          106.2005         0.316014   
     62. A(Au  0,Cr 10,Au  9)           56.8513         0.214030   
     63. A(Au  4,Cr 10,Au  9)          106.1876         0.316073   
     64. A(Au  0,Cr 10,Au  8)          120.6546         0.215666   
     65. A(Au  0,Cr 10,Au  6)          120.6644         0.215683   
     66. A(Au  3,Cr 10,Au  9)          113.6893         0.313053   
     67. A(Au  2,Cr 10,Au  6)           74.9294         0.319022   
     68. A(Au  2,Cr 10,Au  4)           74.9244         0.319125   
     69. A(Au  0,Cr 10,Au  5)           56.8496         0.214022   
     70. A(Au  0,Cr 10,Au  4)          120.6590         0.215740   
     71. A(Au  1,Cr 10,Au  9)           72.5907         0.313036   
     72. A(Au  0,Cr 10,Au  3)           56.8379         0.214054   
     73. A(Au  0,Cr 10,Au  2)          120.6598         0.215711   
     74. A(Au  6,Cr 10,Au  8)           74.9329         0.318941   
     75. A(Au  3,Cr 10,Au  5)           72.5992         0.313039   
     76. A(Au  3,Cr 10,Au  7)          123.1601         0.232308   
     77. A(Au  0,Cr 10,Au  1)           56.8356         0.214044   
     78. A(Au  5,Cr 10,Au  7)          123.1590         0.232272   
     79. A(Au  5,Cr 10,Au  8)          106.1911         0.315928   
     80. A(Au  7,Cr 10,Au  8)           59.3474         0.234156   
     81. A(Au  7,Cr 10,Au  9)          123.1506         0.232281   
     82. A(Au  4,Cr 10,Au  8)           74.9253         0.319045   
     83. A(Au  2,Cr 10,Au  5)          106.1987         0.316007   
     84. A(Au  1,Cr 10,Au  4)           63.8234         0.316099   
     85. A(Au  1,Cr 10,Au  3)           72.5880         0.313078   
     86. A(Au  1,Cr 10,Au  2)          106.1955         0.316047   
     87. D(Cr 10,Au  1,Au  0,Au  5)     -0.0042         0.001501   
     88. D(Cr 10,Au  1,Au  0,Au  9)    -56.7610         0.001501   
     89. D(Cr 10,Au  1,Au  0,Au  3)     56.7576         0.001501   
     90. D(Cr 10,Au  3,Au  0,Au  1)    -56.7608         0.001501   
     91. D(Cr 10,Au  3,Au  0,Au  5)     56.7586         0.001501   
     92. D(Cr 10,Au  3,Au  0,Au  9)     -0.0042         0.001501   
     93. D(Cr 10,Au  5,Au  0,Au  9)     56.7584         0.001501   
     94. D(Cr 10,Au  5,Au  0,Au  3)    -56.7546         0.001501   
     95. D(Cr 10,Au  5,Au  0,Au  1)      0.0042         0.001501   
     96. D(Au  0,Au  5,Au  4,Au  7)    179.9942         0.001500   
     97. D(Au  7,Au  6,Au  1,Au  0)   -179.9966         0.001500   
     98. D(Au  4,Au  7,Au  0,Au  1)      0.0000         0.001500   
     99. D(Au  6,Au  7,Au  4,Cr 10)      0.0020         0.001501   
    100. D(Au  8,Au  7,Au  4,Cr 10)     57.5905         0.001501   
    101. D(Au  2,Au  7,Au  0,Au  9)   -179.9964         0.001500   
    102. D(Au  8,Au  7,Au  0,Au  1)    -90.0000         0.001500   
    103. D(Au  8,Au  7,Au  0,Au  9)     -0.0025         0.001500   
    104. D(Au  8,Au  7,Au  2,Cr 10)      0.0009         0.001501   
    105. D(Au  6,Au  7,Au  0,Au  1)   -179.9958         0.001500   
    106. D(Au  6,Au  7,Au  0,Au  3)     90.0000         0.001500   
    107. D(Au  8,Au  7,Au  0,Au  5)     89.9928         0.001500   
    108. D(Au  8,Au  7,Au  0,Au  3)    179.9957         0.001500   
    109. D(Au  2,Au  7,Au  0,Au  1)     90.0061         0.001500   
    110. D(Au  2,Au  7,Au  4,Cr 10)    -57.5838         0.001501   
    111. D(Au  4,Au  7,Au  6,Cr 10)     -0.0020         0.001501   
    112. D(Au  4,Au  7,Au  2,Cr 10)     57.5793         0.001501   
    113. D(Au  2,Au  7,Au  0,Au  5)    -90.0011         0.001500   
    114. D(Au  2,Au  7,Au  6,Cr 10)     57.5816         0.001501   
    115. D(Au  6,Au  7,Au  0,Au  9)    -89.9982         0.001500   
    116. D(Au  4,Au  7,Au  0,Au  3)    -90.0042         0.001500   
    117. D(Au  6,Au  7,Au  0,Au  5)     -0.0030         0.001500   
    118. D(Au  2,Au  7,Au  0,Au  3)      0.0018         0.001500   
    119. D(Au  4,Au  7,Au  0,Au  5)    179.9928         0.001500   
    120. D(Au  4,Au  7,Au  0,Au  9)     89.9976         0.001500   
    121. D(Au  8,Au  7,Au  6,Cr 10)    -57.5867         0.001501   
    122. D(Au  6,Au  7,Au  2,Cr 10)    -57.5857         0.001501   
    123. D(Cr 10,Au  8,Au  7,Au  6)     57.5841         0.001501   
    124. D(Au  7,Au  8,Au  3,Au  0)    179.9966         0.001500   
    125. D(Cr 10,Au  8,Au  7,Au  2)     -0.0009         0.001501   
    126. D(Cr 10,Au  8,Au  7,Au  4)    -57.5793         0.001501   
    127. D(Au  0,Au  9,Au  2,Au  7)   -179.9971         0.001500   
    128. D(Cr 10,Au  9,Au  0,Au  5)    -56.7609         0.001501   
    129. D(Cr 10,Au  9,Au  0,Au  3)      0.0042         0.001501   
    130. D(Cr 10,Au  9,Au  0,Au  1)     56.7627         0.001501   
    131. D(Au  6,Cr 10,Au  0,Au  1)   -179.9986         0.001501   
    132. D(Au  2,Cr 10,Au  7,Au  6)     90.0010         0.001502   
    133. D(Au  5,Cr 10,Au  0,Au  3)     90.0058         0.001501   
    134. D(Au  4,Cr 10,Au  0,Au  9)     89.9959         0.001501   
    135. D(Au  9,Cr 10,Au  6,Au  7)    119.3272         0.001568   
    136. D(Au  8,Cr 10,Au  6,Au  7)     62.9867         0.001568   
    137. D(Au  4,Cr 10,Au  0,Au  3)    -89.9986         0.001501   
    138. D(Au  4,Cr 10,Au  0,Au  1)      0.0012         0.001501   
    139. D(Au  2,Cr 10,Au  6,Au  7)    -62.9780         0.001568   
    140. D(Au  3,Cr 10,Au  0,Au  9)    179.9945         0.001501   
    141. D(Au  3,Cr 10,Au  0,Au  5)    -90.0058         0.001501   
    142. D(Au  4,Cr 10,Au  0,Au  5)    179.9957         0.001501   
    143. D(Au  1,Cr 10,Au  7,Au  4)     -0.0012         0.001502   
    144. D(Au  5,Cr 10,Au  0,Au  1)   -179.9945         0.001501   
    145. D(Au  2,Cr 10,Au  7,Au  8)   -179.9988         0.001502   
    146. D(Au  5,Cr 10,Au  0,Au  9)    -89.9997         0.001501   
    147. D(Au  3,Cr 10,Au  7,Au  6)     90.0084         0.001502   
    148. D(Au  6,Cr 10,Au  0,Au  3)     90.0016         0.001501   
    149. D(Au  8,Cr 10,Au  5,Au  0)   -116.3904         0.001560   
    150. D(Au  6,Cr 10,Au  5,Au  0)    179.9960         0.001560   
    151. D(Au  3,Cr 10,Au  0,Au  1)     89.9998         0.001501   
    152. D(Au  2,Cr 10,Au  0,Au  9)    179.9912         0.001501   
    153. D(Au  0,Cr 10,Au  4,Au  7)    179.9977         0.001568   
    154. D(Au  2,Cr 10,Au  0,Au  5)    -90.0091         0.001501   
    155. D(Au  8,Cr 10,Au  4,Au  7)    -62.9908         0.001568   
    156. D(Au  2,Cr 10,Au  0,Au  3)     -0.0033         0.001501   
    157. D(Au  6,Cr 10,Au  4,Au  7)     -0.0025         0.001568   
    158. D(Au  3,Cr 10,Au  4,Au  7)    119.3385         0.001568   
    159. D(Au  2,Cr 10,Au  0,Au  1)     89.9965         0.001501   
    160. D(Au  1,Cr 10,Au  0,Au  9)     89.9947         0.001501   
    161. D(Au  9,Cr 10,Au  3,Au  0)      0.0050         0.001561   
    162. D(Au  1,Cr 10,Au  0,Au  5)    179.9945         0.001501   
    163. D(Au  1,Cr 10,Au  0,Au  3)    -89.9998         0.001501   
    164. D(Au  4,Cr 10,Au  3,Au  0)    116.3930         0.001561   
    165. D(Au  2,Cr 10,Au  3,Au  0)    179.9968         0.001561   
    166. D(Au  0,Cr 10,Au  2,Au  7)   -179.9900         0.001568   
    167. D(Au  8,Cr 10,Au  2,Au  7)     -0.0012         0.001568   
    168. D(Au  6,Cr 10,Au  2,Au  7)     62.9850         0.001568   
    169. D(Au  5,Cr 10,Au  2,Au  7)    119.3356         0.001568   
    170. D(Au  4,Cr 10,Au  2,Au  7)    -62.9738         0.001568   
    171. D(Au  3,Cr 10,Au  2,Au  7)   -179.9930         0.001568   
    172. D(Au  1,Cr 10,Au  3,Au  0)     61.3189         0.001561   
    173. D(Au  1,Cr 10,Au  2,Au  7)   -119.3336         0.001568   
    174. D(Au  7,Cr 10,Au  1,Au  0)   -179.9977         0.001561   
    175. D(Au  5,Cr 10,Au  3,Au  0)    -61.3293         0.001561   
    176. D(Au  6,Cr 10,Au  3,Au  0)   -116.3966         0.001561   
    177. D(Au  7,Cr 10,Au  9,Au  0)   -179.9897         0.001561   
    178. D(Au  7,Cr 10,Au  3,Au  0)    179.9897         0.001561   
    179. D(Au  1,Cr 10,Au  4,Au  7)    179.9988         0.001568   
    180. D(Au  2,Cr 10,Au  4,Au  7)     62.9806         0.001568   
    181. D(Au  9,Cr 10,Au  1,Au  0)     61.3361         0.001561   
    182. D(Au  8,Cr 10,Au  1,Au  0)    116.3913         0.001561   
    183. D(Au  5,Cr 10,Au  9,Au  0)     61.3281         0.001561   
    184. D(Au  9,Cr 10,Au  4,Au  7)   -119.3316         0.001568   
    185. D(Au  4,Cr 10,Au  9,Au  0)   -116.3977         0.001561   
    186. D(Au  1,Cr 10,Au  5,Au  0)     -0.0051         0.001560   
    187. D(Au  2,Cr 10,Au  5,Au  0)    116.3922         0.001560   
    188. D(Au  3,Cr 10,Au  5,Au  0)     61.3153         0.001560   
    189. D(Au  5,Cr 10,Au  1,Au  0)      0.0051         0.001561   
    190. D(Au  4,Cr 10,Au  1,Au  0)   -179.9989         0.001561   
    191. D(Au  9,Cr 10,Au  5,Au  0)    -61.3301         0.001560   
    192. D(Au  7,Cr 10,Au  5,Au  0)    179.9977         0.001560   
    193. D(Au  9,Cr 10,Au  8,Au  7)    179.9924         0.001567   
    194. D(Au  3,Cr 10,Au  6,Au  7)   -119.3359         0.001568   
    195. D(Au  4,Cr 10,Au  6,Au  7)      0.0025         0.001568   
    196. D(Au  5,Cr 10,Au  6,Au  7)    179.9984         0.001568   
    197. D(Au  3,Cr 10,Au  1,Au  0)    -61.3217         0.001561   
    198. D(Au  2,Cr 10,Au  1,Au  0)   -116.3941         0.001561   
    199. D(Au  0,Cr 10,Au  6,Au  7)   -179.9977         0.001568   
    200. D(Au  1,Cr 10,Au  7,Au  2)     90.0003         0.001502   
    201. D(Au  4,Cr 10,Au  8,Au  7)     62.9734         0.001567   
    202. D(Au  1,Cr 10,Au  7,Au  6)   -179.9987         0.001502   
    203. D(Au  1,Cr 10,Au  7,Au  8)    -89.9985         0.001502   
    204. D(Au  2,Cr 10,Au  7,Au  4)    -90.0016         0.001502   
    205. D(Au  2,Cr 10,Au  8,Au  7)      0.0012         0.001567   
    206. D(Au  9,Cr 10,Au  0,Au  5)     89.9997         0.001501   
    207. D(Au  3,Cr 10,Au  7,Au  2)      0.0075         0.001502   
    208. D(Au  3,Cr 10,Au  7,Au  4)    -89.9941         0.001502   
    209. D(Au  9,Cr 10,Au  0,Au  3)   -179.9945         0.001501   
    210. D(Au  3,Cr 10,Au  7,Au  8)   -179.9913         0.001502   
    211. D(Au  4,Cr 10,Au  7,Au  2)     90.0016         0.001502   
    212. D(Au  4,Cr 10,Au  7,Au  6)   -179.9975         0.001502   
    213. D(Au  9,Cr 10,Au  7,Au  4)     89.9891         0.001502   
    214. D(Au  9,Cr 10,Au  0,Au  1)    -89.9947         0.001501   
    215. D(Au  8,Cr 10,Au  0,Au  9)      0.0026         0.001501   
    216. D(Au  8,Cr 10,Au  7,Au  4)     89.9973         0.001502   
    217. D(Au  8,Cr 10,Au  7,Au  2)    179.9988         0.001502   
    218. D(Au  8,Cr 10,Au  0,Au  5)     90.0024         0.001501   
    219. D(Au  6,Cr 10,Au  7,Au  8)     90.0002         0.001502   
    220. D(Au  6,Cr 10,Au  7,Au  4)    179.9975         0.001502   
    221. D(Au  8,Cr 10,Au  0,Au  3)   -179.9919         0.001501   
    222. D(Au  6,Cr 10,Au  7,Au  2)    -90.0010         0.001502   
    223. D(Au  8,Cr 10,Au  7,Au  6)    -90.0002         0.001502   
    224. D(Au  9,Cr 10,Au  7,Au  2)    179.9907         0.001502   
    225. D(Au  5,Cr 10,Au  7,Au  8)     89.9985         0.001502   
    226. D(Au  9,Cr 10,Au  7,Au  6)    -90.0083         0.001502   
    227. D(Au  9,Cr 10,Au  7,Au  8)     -0.0081         0.001502   
    228. D(Au  1,Cr 10,Au  8,Au  7)    119.3366         0.001567   
    229. D(Au  8,Cr 10,Au  0,Au  1)    -89.9921         0.001501   
    230. D(Au  5,Cr 10,Au  7,Au  6)     -0.0017         0.001502   
    231. D(Au  5,Cr 10,Au  8,Au  7)   -119.3396         0.001567   
    232. D(Au  6,Cr 10,Au  8,Au  7)    -62.9831         0.001567   
    233. D(Au  5,Cr 10,Au  7,Au  4)    179.9958         0.001502   
    234. D(Au  0,Cr 10,Au  8,Au  7)    179.9900         0.001567   
    235. D(Au  1,Cr 10,Au  9,Au  0)    -61.3173         0.001561   
    236. D(Au  3,Cr 10,Au  9,Au  0)     -0.0050         0.001561   
    237. D(Au  6,Cr 10,Au  0,Au  9)    -90.0039         0.001501   
    238. D(Au  5,Cr 10,Au  7,Au  2)    -90.0027         0.001502   
    239. D(Au  6,Cr 10,Au  9,Au  0)    116.3991         0.001561   
    240. D(Au  8,Cr 10,Au  9,Au  0)   -179.9975         0.001561   
    241. D(Au  4,Cr 10,Au  7,Au  8)    -89.9973         0.001502   
    242. D(Au  6,Cr 10,Au  0,Au  5)     -0.0041         0.001501   
    -----------------------------------------------------------------

Number of atoms                         .... 11
Number of degrees of freedom            .... 242

         *************************************************************
         *                GEOMETRY OPTIMIZATION CYCLE   1            *
         *************************************************************
---------------------------------
CARTESIAN COORDINATES (ANGSTROEM)
---------------------------------
  Au     7.809289    6.276610    5.123624
  Au     5.613297    7.628198    6.321873
  Au     6.051271    5.553945    9.819991
  Au     6.526952    4.882559    7.244389
  Au     5.118518    8.357692    8.877962
  Au     9.378482    5.905790    7.466457
  Au     8.963011    6.598893   10.046750
  Au     6.736718    7.952844   11.174906
  Au     8.029807    9.403335    9.104320
  Au     8.464289    8.652056    6.543929
  Cr     7.259443    7.136238    8.227152

----------------------------
CARTESIAN COORDINATES (A.U.)
----------------------------
  NO LB      ZA    FRAG     MASS         X           Y           Z
   0 Au   19.0000*   0   196.966   14.757417   11.861073    9.682246
   1 Au   19.0000*   0   196.966   10.607594   14.415205   11.946608
   2 Au   19.0000*   0   196.966   11.435244   10.495435   18.557094
   3 Au   19.0000*   0   196.966   12.334152    9.226700   13.689912
   4 Au   19.0000*   0   196.966    9.672598   15.793748   16.776916
   5 Au   19.0000*   0   196.966   17.722762   11.160326   14.109559
   6 Au   19.0000*   0   196.966   16.937636   12.470101   18.985607
   7 Au   19.0000*   0   196.966   12.730553   15.028697   21.117513
   8 Au   19.0000*   0   196.966   15.174137   17.769727   17.204672
   9 Au   19.0000*   0   196.966   15.995188   16.350017   12.366234
  10 Cr   24.0000    0    52.000   13.718359   13.485536   15.547064
* core charge reduced due to ECP

--------------------------------
INTERNAL COORDINATES (ANGSTROEM)
--------------------------------
 Au     0   0   0     0.000000000000     0.00000000     0.00000000
 Au     1   0   0     2.843408328008     0.00000000     0.00000000
 Au     2   1   0     4.090376343096    92.10052505     0.00000000
 Au     3   2   1     2.703841256034    47.94142719   328.22740010
 Au     2   1   3     2.703804247868   131.91027789    32.44739389
 Au     1   2   3     2.844071680831    98.10275153   327.54707476
 Au     6   1   2     2.703871546372   131.90591450     0.00000000
 Au     5   2   1     2.838736897872   128.47299213     0.00000000
 Au     8   5   2     2.839600460846    66.21675217    57.59178120
 Au     9   8   5     2.703478451525   128.44939242   302.42891458
 Cr     5   2   1     2.549325163029    58.37966331     0.00000000

---------------------------
INTERNAL COORDINATES (A.U.)
---------------------------
 Au     0   0   0     0.000000000000     0.00000000     0.00000000
 Au     1   0   0     5.373263026846     0.00000000     0.00000000
 Au     2   1   0     7.729691073122    92.10052505     0.00000000
 Au     3   2   1     5.109519483502    47.94142719   328.22740010
 Au     2   1   3     5.109449548203   131.91027789    32.44739389
 Au     1   2   3     5.374516582011    98.10275153   327.54707476
 Au     6   1   2     5.109576723945   131.90591450     0.00000000
 Au     5   2   1     5.364435303234   128.47299213     0.00000000
 Au     8   5   2     5.366067200755    66.21675217    57.59178120
 Au     9   8   5     5.108833882340   128.44939242   302.42891458
 Cr     5   2   1     4.817526384440    58.37966331     0.00000000

---------------------
BASIS SET INFORMATION
---------------------
There are 2 groups of distinct atoms

 Group   1 Type Au  : 8s7p6d1f contracted to 6s4p3d1f pattern {311111/4111/411/1}
 Group   2 Type Cr  : 17s11p7d1f contracted to 6s4p4d1f pattern {842111/6311/4111/1}

Atom   0Au   basis set group =>   1
Atom   1Au   basis set group =>   1
Atom   2Au   basis set group =>   1
Atom   3Au   basis set group =>   1
Atom   4Au   basis set group =>   1
Atom   5Au   basis set group =>   1
Atom   6Au   basis set group =>   1
Atom   7Au   basis set group =>   1
Atom   8Au   basis set group =>   1
Atom   9Au   basis set group =>   1
Atom  10Cr   basis set group =>   2
---------------------------------
AUXILIARY/J BASIS SET INFORMATION
---------------------------------
There are 2 groups of distinct atoms

 Group   1 Type Au  : 11s5p5d3f3g contracted to 8s5p5d2f3g pattern {41111111/11111/11111/21/111}
 Group   2 Type Cr  : 19s5p5d3f3g contracted to 8s5p5d2f3g pattern {121111111/11111/11111/21/111}

Atom   0Au   basis set group =>   1
Atom   1Au   basis set group =>   1
Atom   2Au   basis set group =>   1
Atom   3Au   basis set group =>   1
Atom   4Au   basis set group =>   1
Atom   5Au   basis set group =>   1
Atom   6Au   basis set group =>   1
Atom   7Au   basis set group =>   1
Atom   8Au   basis set group =>   1
Atom   9Au   basis set group =>   1
Atom  10Cr   basis set group =>   2
-------------------------
ECP PARAMETER INFORMATION
-------------------------

 Group 1, Type Au ECP Def2-ECP (replacing 60 core electrons, lmax=3)

Atom   0Au   ECP group =>   1
Atom   1Au   ECP group =>   1
Atom   2Au   ECP group =>   1
Atom   3Au   ECP group =>   1
Atom   4Au   ECP group =>   1
Atom   5Au   ECP group =>   1
Atom   6Au   ECP group =>   1
Atom   7Au   ECP group =>   1
Atom   8Au   ECP group =>   1
Atom   9Au   ECP group =>   1

------------------------------------------------------------------------------
                           ORCA GTO INTEGRAL CALCULATION
                           -- RI-GTO INTEGRALS CHOSEN --
------------------------------------------------------------------------------
------------------------------------------------------------------------------
                   ___                                                        
                  /   \      - P O W E R E D   B Y -                         
                 /     \                                                     
                 |  |  |   _    _      __       _____    __    __             
                 |  |  |  | |  | |    /  \     |  _  \  |  |  /  |          
                  \  \/   | |  | |   /    \    | | | |  |  | /  /          
                 / \  \   | |__| |  /  /\  \   | |_| |  |  |/  /          
                |  |  |   |  __  | /  /__\  \  |    /   |      \           
                |  |  |   | |  | | |   __   |  |    \   |  |\   \          
                \     /   | |  | | |  |  |  |  | |\  \  |  | \   \       
                 \___/    |_|  |_| |__|  |__|  |_| \__\ |__|  \__/        
                                                                              
                      - O R C A' S   B I G   F R I E N D -                    
                                      &                                       
                       - I N T E G R A L  F E E D E R -                       
                                                                              
 v1 FN, 2020, v2 2021                                                         
------------------------------------------------------------------------------


Reading SHARK input file pbe.SHARKINP.tmp ... ok
----------------------
SHARK INTEGRAL PACKAGE
----------------------

Number of atoms                             ...     11
Number of basis functions                   ...    445
Number of shells                            ...    155
Maximum angular momentum                    ...      3
Integral batch strategy                     ... SHARK/LIBINT Hybrid
RI-J (if used) integral strategy            ... SPLIT-RIJ (Revised 2003 algorithm where possible)
Printlevel                                  ...      1
Contraction scheme used                     ... SEGMENTED contraction
Coulomb Range Separation                    ... NOT USED
Exchange Range Separation                   ... NOT USED
Finite Nucleus Model                        ... NOT USED
Auxiliary Coulomb fitting basis             ... AVAILABLE
   # of basis functions in Aux-J            ...    979
   # of shells in Aux-J                     ...    253
   Maximum angular momentum in Aux-J        ...      4
Auxiliary J/K fitting basis                 ... NOT available
Auxiliary Correlation fitting basis         ... NOT available
Auxiliary 'external' fitting basis          ... NOT available
Integral threshold                          ...     2.500000e-11
Primitive cut-off                           ...     2.500000e-12
Primitive pair pre-selection threshold      ...     2.500000e-12

Calculating pre-screening integrals         ... done (  0.3 sec) Dimension = 155
Organizing shell pair data                  ... done (  0.4 sec)
Shell pair information
Total number of shell pairs                 ...     12090
Shell pairs after pre-screening             ...     10314
Total number of primitive shell pairs       ...     33105
Primitive shell pairs kept                  ...     21132
          la=0 lb=0:   1611 shell pairs
          la=1 lb=0:   2361 shell pairs
          la=1 lb=1:    888 shell pairs
          la=2 lb=0:   2031 shell pairs
          la=2 lb=1:   1414 shell pairs
          la=2 lb=2:    580 shell pairs
          la=3 lb=0:    582 shell pairs
          la=3 lb=1:    426 shell pairs
          la=3 lb=2:    356 shell pairs
          la=3 lb=3:     65 shell pairs

Calculating one electron integrals          ... done (  0.1 sec)
Calculating ECP integrals                   ... done (  5.7 sec)
Calculating RI/J V-Matrix + Cholesky decomp.... done (  0.0 sec)
Calculating Nuclear repulsion               ... done (  0.0 sec) ENN=   3257.730315090266 Eh

SHARK setup successfully completed in   7.0 seconds

Maximum memory used throughout the entire GTOINT-calculation: 317.3 MB
-------------------------------------------------------------------------------
                                 ORCA SCF
-------------------------------------------------------------------------------

------------
SCF SETTINGS
------------
Hamiltonian:
 Density Functional     Method          .... DFT(GTOs)
 Exchange Functional    Exchange        .... PBE
   PBE kappa parameter   XKappa         ....  0.804000
   PBE mue parameter    XMuePBE         ....  0.219520
 Correlation Functional Correlation     .... PBE
   PBE beta parameter  CBetaPBE         ....  0.066725
 LDA part of GGA corr.  LDAOpt          .... PW91-LDA
 Gradients option       PostSCFGGA      .... off
   Density functional embedding theory  .... OFF
   NL short-range parameter             ....  6.400000
 RI-approximation to the Coulomb term is turned on
   Number of AuxJ basis functions       .... 979


General Settings:
 Integral files         IntName         .... pbe
 Hartree-Fock type      HFTyp           .... UHF
 Total Charge           Charge          ....    0
 Multiplicity           Mult            ....    5
 Number of Electrons    NEL             ....  214
 Basis Dimension        Dim             ....  445
 Nuclear Repulsion      ENuc            ....   3257.7303150903 Eh

Convergence Acceleration:
 DIIS                   CNVDIIS         .... off
 Trust-Rad. Augm. Hess. CNVTRAH         .... auto
   Auto Start mean grad. ratio tolernc. ....  1.125000
   Auto Start start iteration           ....    20
   Auto Start num. interpolation iter.  ....    10
   Max. Number of Micro iterations      ....    16
   Max. Number of Macro iterations      .... Maxiter - #DIIS iter
   Number of Davidson start vectors     ....     2
   Converg. threshold I  (grad. norm)   ....   1.000e-05
   Converg. threshold II (energy diff.) ....   1.000e-08
   Grad. Scal. Fac. for Micro threshold ....   0.100
   Minimum threshold for Micro iter.    ....   0.010
   NR start threshold (gradient norm)   ....   0.001
   Initial trust radius                 ....   0.400
   Minimum AH scaling param. (alpha)    ....   1.000
   Maximum AH scaling param. (alpha)    .... 1000.000
   Orbital update algorithm             .... Taylor
   White noise on init. David. guess    .... on
   Maximum white noise                  ....   0.010
   Quad. conv. algorithm                .... NR
 SOSCF                  CNVSOSCF        .... off
 Level Shifting         CNVShift        .... off
 Zerner damping         CNVZerner       .... off
 Static damping         CNVDamp         .... off
 Fernandez-Rico         CNVRico         .... off

SCF Procedure:
 Maximum # iterations   MaxIter         ....   125
 SCF integral mode      SCFMode         .... Direct
   Integral package                     .... SHARK and LIBINT hybrid scheme
 Reset frequency        DirectResetFreq ....    20
 Integral Threshold     Thresh          ....  2.500e-11 Eh
 Primitive CutOff       TCut            ....  2.500e-12 Eh

Convergence Tolerance:
 Convergence Check Mode ConvCheckMode   .... Total+1el-Energy
 Convergence forced     ConvForced      .... 0
 Energy Change          TolE            ....  1.000e-08 Eh
 1-El. energy change                    ....  1.000e-05 Eh


Diagonalization of the overlap matrix:
Smallest eigenvalue                        ... 1.369e-04
Time for diagonalization                   ...    0.048 sec
Threshold for overlap eigenvalues          ... 1.000e-08
Number of eigenvalues below threshold      ... 0
Time for construction of square roots      ...    0.010 sec
Total time needed                          ...    0.059 sec

Time for model grid setup =    0.760 sec

------------------------------
INITIAL GUESS: MODEL POTENTIAL
------------------------------
Loading Hartree-Fock densities                     ... done
  calling /media/Programs/ORCA501/orca pbe_atom79.inp > pbe_atom79.out in order to generate an atomic fitting density for atom 0 (Au with ECP) on-the-fly... 
    atom 0 (Au), assumed electronic state with S=2: 1s2 2s2 2p6 3s2 3p6 4s2 3d10 4p6 5s2 4d10 5p6 6s1 4f14 5d10           ... done
Calculating cut-offs                               ... done
Initializing the effective Hamiltonian             ... done
Setting up the integral package (SHARK)            ... done
Starting the Coulomb interaction                   ... done (   1.2 sec)
Reading the grid                                   ... done
Mapping shells                                     ... done
Starting the XC term evaluation                    ... done (   1.7 sec)
  promolecular density results
     # of electrons  =    814.011513211
     EX              =  -3705.486306133
     EC              =    -49.451256468
     EX+EC           =  -3754.937562602
Transforming the Hamiltonian                       ... done (   0.0 sec)
Diagonalizing the Hamiltonian                      ... done (   0.0 sec)
Back transforming the eigenvectors                 ... done (   0.0 sec)
Now organizing SCF variables                       ... done
                      ------------------
                      INITIAL GUESS DONE (   4.4 sec)
                      ------------------
-------------------
DFT GRID GENERATION
-------------------

General Integration Accuracy     IntAcc      ... 4.388
Radial Grid Type                 RadialGrid  ... OptM3 with GC (2021)
Angular Grid (max. ang.)         AngularGrid ... 4 (Lebedev-302)
Angular grid pruning method      GridPruning ... 4 (adaptive)
Weight generation scheme         WeightScheme... Becke
Basis function cutoff            BFCut       ... 1.0000e-11
Integration weight cutoff        WCut        ... 1.0000e-14
Angular grids for H and He will be reduced by one unit
Partially contracted basis set               ... off
Rotationally invariant grid construction     ... off

Total number of grid points                  ...   123065
Total number of batches                      ...     1928
Average number of points per batch           ...       63
Average number of grid points per atom       ...    11188
Time for grid setup =    2.088 sec

--------------
SCF ITERATIONS
--------------
ITER       Energy         Delta-E        Max-DP      RMS-DP      [F,P]   Gradient Norm
               ***  Starting incremental Fock matrix formation  ***
                             ****Resetting KDIIS****
                             ****Turning on KDIIS(Cayley)****
  0  -2400.9244369812   0.000000000000 0.54089388  0.00256843  0.3777066   0.217080954
  1  -2401.7151426304  -0.790705649237 0.55196803  0.00251826  0.3026564   0.169616108
  2  -2402.1601536563  -0.445011025840 0.11802404  0.00150382  0.2393089   0.124624497
  3  -2402.3512792484  -0.191125592113 0.39539726  0.00177527  0.1393626   0.072257027
  4  -2402.3776502082  -0.026370959785 0.29314412  0.00085456  0.0860398   0.029708615
  5  -2402.4316985801  -0.054048371926 0.14697046  0.00044827  0.0432923   0.006382833
  6  -2402.4409372093  -0.009238629237 0.20052630  0.00081654  0.0361069   0.004954965
  7  -2402.4494318451  -0.008494635728 0.20968834  0.00072265  0.0401598   0.007510214
  8  -2402.4617533820  -0.012321536910 0.03726361  0.00030592  0.0131842   0.004652688
  9  -2402.4665790648  -0.004825682805 0.08350997  0.00033720  0.0127388   0.002268850
 10  -2402.4681854191  -0.001606354350 0.05874246  0.00019676  0.0100075   0.003967679
 11  -2402.4695100175  -0.001324598386 0.02091152  0.00014789  0.0043473   0.001211080
 12  -2402.4700797576  -0.000569740091 0.04081767  0.00011672  0.0025224   0.001130797
 13  -2402.4702284372  -0.000148679545 0.03074764  0.00009398  0.0020866   0.001332655
 14  -2402.4704033454  -0.000174908227 0.00655928  0.00006054  0.0015407   0.000509728
 15  -2402.4705101160  -0.000106770658 0.00729878  0.00003857  0.0011171   0.000510893
 16  -2402.4705492061  -0.000039090079 0.00702300  0.00002738  0.0014669   0.000439139
 17  -2402.4705508206  -0.000001614504 0.01207075  0.00003609  0.0011859   0.000561856
 18  -2402.4705728175  -0.000021996889 0.00272387  0.00001790  0.0005169   0.000350841
 19  -2402.4705859390  -0.000013121478 0.01017865  0.00003069  0.0003892   0.000272426
               *** Restarting incremental Fock matrix formation ***
                             ****Resetting KDIIS****
 20  -2402.4705841883   0.000001750684 0.00205404  0.00000629  0.0005588   0.000306485
 21  -2402.4705891409  -0.000004952543 0.00147428  0.00000433  0.0003801   0.000188975
 22  -2402.4705911215  -0.000001980613 0.00119269  0.00000383  0.0004401   0.000136782
 23  -2402.4705930643  -0.000001942782 0.00110819  0.00001012  0.0003301   0.000087812
 24  -2402.4705959520  -0.000002887757 0.00284979  0.00001101  0.0001416   0.000105932
 25  -2402.4705978417  -0.000001889650 0.00156551  0.00000528  0.0000622   0.000043210
 26  -2402.4705976074   0.000000234210 0.00035017  0.00000400  0.0000945   0.000063798
 27  -2402.4705980961  -0.000000488607 0.00013730  0.00000069  0.0000456   0.000017008
 28  -2402.4705981476  -0.000000051570 0.00027024  0.00000107  0.0000657   0.000015809
 29  -2402.4705981286   0.000000018987 0.00027260  0.00000102  0.0000440   0.000022111
 30  -2402.4705981345  -0.000000005865 0.00016565  0.00000061  0.0000208   0.000010456
 31  -2402.4705981099   0.000000024625 0.00028284  0.00000105  0.0000224   0.000007586
 32  -2402.4705981383  -0.000000028424 0.00006094  0.00000060  0.0000099   0.000009342
 33  -2402.4705981282   0.000000010064 0.00023294  0.00000053  0.0000199   0.000006207
 34  -2402.4705980779   0.000000050346 0.00024627  0.00000058  0.0000167   0.000007499
 35  -2402.4705980868  -0.000000008939 0.00017224  0.00000043  0.0000127   0.000004332
 36  -2402.4705980999  -0.000000013099 0.00029176  0.00000057  0.0000057   0.000002968
 37  -2402.4705980983   0.000000001680 0.00045107  0.00000094  0.0000057   0.000003201
 38  -2402.4705980608   0.000000037470 0.00019726  0.00000040  0.0000042   0.000001316
 39  -2402.4705980876  -0.000000026777 0.00032984  0.00000066  0.0000044   0.000002152
               *** Restarting incremental Fock matrix formation ***
                             ****Resetting KDIIS****
 40  -2402.4705983133  -0.000000225722 0.00005639  0.00000016  0.0000055   0.000001622
 41  -2402.4705983062   0.000000007100 0.00009337  0.00000025  0.0000038   0.000000999
 42  -2402.4705983249  -0.000000018737 0.00023554  0.00000057  0.0000039   0.000000726
 43  -2402.4705982536   0.000000071354 0.00050902  0.00000121  0.0000033   0.000000535
 44  -2402.4705982872  -0.000000033620 0.00002170  0.00000012  0.0000016   0.000000606
 45  -2402.4705982901  -0.000000002916 0.00024954  0.00000050  0.0000013   0.000000283
                 **** Energy Check signals convergence ****
                    *** KDIIS BlockDiag ( 0.119 sec) ***

               *****************************************************
               *                     SUCCESS                       *
               *           SCF CONVERGED AFTER  46 CYCLES          *
               *****************************************************


----------------
TOTAL SCF ENERGY
----------------

Total Energy       :        -2402.47059828 Eh          -65374.54856 eV

Components:
Nuclear Repulsion  :         3257.73031509 Eh           88647.34862 eV
Electronic Energy  :        -5660.20091337 Eh         -154021.89717 eV
One Electron Energy:       -10331.03312926 Eh         -281121.70340 eV
Two Electron Energy:         4670.83221589 Eh          127099.80622 eV

Virial components:
Potential Energy   :        -3903.12971247 Eh         -106209.55907 eV
Kinetic Energy     :         1500.65911419 Eh           40835.01051 eV
Virial Ratio       :            2.60094360


DFT components:
N(Alpha)           :      108.999976153728 electrons
N(Beta)            :      104.999974544922 electrons
N(Total)           :      213.999950698650 electrons
E(X)               :     -167.912532572831 Eh       
E(C)               :       -9.296341802189 Eh       
E(XC)              :     -177.208874375020 Eh       
DFET-embed. en.    :        0.000000000000 Eh       

---------------
SCF CONVERGENCE
---------------

  Last Energy change         ...    6.1100e-09  Tolerance :   1.0000e-08
  Last MAX-Density change    ...    9.0042e-05  Tolerance :   1.0000e-07
  Last RMS-Density change    ...    2.2426e-07  Tolerance :   5.0000e-09

             **** THE GBW FILE WAS UPDATED (pbe.gbw) ****
             **** DENSITY pbe.scfp WAS UPDATED ****
             **** ENERGY FILE WAS UPDATED (pbe.en.tmp) ****
----------------------
UHF SPIN CONTAMINATION
----------------------

Warning: in a DFT calculation there is little theoretical justification to 
         calculate <S**2> as in Hartree-Fock theory. We will do it anyways
         but you should keep in mind that the values have only limited relevance

Expectation value of <S**2>     :     6.180076
Ideal value S*(S+1) for S=2.0   :     6.000000
Deviation                       :     0.180076

             **** THE GBW FILE WAS UPDATED (pbe.gbw) ****
             **** DENSITY pbe.scfp WAS UPDATED ****
----------------
ORBITAL ENERGIES
----------------
                 SPIN UP ORBITALS
  NO   OCC          E(Eh)            E(eV) 
   0   1.0000    -214.499199     -5836.8199 
   1   1.0000     -24.305602      -661.3891 
   2   1.0000     -20.669328      -562.4410 
   3   1.0000     -20.669114      -562.4352 
   4   1.0000     -20.669114      -562.4352 
   5   1.0000      -4.024421      -109.5101 
   6   1.0000      -4.024391      -109.5092 
   7   1.0000      -4.024382      -109.5090 
   8   1.0000      -4.024351      -109.5082 
   9   1.0000      -4.023214      -109.4772 
  10   1.0000      -4.023188      -109.4765 
  11   1.0000      -4.023176      -109.4762 
  12   1.0000      -4.023153      -109.4756 
  13   1.0000      -4.017830      -109.3307 
  14   1.0000      -4.017507      -109.3219 
  15   1.0000      -2.802691       -76.2651 
  16   1.0000      -2.243768       -61.0560 
  17   1.0000      -2.243551       -61.0501 
  18   1.0000      -2.243545       -61.0500 
  19   1.0000      -2.243201       -61.0406 
  20   1.0000      -2.241840       -61.0036 
  21   1.0000      -2.241315       -60.9893 
  22   1.0000      -2.241313       -60.9892 
  23   1.0000      -2.240834       -60.9762 
  24   1.0000      -2.239369       -60.9363 
  25   1.0000      -2.238889       -60.9233 
  26   1.0000      -2.238887       -60.9232 
  27   1.0000      -2.238279       -60.9067 
  28   1.0000      -2.236207       -60.8503 
  29   1.0000      -2.235904       -60.8420 
  30   1.0000      -2.235900       -60.8419 
  31   1.0000      -2.235432       -60.8292 
  32   1.0000      -2.232158       -60.7401 
  33   1.0000      -2.231521       -60.7228 
  34   1.0000      -2.231512       -60.7225 
  35   1.0000      -2.231060       -60.7102 
  36   1.0000      -2.230933       -60.7068 
  37   1.0000      -2.230679       -60.6999 
  38   1.0000      -2.230479       -60.6944 
  39   1.0000      -2.230004       -60.6815 
  40   1.0000      -2.229997       -60.6813 
  41   1.0000      -2.229535       -60.6687 
  42   1.0000      -2.229465       -60.6668 
  43   1.0000      -2.229460       -60.6667 
  44   1.0000      -2.229091       -60.6567 
  45   1.0000      -2.229085       -60.6565 
  46   1.0000      -1.793426       -48.8016 
  47   1.0000      -1.791834       -48.7583 
  48   1.0000      -1.791833       -48.7583 
  49   1.0000      -0.413440       -11.2503 
  50   1.0000      -0.372069       -10.1245 
  51   1.0000      -0.370172       -10.0729 
  52   1.0000      -0.356286        -9.6950 
  53   1.0000      -0.354135        -9.6365 
  54   1.0000      -0.354124        -9.6362 
  55   1.0000      -0.350228        -9.5302 
  56   1.0000      -0.350012        -9.5243 
  57   1.0000      -0.348031        -9.4704 
  58   1.0000      -0.348027        -9.4703 
  59   1.0000      -0.340037        -9.2529 
  60   1.0000      -0.340033        -9.2528 
  61   1.0000      -0.334268        -9.0959 
  62   1.0000      -0.330656        -8.9976 
  63   1.0000      -0.330646        -8.9973 
  64   1.0000      -0.325360        -8.8535 
  65   1.0000      -0.319770        -8.7014 
  66   1.0000      -0.315887        -8.5957 
  67   1.0000      -0.315874        -8.5954 
  68   1.0000      -0.313843        -8.5401 
  69   1.0000      -0.307628        -8.3710 
  70   1.0000      -0.306718        -8.3462 
  71   1.0000      -0.300931        -8.1887 
  72   1.0000      -0.300925        -8.1886 
  73   1.0000      -0.292466        -7.9584 
  74   1.0000      -0.292465        -7.9584 
  75   1.0000      -0.291683        -7.9371 
  76   1.0000      -0.290628        -7.9084 
  77   1.0000      -0.290073        -7.8933 
  78   1.0000      -0.287987        -7.8365 
  79   1.0000      -0.287931        -7.8350 
  80   1.0000      -0.287923        -7.8348 
  81   1.0000      -0.275965        -7.5094 
  82   1.0000      -0.271279        -7.3819 
  83   1.0000      -0.271053        -7.3757 
  84   1.0000      -0.267821        -7.2878 
  85   1.0000      -0.264417        -7.1952 
  86   1.0000      -0.264417        -7.1951 
  87   1.0000      -0.261533        -7.1167 
  88   1.0000      -0.260456        -7.0874 
  89   1.0000      -0.259629        -7.0649 
  90   1.0000      -0.259138        -7.0515 
  91   1.0000      -0.259124        -7.0511 
  92   1.0000      -0.257718        -7.0129 
  93   1.0000      -0.254515        -6.9257 
  94   1.0000      -0.254221        -6.9177 
  95   1.0000      -0.254216        -6.9176 
  96   1.0000      -0.250642        -6.8203 
  97   1.0000      -0.247366        -6.7312 
  98   1.0000      -0.247357        -6.7309 
  99   1.0000      -0.244138        -6.6433 
 100   1.0000      -0.233569        -6.3557 
 101   1.0000      -0.233481        -6.3533 
 102   1.0000      -0.233470        -6.3530 
 103   1.0000      -0.216893        -5.9020 
 104   1.0000      -0.210429        -5.7261 
 105   1.0000      -0.209183        -5.6921 
 106   1.0000      -0.202133        -5.5003 
 107   1.0000      -0.202129        -5.5002 
 108   1.0000      -0.187479        -5.1016 
 109   0.0000      -0.155850        -4.2409 
 110   0.0000      -0.155845        -4.2408 
 111   0.0000      -0.153464        -4.1760 
 112   0.0000      -0.112140        -3.0515 
 113   0.0000      -0.106620        -2.9013 
 114   0.0000      -0.105978        -2.8838 
 115   0.0000      -0.078337        -2.1317 
 116   0.0000      -0.061902        -1.6844 
 117   0.0000      -0.061901        -1.6844 
 118   0.0000      -0.051348        -1.3972 
 119   0.0000      -0.047370        -1.2890 
 120   0.0000      -0.047358        -1.2887 
 121   0.0000      -0.019678        -0.5355 
 122   0.0000      -0.012465        -0.3392 
 123   0.0000       0.015653         0.4259 
 124   0.0000       0.015662         0.4262 
 125   0.0000       0.021923         0.5965 
 126   0.0000       0.021927         0.5967 
 127   0.0000       0.031763         0.8643 
 128   0.0000       0.043610         1.1867 
 129   0.0000       0.043613         1.1868 
 130   0.0000       0.045542         1.2392 
 131   0.0000       0.052937         1.4405 
 132   0.0000       0.056740         1.5440 
 133   0.0000       0.060277         1.6402 
 134   0.0000       0.063894         1.7386 
 135   0.0000       0.063896         1.7387 
 136   0.0000       0.077844         2.1182 
 137   0.0000       0.081050         2.2055 
 138   0.0000       0.087344         2.3767 
 139   0.0000       0.090337         2.4582 
 140   0.0000       0.093051         2.5321 
 141   0.0000       0.093054         2.5321 
 142   0.0000       0.126413         3.4399 
 143   0.0000       0.131672         3.5830 
 144   0.0000       0.133546         3.6340 
 145   0.0000       0.136255         3.7077 
 146   0.0000       0.136262         3.7079 
 147   0.0000       0.144011         3.9187 
 148   0.0000       0.151231         4.1152 
 149   0.0000       0.151239         4.1154 
 150   0.0000       0.151521         4.1231 
 151   0.0000       0.175604         4.7784 
 152   0.0000       0.175606         4.7785 
 153   0.0000       0.186116         5.0645 
 154   0.0000       0.213968         5.8224 
 155   0.0000       0.215602         5.8668 
 156   0.0000       0.215610         5.8670 
 157   0.0000       0.218744         5.9523 
 158   0.0000       0.226017         6.1502 
 159   0.0000       0.226019         6.1503 
 160   0.0000       0.236108         6.4248 
 161   0.0000       0.241678         6.5764 
 162   0.0000       0.254545         6.9265 
 163   0.0000       0.254549         6.9266 
 164   0.0000       0.262255         7.1363 
 165   0.0000       0.277690         7.5563 
 166   0.0000       0.283115         7.7040 
 167   0.0000       0.287799         7.8314 
 168   0.0000       0.289229         7.8703 
 169   0.0000       0.289230         7.8703 
 170   0.0000       0.289727         7.8839 
 171   0.0000       0.300018         8.1639 
 172   0.0000       0.300026         8.1641 
 173   0.0000       0.306178         8.3315 
 174   0.0000       0.313861         8.5406 
 175   0.0000       0.324433         8.8283 
 176   0.0000       0.332124         9.0376 
 177   0.0000       0.345227         9.3941 
 178   0.0000       0.345247         9.3946 
 179   0.0000       0.352479         9.5914 
 180   0.0000       0.353935         9.6311 
 181   0.0000       0.353943         9.6313 
 182   0.0000       0.369969        10.0674 
 183   0.0000       0.370719        10.0878 
 184   0.0000       0.370720        10.0878 
 185   0.0000       0.374123        10.1804 
 186   0.0000       0.383699        10.4410 
 187   0.0000       0.383704        10.4411 
 188   0.0000       0.394912        10.7461 
 189   0.0000       0.395907        10.7732 
 190   0.0000       0.396864        10.7992 
 191   0.0000       0.413554        11.2534 
 192   0.0000       0.418990        11.4013 
 193   0.0000       0.418996        11.4015 
 194   0.0000       0.425886        11.5889 
 195   0.0000       0.425889        11.5890 
 196   0.0000       0.433025        11.7832 
 197   0.0000       0.436932        11.8895 
 198   0.0000       0.450386        12.2556 
 199   0.0000       0.452280        12.3072 
 200   0.0000       0.487523        13.2662 
 201   0.0000       0.487532        13.2664 
 202   0.0000       0.490546        13.3484 
 203   0.0000       0.491850        13.3839 
 204   0.0000       0.491868        13.3844 
 205   0.0000       0.494904        13.4670 
 206   0.0000       0.496164        13.5013 
 207   0.0000       0.503718        13.7069 
 208   0.0000       0.508650        13.8411 
 209   0.0000       0.513027        13.9602 
 210   0.0000       0.530420        14.4335 
 211   0.0000       0.530438        14.4339 
 212   0.0000       0.535105        14.5609 
 213   0.0000       0.538199        14.6452 
 214   0.0000       0.558342        15.1933 
 215   0.0000       0.564123        15.3506 
 216   0.0000       0.564131        15.3508 
 217   0.0000       0.576605        15.6902 
 218   0.0000       0.605344        16.4722 
 219   0.0000       0.605381        16.4733 
 220   0.0000       0.631320        17.1791 
 221   0.0000       0.723060        19.6755 
 222   0.0000       0.723122        19.6771 
 223   0.0000       0.723278        19.6814 
 224   0.0000       0.724807        19.7230 
 225   0.0000       0.725922        19.7533 
 226   0.0000       0.745026        20.2732 
 227   0.0000       0.745032        20.2733 
 228   0.0000       0.750168        20.4131 
 229   0.0000       0.796868        21.6839 
 230   0.0000       0.796908        21.6850 
 231   0.0000       0.799380        21.7522 
 232   0.0000       0.804818        21.9002 
 233   0.0000       0.832216        22.6458 
 234   0.0000       0.832393        22.6506 
 235   0.0000       0.857117        23.3234 
 236   0.0000       0.871116        23.7043 
 237   0.0000       0.871140        23.7049 
 238   0.0000       0.873808        23.7775 
 239   0.0000       0.887423        24.1480 
 240   0.0000       0.887439        24.1484 
 241   0.0000       0.897498        24.4222 
 242   0.0000       0.966804        26.3081 
 243   0.0000       0.990006        26.9394 
 244   0.0000       0.990014        26.9396 
 245   0.0000       1.125536        30.6274 
 246   0.0000       1.158772        31.5318 
 247   0.0000       1.158786        31.5322 
 248   0.0000       1.175704        31.9925 
 249   0.0000       1.239659        33.7328 
 250   0.0000       1.239720        33.7345 
 251   0.0000       1.245346        33.8876 
 252   0.0000       1.245360        33.8880 
 253   0.0000       1.262436        34.3526 
 254   0.0000       1.269200        34.5367 
 255   0.0000       1.275276        34.7020 
 256   0.0000       1.294250        35.2183 
 257   0.0000       1.301414        35.4133 
 258   0.0000       1.301449        35.4142 
 259   0.0000       1.308995        35.6196 
 260   0.0000       1.318524        35.8788 
 261   0.0000       1.318577        35.8803 
 262   0.0000       1.352831        36.8124 
 263   0.0000       1.356283        36.9063 
 264   0.0000       1.370268        37.2869 
 265   0.0000       1.386570        37.7305 
 266   0.0000       1.386605        37.7314 
 267   0.0000       1.395099        37.9626 
 268   0.0000       1.395154        37.9641 
 269   0.0000       1.403984        38.2043 
 270   0.0000       1.404005        38.2049 
 271   0.0000       1.412388        38.4330 
 272   0.0000       1.412958        38.4485 
 273   0.0000       1.425049        38.7775 
 274   0.0000       1.427030        38.8315 
 275   0.0000       1.429894        38.9094 
 276   0.0000       1.446766        39.3685 
 277   0.0000       1.448130        39.4056 
 278   0.0000       1.452647        39.5285 
 279   0.0000       1.452672        39.5292 
 280   0.0000       1.455173        39.5973 
 281   0.0000       1.455186        39.5976 
 282   0.0000       1.456210        39.6255 
 283   0.0000       1.459163        39.7058 
 284   0.0000       1.470483        40.0139 
 285   0.0000       1.473132        40.0859 
 286   0.0000       1.473140        40.0862 
 287   0.0000       1.480382        40.2832 
 288   0.0000       1.483321        40.3632 
 289   0.0000       1.486262        40.4433 
 290   0.0000       1.486265        40.4433 
 291   0.0000       1.487037        40.4643 
 292   0.0000       1.488743        40.5108 
 293   0.0000       1.488763        40.5113 
 294   0.0000       1.491224        40.5783 
 295   0.0000       1.494858        40.6772 
 296   0.0000       1.497924        40.7606 
 297   0.0000       1.497928        40.7607 
 298   0.0000       1.498680        40.7812 
 299   0.0000       1.501313        40.8528 
 300   0.0000       1.501335        40.8534 
 301   0.0000       1.505450        40.9654 
 302   0.0000       1.505605        40.9696 
 303   0.0000       1.515439        41.2372 
 304   0.0000       1.515440        41.2372 
 305   0.0000       1.522516        41.4298 
 306   0.0000       1.522533        41.4302 
 307   0.0000       1.525270        41.5047 
 308   0.0000       1.530895        41.6578 
 309   0.0000       1.532308        41.6962 
 310   0.0000       1.533641        41.7325 
 311   0.0000       1.533649        41.7327 
 312   0.0000       1.535032        41.7704 
 313   0.0000       1.539224        41.8844 
 314   0.0000       1.546245        42.0755 
 315   0.0000       1.546377        42.0791 
 316   0.0000       1.546407        42.0799 
 317   0.0000       1.547459        42.1085 
 318   0.0000       1.555418        42.3251 
 319   0.0000       1.555527        42.3280 
 320   0.0000       1.555545        42.3285 
 321   0.0000       1.557942        42.3937 
 322   0.0000       1.557953        42.3941 
 323   0.0000       1.560219        42.4557 
 324   0.0000       1.564989        42.5855 
 325   0.0000       1.569607        42.7112 
 326   0.0000       1.570300        42.7300 
 327   0.0000       1.570308        42.7303 
 328   0.0000       1.572437        42.7882 
 329   0.0000       1.576474        42.8980 
 330   0.0000       1.581473        43.0341 
 331   0.0000       1.583243        43.0822 
 332   0.0000       1.583254        43.0825 
 333   0.0000       1.583953        43.1015 
 334   0.0000       1.587510        43.1983 
 335   0.0000       1.589850        43.2620 
 336   0.0000       1.590564        43.2815 
 337   0.0000       1.591425        43.3049 
 338   0.0000       1.599244        43.5176 
 339   0.0000       1.615536        43.9610 
 340   0.0000       1.623726        44.1838 
 341   0.0000       1.626809        44.2677 
 342   0.0000       1.626840        44.2686 
 343   0.0000       1.633052        44.4376 
 344   0.0000       1.633359        44.4459 
 345   0.0000       1.633369        44.4462 
 346   0.0000       1.639838        44.6223 
 347   0.0000       1.649952        44.8975 
 348   0.0000       1.655437        45.0467 
 349   0.0000       1.667447        45.3735 
 350   0.0000       1.667459        45.3739 
 351   0.0000       1.674229        45.5581 
 352   0.0000       1.690415        45.9985 
 353   0.0000       1.704885        46.3923 
 354   0.0000       1.741126        47.3784 
 355   0.0000       1.741127        47.3785 
 356   0.0000       1.751510        47.6610 
 357   0.0000       1.757830        47.8330 
 358   0.0000       1.768155        48.1139 
 359   0.0000       1.768308        48.1181 
 360   0.0000       1.796254        48.8785 
 361   0.0000       1.796265        48.8789 
 362   0.0000       1.814265        49.3687 
 363   0.0000       1.814285        49.3692 
 364   0.0000       1.821359        49.5617 
 365   0.0000       1.884486        51.2795 
 366   0.0000       1.889950        51.4282 
 367   0.0000       1.889967        51.4286 
 368   0.0000       1.990007        54.1508 
 369   0.0000       1.990015        54.1511 
 370   0.0000       1.994123        54.2628 
 371   0.0000       2.105298        57.2881 
 372   0.0000       2.124455        57.8094 
 373   0.0000       2.219453        60.3944 
 374   0.0000       2.246300        61.1249 
 375   0.0000       2.252420        61.2915 
 376   0.0000       2.252449        61.2923 
 377   0.0000       2.327814        63.3431 
 378   0.0000       2.351175        63.9787 
 379   0.0000       2.367379        64.4197 
 380   0.0000       2.367403        64.4203 
 381   0.0000       2.440595        66.4120 
 382   0.0000       2.455351        66.8135 
 383   0.0000       2.461627        66.9843 
 384   0.0000       2.598873        70.7189 
 385   0.0000       2.598889        70.7194 
 386   0.0000       2.782526        75.7164 
 387   0.0000       2.819097        76.7115 
 388   0.0000       2.821661        76.7813 
 389   0.0000       2.834830        77.1397 
 390   0.0000       2.834847        77.1401 
 391   0.0000       2.894369        78.7598 
 392   0.0000       2.894445        78.7619 
 393   0.0000       2.945750        80.1579 
 394   0.0000       2.991689        81.4080 
 395   0.0000      23.392647       636.5463 
 396   0.0000      23.392994       636.5557 
 397   0.0000      24.027066       653.8097 
 398   0.0000      24.679220       671.5557 
 399   0.0000      24.679343       671.5591 
 400   0.0000      24.888517       677.2510 
 401   0.0000      25.166399       684.8125 
 402   0.0000      25.166550       684.8166 
 403   0.0000      25.627916       697.3710 
 404   0.0000      25.633615       697.5261 
 405   0.0000      25.634099       697.5393 
 406   0.0000      25.847152       703.3368 
 407   0.0000      25.847892       703.3569 
 408   0.0000      25.901132       704.8056 
 409   0.0000      26.150906       711.6023 
 410   0.0000      26.182702       712.4675 
 411   0.0000      26.285844       715.2742 
 412   0.0000      26.548105       722.4107 
 413   0.0000      26.887719       731.6520 
 414   0.0000      26.887983       731.6592 
 415   0.0000      27.013070       735.0630 
 416   0.0000      27.030700       735.5427 
 417   0.0000      27.031163       735.5554 
 418   0.0000      27.536914       749.3175 
 419   0.0000      27.537682       749.3384 
 420   0.0000      27.652591       752.4652 
 421   0.0000      28.923947       787.0606 
 422   0.0000      29.687334       807.8334 
 423   0.0000      29.687822       807.8467 
 424   0.0000      29.990103       816.0722 
 425   0.0000      43.898021      1194.5259 
 426   0.0000      43.952989      1196.0216 
 427   0.0000      43.967167      1196.4074 
 428   0.0000      43.967177      1196.4077 
 429   0.0000      44.069451      1199.1907 
 430   0.0000      44.086137      1199.6448 
 431   0.0000      44.125231      1200.7086 
 432   0.0000      44.170697      1201.9458 
 433   0.0000      44.170707      1201.9460 
 434   0.0000      44.218836      1203.2557 
 435   0.0000     205.090795      5580.8042 
 436   0.0000     205.115331      5581.4719 
 437   0.0000     205.120033      5581.5999 
 438   0.0000     205.120036      5581.6000 
 439   0.0000     205.164806      5582.8182 
 440   0.0000     205.173945      5583.0669 
 441   0.0000     205.183556      5583.3284 
 442   0.0000     205.197942      5583.7199 
 443   0.0000     205.197946      5583.7200 
 444   0.0000     205.226242      5584.4900 

                 SPIN DOWN ORBITALS
  NO   OCC          E(Eh)            E(eV) 
   0   1.0000    -214.498772     -5836.8083 
   1   1.0000     -24.263826      -660.2523 
   2   1.0000     -20.637922      -561.5864 
   3   1.0000     -20.637921      -561.5864 
   4   1.0000     -20.635906      -561.5316 
   5   1.0000      -4.022680      -109.4627 
   6   1.0000      -4.022650      -109.4619 
   7   1.0000      -4.022641      -109.4616 
   8   1.0000      -4.022610      -109.4608 
   9   1.0000      -4.021496      -109.4305 
  10   1.0000      -4.021470      -109.4298 
  11   1.0000      -4.021458      -109.4294 
  12   1.0000      -4.021436      -109.4288 
  13   1.0000      -4.015521      -109.2679 
  14   1.0000      -4.015290      -109.2616 
  15   1.0000      -2.690463       -73.2112 
  16   1.0000      -2.241693       -60.9996 
  17   1.0000      -2.241518       -60.9948 
  18   1.0000      -2.241513       -60.9947 
  19   1.0000      -2.241218       -60.9867 
  20   1.0000      -2.239535       -60.9408 
  21   1.0000      -2.239038       -60.9273 
  22   1.0000      -2.239037       -60.9273 
  23   1.0000      -2.238577       -60.9148 
  24   1.0000      -2.237364       -60.8818 
  25   1.0000      -2.236890       -60.8689 
  26   1.0000      -2.236888       -60.8688 
  27   1.0000      -2.236249       -60.8514 
  28   1.0000      -2.234423       -60.8017 
  29   1.0000      -2.234175       -60.7950 
  30   1.0000      -2.234171       -60.7949 
  31   1.0000      -2.233689       -60.7818 
  32   1.0000      -2.230551       -60.6964 
  33   1.0000      -2.229908       -60.6789 
  34   1.0000      -2.229899       -60.6786 
  35   1.0000      -2.229324       -60.6630 
  36   1.0000      -2.228862       -60.6504 
  37   1.0000      -2.228380       -60.6373 
  38   1.0000      -2.228374       -60.6371 
  39   1.0000      -2.227916       -60.6247 
  40   1.0000      -2.227821       -60.6221 
  41   1.0000      -2.227539       -60.6144 
  42   1.0000      -2.227339       -60.6090 
  43   1.0000      -2.227334       -60.6088 
  44   1.0000      -2.227081       -60.6020 
  45   1.0000      -2.227076       -60.6018 
  46   1.0000      -1.683720       -45.8164 
  47   1.0000      -1.683718       -45.8163 
  48   1.0000      -1.678457       -45.6731 
  49   1.0000      -0.404058       -10.9950 
  50   1.0000      -0.367963       -10.0128 
  51   1.0000      -0.361272        -9.8307 
  52   1.0000      -0.350682        -9.5425 
  53   1.0000      -0.350671        -9.5422 
  54   1.0000      -0.348008        -9.4698 
  55   1.0000      -0.346118        -9.4183 
  56   1.0000      -0.338642        -9.2149 
  57   1.0000      -0.338640        -9.2148 
  58   1.0000      -0.338455        -9.2098 
  59   1.0000      -0.337562        -9.1855 
  60   1.0000      -0.337557        -9.1854 
  61   1.0000      -0.328031        -8.9262 
  62   1.0000      -0.328023        -8.9259 
  63   1.0000      -0.327621        -8.9150 
  64   1.0000      -0.322950        -8.7879 
  65   1.0000      -0.317811        -8.6481 
  66   1.0000      -0.310572        -8.4511 
  67   1.0000      -0.306862        -8.3502 
  68   1.0000      -0.306851        -8.3498 
  69   1.0000      -0.306281        -8.3343 
  70   1.0000      -0.304016        -8.2727 
  71   1.0000      -0.299385        -8.1467 
  72   1.0000      -0.299380        -8.1465 
  73   1.0000      -0.291055        -7.9200 
  74   1.0000      -0.291053        -7.9199 
  75   1.0000      -0.290291        -7.8992 
  76   1.0000      -0.288696        -7.8558 
  77   1.0000      -0.288289        -7.8447 
  78   1.0000      -0.286192        -7.7877 
  79   1.0000      -0.286185        -7.7875 
  80   1.0000      -0.285216        -7.7611 
  81   1.0000      -0.274138        -7.4597 
  82   1.0000      -0.271200        -7.3797 
  83   1.0000      -0.269359        -7.3296 
  84   1.0000      -0.265808        -7.2330 
  85   1.0000      -0.262126        -7.1328 
  86   1.0000      -0.262125        -7.1328 
  87   1.0000      -0.259912        -7.0726 
  88   1.0000      -0.258968        -7.0469 
  89   1.0000      -0.258187        -7.0256 
  90   1.0000      -0.256418        -6.9775 
  91   1.0000      -0.256404        -6.9771 
  92   1.0000      -0.256313        -6.9746 
  93   1.0000      -0.252239        -6.8638 
  94   1.0000      -0.252006        -6.8574 
  95   1.0000      -0.252002        -6.8573 
  96   1.0000      -0.247966        -6.7475 
  97   1.0000      -0.244248        -6.6463 
  98   1.0000      -0.244238        -6.6460 
  99   1.0000      -0.241469        -6.5707 
 100   1.0000      -0.232249        -6.3198 
 101   1.0000      -0.232238        -6.3195 
 102   1.0000      -0.231430        -6.2975 
 103   1.0000      -0.196098        -5.3361 
 104   1.0000      -0.195098        -5.3089 
 105   0.0000      -0.181146        -4.9292 
 106   0.0000      -0.181145        -4.9292 
 107   0.0000      -0.122910        -3.3445 
 108   0.0000      -0.113055        -3.0764 
 109   0.0000      -0.111947        -3.0462 
 110   0.0000      -0.107907        -2.9363 
 111   0.0000      -0.107905        -2.9362 
 112   0.0000      -0.105811        -2.8793 
 113   0.0000      -0.104931        -2.8553 
 114   0.0000      -0.096908        -2.6370 
 115   0.0000      -0.058852        -1.6015 
 116   0.0000      -0.058852        -1.6014 
 117   0.0000      -0.058468        -1.5910 
 118   0.0000      -0.048429        -1.3178 
 119   0.0000      -0.045786        -1.2459 
 120   0.0000      -0.045775        -1.2456 
 121   0.0000      -0.011356        -0.3090 
 122   0.0000      -0.008637        -0.2350 
 123   0.0000       0.015680         0.4267 
 124   0.0000       0.015689         0.4269 
 125   0.0000       0.024711         0.6724 
 126   0.0000       0.024716         0.6725 
 127   0.0000       0.037595         1.0230 
 128   0.0000       0.048241         1.3127 
 129   0.0000       0.048244         1.3128 
 130   0.0000       0.048705         1.3253 
 131   0.0000       0.052154         1.4192 
 132   0.0000       0.056425         1.5354 
 133   0.0000       0.064459         1.7540 
 134   0.0000       0.064755         1.7621 
 135   0.0000       0.064758         1.7621 
 136   0.0000       0.077048         2.0966 
 137   0.0000       0.079917         2.1746 
 138   0.0000       0.089556         2.4370 
 139   0.0000       0.092334         2.5125 
 140   0.0000       0.095612         2.6017 
 141   0.0000       0.095615         2.6018 
 142   0.0000       0.130315         3.5460 
 143   0.0000       0.132041         3.5930 
 144   0.0000       0.132855         3.6152 
 145   0.0000       0.140107         3.8125 
 146   0.0000       0.140112         3.8127 
 147   0.0000       0.149439         4.0664 
 148   0.0000       0.153286         4.1711 
 149   0.0000       0.153291         4.1713 
 150   0.0000       0.154540         4.2052 
 151   0.0000       0.177278         4.8240 
 152   0.0000       0.177281         4.8241 
 153   0.0000       0.193553         5.2668 
 154   0.0000       0.216121         5.8810 
 155   0.0000       0.219930         5.9846 
 156   0.0000       0.219936         5.9848 
 157   0.0000       0.220974         6.0130 
 158   0.0000       0.227131         6.1806 
 159   0.0000       0.227133         6.1806 
 160   0.0000       0.237448         6.4613 
 161   0.0000       0.243746         6.6327 
 162   0.0000       0.256238         6.9726 
 163   0.0000       0.256241         6.9727 
 164   0.0000       0.261400         7.1130 
 165   0.0000       0.276488         7.5236 
 166   0.0000       0.285478         7.7683 
 167   0.0000       0.289725         7.8838 
 168   0.0000       0.291566         7.9339 
 169   0.0000       0.291567         7.9339 
 170   0.0000       0.299010         8.1365 
 171   0.0000       0.300529         8.1778 
 172   0.0000       0.300537         8.1780 
 173   0.0000       0.305742         8.3197 
[...]
  63( 2) :    -0.326596 a.u.    -8.887 eV
  64( 2) :    -0.320645 a.u.    -8.725 eV
  65( 2) :    -0.313756 a.u.    -8.538 eV
  66( 2) :    -0.307344 a.u.    -8.363 eV
  67( 2) :    -0.303336 a.u.    -8.254 eV
  68( 2) :    -0.302731 a.u.    -8.238 eV
  69( 2) :    -0.300430 a.u.    -8.175 eV
  70( 2) :    -0.300400 a.u.    -8.174 eV
  71( 2) :    -0.299790 a.u.    -8.158 eV
  72( 2) :    -0.299739 a.u.    -8.156 eV
  73( 2) :    -0.290330 a.u.    -7.900 eV
  74( 2) :    -0.289957 a.u.    -7.890 eV
  75( 2) :    -0.289864 a.u.    -7.888 eV
  76( 2) :    -0.286532 a.u.    -7.797 eV
  77( 2) :    -0.286000 a.u.    -7.782 eV
  78( 2) :    -0.284656 a.u.    -7.746 eV
  79( 2) :    -0.283583 a.u.    -7.717 eV
  80( 2) :    -0.283535 a.u.    -7.715 eV
  81( 2) :    -0.270963 a.u.    -7.373 eV
  82( 2) :    -0.270873 a.u.    -7.371 eV
  83( 2) :    -0.268698 a.u.    -7.312 eV
  84( 2) :    -0.264865 a.u.    -7.207 eV
  85( 2) :    -0.261212 a.u.    -7.108 eV
  86( 2) :    -0.260381 a.u.    -7.085 eV
  87( 2) :    -0.260346 a.u.    -7.084 eV
  88( 2) :    -0.258219 a.u.    -7.026 eV
  89( 2) :    -0.258165 a.u.    -7.025 eV
  90( 2) :    -0.256428 a.u.    -6.978 eV
  91( 2) :    -0.256409 a.u.    -6.977 eV
  92( 2) :    -0.254674 a.u.    -6.930 eV
  93( 2) :    -0.250568 a.u.    -6.818 eV
  94( 2) :    -0.250376 a.u.    -6.813 eV
  95( 2) :    -0.250328 a.u.    -6.812 eV
  96( 2) :    -0.248145 a.u.    -6.752 eV
  97( 2) :    -0.243667 a.u.    -6.631 eV
  98( 2) :    -0.243647 a.u.    -6.630 eV
  99( 2) :    -0.239261 a.u.    -6.511 eV
 100( 2) :    -0.233345 a.u.    -6.350 eV
 101( 2) :    -0.233289 a.u.    -6.348 eV
 102( 2) :    -0.231904 a.u.    -6.310 eV
 103( 2) :    -0.196758 a.u.    -5.354 eV
 104( 2) :    -0.194469 a.u.    -5.292 eV
 105( 1) :    -0.182859 a.u.    -4.976 eV alpha=   -5.632 beta=   -4.320
 106( 1) :    -0.182802 a.u.    -4.974 eV alpha=   -5.631 beta=   -4.317
 107( 1) :    -0.162061 a.u.    -4.410 eV alpha=   -5.898 beta=   -2.921
 108( 1) :    -0.152764 a.u.    -4.157 eV alpha=   -5.620 beta=   -2.694
 109( 0) :    -0.159391 a.u.    -4.337 eV
 110( 0) :    -0.157856 a.u.    -4.295 eV
 111( 0) :    -0.157819 a.u.    -4.294 eV
 112( 0) :    -0.110638 a.u.    -3.011 eV
 113( 0) :    -0.107902 a.u.    -2.936 eV
 114( 0) :    -0.107551 a.u.    -2.927 eV
 115( 0) :    -0.078268 a.u.    -2.130 eV
 116( 0) :    -0.061408 a.u.    -1.671 eV
 117( 0) :    -0.061361 a.u.    -1.670 eV
 118( 0) :    -0.051722 a.u.    -1.407 eV
 119( 0) :    -0.050263 a.u.    -1.368 eV
 120( 0) :    -0.050225 a.u.    -1.367 eV
 121( 0) :    -0.016077 a.u.    -0.437 eV
 122( 0) :    -0.010930 a.u.    -0.297 eV
 123( 0) :     0.012682 a.u.     0.345 eV
 124( 0) :     0.012757 a.u.     0.347 eV
 125( 0) :     0.020998 a.u.     0.571 eV
 126( 0) :     0.021024 a.u.     0.572 eV
 127( 0) :     0.028499 a.u.     0.775 eV
 128( 0) :     0.044342 a.u.     1.207 eV
 129( 0) :     0.044364 a.u.     1.207 eV
 130( 0) :     0.044693 a.u.     1.216 eV
 131( 0) :     0.050870 a.u.     1.384 eV
 132( 0) :     0.056047 a.u.     1.525 eV
 133( 0) :     0.062472 a.u.     1.700 eV
 134( 0) :     0.062859 a.u.     1.710 eV
 135( 0) :     0.062919 a.u.     1.712 eV
 136( 0) :     0.076925 a.u.     2.093 eV
 137( 0) :     0.077092 a.u.     2.098 eV
 138( 0) :     0.087497 a.u.     2.381 eV
 139( 0) :     0.090504 a.u.     2.463 eV
 140( 0) :     0.093662 a.u.     2.549 eV
 141( 0) :     0.093685 a.u.     2.549 eV
 142( 0) :     0.128051 a.u.     3.484 eV
 143( 0) :     0.130559 a.u.     3.553 eV
 144( 0) :     0.131043 a.u.     3.566 eV
 145( 0) :     0.135132 a.u.     3.677 eV
 146( 0) :     0.135164 a.u.     3.678 eV
 147( 0) :     0.145325 a.u.     3.954 eV
 148( 0) :     0.150026 a.u.     4.082 eV
 149( 0) :     0.150449 a.u.     4.094 eV
 150( 0) :     0.150467 a.u.     4.094 eV
 151( 0) :     0.177076 a.u.     4.818 eV
 152( 0) :     0.177087 a.u.     4.819 eV
 153( 0) :     0.185008 a.u.     5.034 eV
 154( 0) :     0.208109 a.u.     5.663 eV
 155( 0) :     0.215619 a.u.     5.867 eV
 156( 0) :     0.215679 a.u.     5.869 eV
 157( 0) :     0.222206 a.u.     6.047 eV
 158( 0) :     0.227076 a.u.     6.179 eV
 159( 0) :     0.227174 a.u.     6.182 eV
 160( 0) :     0.230940 a.u.     6.284 eV
 161( 0) :     0.241370 a.u.     6.568 eV
 162( 0) :     0.255038 a.u.     6.940 eV
 163( 0) :     0.255105 a.u.     6.942 eV
 164( 0) :     0.257240 a.u.     7.000 eV
 165( 0) :     0.280850 a.u.     7.642 eV
 166( 0) :     0.280971 a.u.     7.646 eV
 167( 0) :     0.281970 a.u.     7.673 eV
 168( 0) :     0.285568 a.u.     7.771 eV
 169( 0) :     0.291365 a.u.     7.928 eV
 170( 0) :     0.291394 a.u.     7.929 eV
 171( 0) :     0.299720 a.u.     8.156 eV
 172( 0) :     0.299744 a.u.     8.156 eV
 173( 0) :     0.304868 a.u.     8.296 eV
 174( 0) :     0.315690 a.u.     8.590 eV
 175( 0) :     0.324624 a.u.     8.833 eV
 176( 0) :     0.334319 a.u.     9.097 eV
 177( 0) :     0.340168 a.u.     9.256 eV
 178( 0) :     0.340238 a.u.     9.258 eV
 179( 0) :     0.351414 a.u.     9.562 eV
 180( 0) :     0.357236 a.u.     9.721 eV
 181( 0) :     0.357319 a.u.     9.723 eV
 182( 0) :     0.370831 a.u.    10.091 eV
 183( 0) :     0.370862 a.u.    10.092 eV
 184( 0) :     0.370912 a.u.    10.093 eV
 185( 0) :     0.371952 a.u.    10.121 eV
 186( 0) :     0.381310 a.u.    10.376 eV
 187( 0) :     0.381325 a.u.    10.376 eV
 188( 0) :     0.394599 a.u.    10.738 eV
 189( 0) :     0.395481 a.u.    10.762 eV
 190( 0) :     0.397585 a.u.    10.819 eV
 191( 0) :     0.417288 a.u.    11.355 eV
 192( 0) :     0.417324 a.u.    11.356 eV
 193( 0) :     0.421575 a.u.    11.472 eV
 194( 0) :     0.427607 a.u.    11.636 eV
 195( 0) :     0.427688 a.u.    11.638 eV
 196( 0) :     0.430156 a.u.    11.705 eV
 197( 0) :     0.439939 a.u.    11.971 eV
 198( 0) :     0.453016 a.u.    12.327 eV
 199( 0) :     0.462538 a.u.    12.586 eV
 200( 0) :     0.485365 a.u.    13.207 eV
 201( 0) :     0.485412 a.u.    13.209 eV
 202( 0) :     0.490129 a.u.    13.337 eV
 203( 0) :     0.490154 a.u.    13.338 eV
 204( 0) :     0.491415 a.u.    13.372 eV
 205( 0) :     0.494043 a.u.    13.444 eV
 206( 0) :     0.500774 a.u.    13.627 eV
 207( 0) :     0.502259 a.u.    13.667 eV
 208( 0) :     0.505702 a.u.    13.761 eV
 209( 0) :     0.510214 a.u.    13.884 eV
 210( 0) :     0.529874 a.u.    14.419 eV
 211( 0) :     0.529932 a.u.    14.420 eV
 212( 0) :     0.537340 a.u.    14.622 eV
 213( 0) :     0.539419 a.u.    14.678 eV
 214( 0) :     0.555527 a.u.    15.117 eV
 215( 0) :     0.562769 a.u.    15.314 eV
 216( 0) :     0.562794 a.u.    15.314 eV
 217( 0) :     0.575746 a.u.    15.667 eV
 218( 0) :     0.591888 a.u.    16.106 eV
 219( 0) :     0.592258 a.u.    16.116 eV
 220( 0) :     0.632015 a.u.    17.198 eV
 221( 0) :     0.703620 a.u.    19.146 eV
 222( 0) :     0.704659 a.u.    19.175 eV
 223( 0) :     0.704916 a.u.    19.182 eV
 224( 0) :     0.712631 a.u.    19.392 eV
 225( 0) :     0.721332 a.u.    19.628 eV
 226( 0) :     0.732627 a.u.    19.936 eV
 227( 0) :     0.745806 a.u.    20.294 eV
 228( 0) :     0.745925 a.u.    20.298 eV
 229( 0) :     0.789049 a.u.    21.471 eV
 230( 0) :     0.791432 a.u.    21.536 eV
 231( 0) :     0.793223 a.u.    21.585 eV
 232( 0) :     0.793345 a.u.    21.588 eV
 233( 0) :     0.834916 a.u.    22.719 eV
 234( 0) :     0.837407 a.u.    22.787 eV
 235( 0) :     0.858099 a.u.    23.350 eV
 236( 0) :     0.869810 a.u.    23.669 eV
 237( 0) :     0.875002 a.u.    23.810 eV
 238( 0) :     0.875180 a.u.    23.815 eV
 239( 0) :     0.882827 a.u.    24.023 eV
 240( 0) :     0.882897 a.u.    24.025 eV
 241( 0) :     0.884949 a.u.    24.081 eV
 242( 0) :     0.956728 a.u.    26.034 eV
 243( 0) :     0.980969 a.u.    26.694 eV
 244( 0) :     0.981054 a.u.    26.696 eV
 245( 0) :     1.098247 a.u.    29.885 eV
 246( 0) :     1.135925 a.u.    30.910 eV
 247( 0) :     1.136310 a.u.    30.921 eV
 248( 0) :     1.171244 a.u.    31.871 eV
 249( 0) :     1.252425 a.u.    34.080 eV
 250( 0) :     1.252687 a.u.    34.087 eV
 251( 0) :     1.255468 a.u.    34.163 eV
 252( 0) :     1.255632 a.u.    34.167 eV
 253( 0) :     1.271437 a.u.    34.598 eV
 254( 0) :     1.284062 a.u.    34.941 eV
 255( 0) :     1.293003 a.u.    35.184 eV
 256( 0) :     1.294477 a.u.    35.225 eV
 257( 0) :     1.304270 a.u.    35.491 eV
 258( 0) :     1.304408 a.u.    35.495 eV
 259( 0) :     1.325883 a.u.    36.079 eV
 260( 0) :     1.326095 a.u.    36.085 eV
 261( 0) :     1.326764 a.u.    36.103 eV
 262( 0) :     1.342906 a.u.    36.542 eV
 263( 0) :     1.349095 a.u.    36.711 eV
 264( 0) :     1.384042 a.u.    37.662 eV
 265( 0) :     1.384198 a.u.    37.666 eV
 266( 0) :     1.394930 a.u.    37.958 eV
 267( 0) :     1.395256 a.u.    37.967 eV
 268( 0) :     1.399936 a.u.    38.094 eV
 269( 0) :     1.405777 a.u.    38.253 eV
 270( 0) :     1.405963 a.u.    38.258 eV
 271( 0) :     1.406114 a.u.    38.262 eV
 272( 0) :     1.422393 a.u.    38.705 eV
 273( 0) :     1.424404 a.u.    38.760 eV
 274( 0) :     1.424581 a.u.    38.765 eV
 275( 0) :     1.431644 a.u.    38.957 eV
 276( 0) :     1.447357 a.u.    39.385 eV
 277( 0) :     1.454217 a.u.    39.571 eV
 278( 0) :     1.454902 a.u.    39.590 eV
 279( 0) :     1.455941 a.u.    39.618 eV
 280( 0) :     1.456075 a.u.    39.622 eV
 281( 0) :     1.456924 a.u.    39.645 eV
 282( 0) :     1.457023 a.u.    39.648 eV
 283( 0) :     1.466945 a.u.    39.918 eV
 284( 0) :     1.467615 a.u.    39.936 eV
 285( 0) :     1.475368 a.u.    40.147 eV
 286( 0) :     1.475412 a.u.    40.148 eV
 287( 0) :     1.478256 a.u.    40.225 eV
 288( 0) :     1.483100 a.u.    40.357 eV
 289( 0) :     1.485161 a.u.    40.413 eV
 290( 0) :     1.486787 a.u.    40.458 eV
 291( 0) :     1.486879 a.u.    40.460 eV
 292( 0) :     1.490742 a.u.    40.565 eV
 293( 0) :     1.490916 a.u.    40.570 eV
 294( 0) :     1.490939 a.u.    40.571 eV
 295( 0) :     1.496074 a.u.    40.710 eV
 296( 0) :     1.496439 a.u.    40.720 eV
 297( 0) :     1.496509 a.u.    40.722 eV
 298( 0) :     1.498058 a.u.    40.764 eV
 299( 0) :     1.499944 a.u.    40.816 eV
 300( 0) :     1.500127 a.u.    40.821 eV
 301( 0) :     1.506725 a.u.    41.000 eV
 302( 0) :     1.512531 a.u.    41.158 eV
 303( 0) :     1.513697 a.u.    41.190 eV
 304( 0) :     1.513703 a.u.    41.190 eV
 305( 0) :     1.523625 a.u.    41.460 eV
 306( 0) :     1.529316 a.u.    41.615 eV
 307( 0) :     1.529361 a.u.    41.616 eV
 308( 0) :     1.532086 a.u.    41.690 eV
 309( 0) :     1.532120 a.u.    41.691 eV
 310( 0) :     1.532710 a.u.    41.707 eV
 311( 0) :     1.533324 a.u.    41.724 eV
 312( 0) :     1.537856 a.u.    41.847 eV
 313( 0) :     1.542383 a.u.    41.970 eV
 314( 0) :     1.545177 a.u.    42.046 eV
 315( 0) :     1.545234 a.u.    42.048 eV
 316( 0) :     1.545469 a.u.    42.054 eV
 317( 0) :     1.547747 a.u.    42.116 eV
 318( 0) :     1.547912 a.u.    42.121 eV
 319( 0) :     1.556278 a.u.    42.348 eV
 320( 0) :     1.556360 a.u.    42.351 eV
 321( 0) :     1.559543 a.u.    42.437 eV
 322( 0) :     1.564074 a.u.    42.561 eV
 323( 0) :     1.565155 a.u.    42.590 eV
 324( 0) :     1.565209 a.u.    42.592 eV
 325( 0) :     1.569512 a.u.    42.709 eV
 326( 0) :     1.570681 a.u.    42.740 eV
 327( 0) :     1.572700 a.u.    42.795 eV
 328( 0) :     1.572808 a.u.    42.798 eV
 329( 0) :     1.575398 a.u.    42.869 eV
 330( 0) :     1.580246 a.u.    43.001 eV
 331( 0) :     1.581061 a.u.    43.023 eV
 332( 0) :     1.581077 a.u.    43.023 eV
 333( 0) :     1.584405 a.u.    43.114 eV
 334( 0) :     1.588229 a.u.    43.218 eV
 335( 0) :     1.588554 a.u.    43.227 eV
 336( 0) :     1.592179 a.u.    43.325 eV
 337( 0) :     1.592244 a.u.    43.327 eV
 338( 0) :     1.593563 a.u.    43.363 eV
 339( 0) :     1.597893 a.u.    43.481 eV
 340( 0) :     1.610150 a.u.    43.814 eV
 341( 0) :     1.610414 a.u.    43.822 eV
 342( 0) :     1.615152 a.u.    43.951 eV
 343( 0) :     1.622390 a.u.    44.147 eV
 344( 0) :     1.627429 a.u.    44.285 eV
 345( 0) :     1.627471 a.u.    44.286 eV
 346( 0) :     1.633358 a.u.    44.446 eV
 347( 0) :     1.636342 a.u.    44.527 eV
 348( 0) :     1.651319 a.u.    44.935 eV
 349( 0) :     1.670056 a.u.    45.445 eV
 350( 0) :     1.681489 a.u.    45.756 eV
 351( 0) :     1.681726 a.u.    45.762 eV
 352( 0) :     1.694081 a.u.    46.098 eV
 353( 0) :     1.697926 a.u.    46.203 eV
 354( 0) :     1.738589 a.u.    47.309 eV
 355( 0) :     1.738872 a.u.    47.317 eV
 356( 0) :     1.744612 a.u.    47.473 eV
 357( 0) :     1.745340 a.u.    47.493 eV
 358( 0) :     1.750554 a.u.    47.635 eV
 359( 0) :     1.756140 a.u.    47.787 eV
 360( 0) :     1.783319 a.u.    48.527 eV
 361( 0) :     1.783349 a.u.    48.527 eV
 362( 0) :     1.812263 a.u.    49.314 eV
 363( 0) :     1.812432 a.u.    49.319 eV
 364( 0) :     1.828248 a.u.    49.749 eV
 365( 0) :     1.890376 a.u.    51.440 eV
 366( 0) :     1.903170 a.u.    51.788 eV
 367( 0) :     1.903714 a.u.    51.803 eV
 368( 0) :     1.956914 a.u.    53.250 eV
 369( 0) :     1.973591 a.u.    53.704 eV
 370( 0) :     1.973774 a.u.    53.709 eV
 371( 0) :     2.125537 a.u.    57.839 eV
 372( 0) :     2.141634 a.u.    58.277 eV
 373( 0) :     2.224962 a.u.    60.544 eV
 374( 0) :     2.240086 a.u.    60.956 eV
 375( 0) :     2.240247 a.u.    60.960 eV
 376( 0) :     2.246970 a.u.    61.143 eV
 377( 0) :     2.330736 a.u.    63.423 eV
 378( 0) :     2.350480 a.u.    63.960 eV
 379( 0) :     2.371605 a.u.    64.535 eV
 380( 0) :     2.371834 a.u.    64.541 eV
 381( 0) :     2.444924 a.u.    66.530 eV
 382( 0) :     2.448256 a.u.    66.620 eV
 383( 0) :     2.450545 a.u.    66.683 eV
 384( 0) :     2.564655 a.u.    69.788 eV
 385( 0) :     2.565104 a.u.    69.800 eV
 386( 0) :     2.790668 a.u.    75.938 eV
 387( 0) :     2.817588 a.u.    76.670 eV
 388( 0) :     2.819375 a.u.    76.719 eV
 389( 0) :     2.833762 a.u.    77.111 eV
 390( 0) :     2.833828 a.u.    77.112 eV
 391( 0) :     2.882827 a.u.    78.446 eV
 392( 0) :     2.882928 a.u.    78.448 eV
 393( 0) :     2.931406 a.u.    79.768 eV
 394( 0) :     2.968672 a.u.    80.782 eV
 395( 0) :    23.383471 a.u.   636.297 eV
 396( 0) :    23.384600 a.u.   636.327 eV
 397( 0) :    24.160303 a.u.   657.435 eV
 398( 0) :    24.588725 a.u.   669.093 eV
 399( 0) :    24.591185 a.u.   669.160 eV
 400( 0) :    24.633715 a.u.   670.317 eV
 401( 0) :    25.072260 a.u.   682.251 eV
 402( 0) :    25.076219 a.u.   682.359 eV
 403( 0) :    25.400891 a.u.   691.193 eV
 404( 0) :    25.422134 a.u.   691.771 eV
 405( 0) :    25.691711 a.u.   699.107 eV
 406( 0) :    25.701573 a.u.   699.375 eV
 407( 0) :    25.703958 a.u.   699.440 eV
 408( 0) :    25.743255 a.u.   700.510 eV
 409( 0) :    25.990204 a.u.   707.229 eV
 410( 0) :    26.077452 a.u.   709.604 eV
 411( 0) :    26.280418 a.u.   715.127 eV
 412( 0) :    26.491828 a.u.   720.879 eV
 413( 0) :    26.817137 a.u.   729.731 eV
 414( 0) :    26.819567 a.u.   729.798 eV
 415( 0) :    27.030457 a.u.   735.536 eV
 416( 0) :    27.030851 a.u.   735.547 eV
 417( 0) :    27.095166 a.u.   737.297 eV
 418( 0) :    27.584879 a.u.   750.623 eV
 419( 0) :    27.585736 a.u.   750.646 eV
 420( 0) :    27.743038 a.u.   754.926 eV
 421( 0) :    28.949259 a.u.   787.749 eV
 422( 0) :    29.335283 a.u.   798.254 eV
 423( 0) :    29.336899 a.u.   798.298 eV
 424( 0) :    29.756261 a.u.   809.709 eV
 425( 0) :    43.906070 a.u.  1194.745 eV
 426( 0) :    43.963770 a.u.  1196.315 eV
 427( 0) :    43.967844 a.u.  1196.426 eV
 428( 0) :    43.968019 a.u.  1196.431 eV
 429( 0) :    44.067206 a.u.  1199.130 eV
 430( 0) :    44.080946 a.u.  1199.504 eV
 431( 0) :    44.105600 a.u.  1200.174 eV
 432( 0) :    44.162081 a.u.  1201.711 eV
 433( 0) :    44.162379 a.u.  1201.719 eV
 434( 0) :    44.199162 a.u.  1202.720 eV
 435( 0) :   205.094271 a.u.  5580.899 eV
 436( 0) :   205.120162 a.u.  5581.603 eV
 437( 0) :   205.120784 a.u.  5581.620 eV
 438( 0) :   205.120848 a.u.  5581.622 eV
 439( 0) :   205.164686 a.u.  5582.815 eV
 440( 0) :   205.172699 a.u.  5583.033 eV
 441( 0) :   205.176349 a.u.  5583.132 eV
 442( 0) :   205.195754 a.u.  5583.660 eV
 443( 0) :   205.195852 a.u.  5583.663 eV
 444( 0) :   205.219236 a.u.  5584.299 eV
-------
TIMINGS
-------

Total SCF time: 0 days 0 hours 5 min 22 sec 

Total time                  ....     322.372 sec
Sum of individual times     ....     298.952 sec  ( 92.7%)

Fock matrix formation       ....     293.191 sec  ( 90.9%)
  Split-RI-J                ....      69.759 sec  ( 23.8% of F)
  XC integration            ....     166.082 sec  ( 56.6% of F)
    Basis function eval.    ....      24.131 sec  ( 14.5% of XC)
    Density eval.           ....      66.455 sec  ( 40.0% of XC)
    XC-Functional eval.     ....       3.457 sec  (  2.1% of XC)
    XC-Potential eval.      ....      51.487 sec  ( 31.0% of XC)
Diagonalization             ....       2.443 sec  (  0.8%)
Density matrix formation    ....       0.275 sec  (  0.1%)
Population analysis         ....       0.400 sec  (  0.1%)
Initial guess               ....       0.100 sec  (  0.0%)
Orbital Transformation      ....       0.378 sec  (  0.1%)
Orbital Orthonormalization  ....       0.082 sec  (  0.0%)
DIIS solution               ....       0.000 sec  (  0.0%)
Grid generation             ....       2.163 sec  (  0.7%)

Maximum memory used throughout the entire SCF-calculation: 374.8 MB

-------------------------   --------------------
FINAL SINGLE POINT ENERGY     -2402.472053762123
-------------------------   --------------------

                                *** OPTIMIZATION RUN DONE ***

                            ***************************************
                            *     ORCA property calculations      *
                            ***************************************

                                    ---------------------
                                    Active property flags
                                    ---------------------
   (+) Dipole Moment


------------------------------------------------------------------------------
                       ORCA ELECTRIC PROPERTIES CALCULATION
------------------------------------------------------------------------------

Dipole Moment Calculation                       ... on
Quadrupole Moment Calculation                   ... off
Polarizability Calculation                      ... off
GBWName                                         ... pbe.gbw
Electron density                                ... pbe.scfp
The origin for moment calculation is the CENTER OF MASS  = (13.736236, 13.457893 15.446546)

-------------
DIPOLE MOMENT
-------------
                                X             Y             Z
Electronic contribution:      0.33733      -0.51409      -1.85889
Nuclear contribution   :     -0.33407       0.50920       1.84219
                        -----------------------------------------
Total Dipole Moment    :      0.00326      -0.00489      -0.01670
                        -----------------------------------------
Magnitude (a.u.)       :      0.01770
Magnitude (Debye)      :      0.04500



--------------------
Rotational spectrum 
--------------------
 
Rotational constants in cm-1:     0.002177     0.001594     0.001593 
Rotational constants in MHz :    65.264761    47.787572    47.770293 

 Dipole components along the rotational axes: 
x,y,z [a.u.] :    -0.017700    -0.000343    -0.000126 
x,y,z [Debye]:    -0.044989    -0.000871    -0.000319 

 

Timings for individual modules:

Sum of individual times         ...     2560.497 sec (=  42.675 min)
GTO integral calculation        ...       55.559 sec (=   0.926 min)   2.2 %
SCF iterations                  ...     2129.036 sec (=  35.484 min)  83.1 %
SCF Gradient evaluation         ...      354.803 sec (=   5.913 min)  13.9 %
Geometry relaxation             ...       21.099 sec (=   0.352 min)   0.8 %
                             ****ORCA TERMINATED NORMALLY****
TOTAL RUN TIME: 0 days 0 hours 42 minutes 56 seconds 208 msec
