
                                 *****************
                                 * O   R   C   A *
                                 *****************

                                            #,                                       
                                            ###                                      
                                            ####                                     
                                            #####                                    
                                            ######                                   
                                           ########,                                 
                                     ,,################,,,,,                         
                               ,,#################################,,                 
                          ,,##########################################,,             
                       ,#########################################, ''#####,          
                    ,#############################################,,   '####,        
                  ,##################################################,,,,####,       
                ,###########''''           ''''###############################       
              ,#####''   ,,,,##########,,,,          '''####'''          '####       
            ,##' ,,,,###########################,,,                        '##       
           ' ,,###''''                  '''############,,,                           
         ,,##''                                '''############,,,,        ,,,,,,###''
      ,#''                                            '''#######################'''  
     '                                                          ''''####''''         
             ,#######,   #######,   ,#######,      ##                                
            ,#'     '#,  ##    ##  ,#'     '#,    #''#        ######   ,####,        
            ##       ##  ##   ,#'  ##            #'  '#       #        #'  '#        
            ##       ##  #######   ##           ,######,      #####,   #    #        
            '#,     ,#'  ##    ##  '#,     ,#' ,#      #,         ##   #,  ,#        
             '#######'   ##     ##  '#######'  #'      '#     #####' # '####'        



                  #######################################################
                  #                        -***-                        #
                  #          Department of theory and spectroscopy      #
                  #    Directorship and core code : Frank Neese         #
                  #        Max Planck Institute fuer Kohlenforschung    #
                  #                Kaiser Wilhelm Platz 1               #
                  #                 D-45470 Muelheim/Ruhr               #
                  #                      Germany                        #
                  #                                                     #
                  #                  All rights reserved                #
                  #                        -***-                        #
                  #######################################################


                         Program Version 5.0.3 -  RELEASE  -


 With contributions from (in alphabetic order):
   Daniel Aravena         : Magnetic Suceptibility
   Michael Atanasov       : Ab Initio Ligand Field Theory (pilot matlab implementation)
   Alexander A. Auer      : GIAO ZORA, VPT2 properties, NMR spectrum
   Ute Becker             : Parallelization
   Giovanni Bistoni       : ED, misc. LED, open-shell LED, HFLD
   Martin Brehm           : Molecular dynamics
   Dmytro Bykov           : SCF Hessian
   Vijay G. Chilkuri      : MRCI spin determinant printing, contributions to CSF-ICE
   Dipayan Datta          : RHF DLPNO-CCSD density
   Achintya Kumar Dutta   : EOM-CC, STEOM-CC
   Dmitry Ganyushin       : Spin-Orbit,Spin-Spin,Magnetic field MRCI
   Miquel Garcia          : C-PCM and meta-GGA Hessian, CC/C-PCM, Gaussian charge scheme
   Yang Guo               : DLPNO-NEVPT2, F12-NEVPT2, CIM, IAO-localization
   Andreas Hansen         : Spin unrestricted coupled pair/coupled cluster methods
   Benjamin Helmich-Paris : MC-RPA, TRAH-SCF, COSX integrals
   Lee Huntington         : MR-EOM, pCC
   Robert Izsak           : Overlap fitted RIJCOSX, COSX-SCS-MP3, EOM
   Marcus Kettner         : VPT2
   Christian Kollmar      : KDIIS, OOCD, Brueckner-CCSD(T), CCSD density, CASPT2, CASPT2-K
   Simone Kossmann        : Meta GGA functionals, TD-DFT gradient, OOMP2, MP2 Hessian
   Martin Krupicka        : Initial AUTO-CI
   Lucas Lang             : DCDCAS
   Marvin Lechner         : AUTO-CI (C++ implementation), FIC-MRCC
   Dagmar Lenk            : GEPOL surface, SMD
   Dimitrios Liakos       : Extrapolation schemes; Compound Job, initial MDCI parallelization
   Dimitrios Manganas     : Further ROCIS development; embedding schemes
   Dimitrios Pantazis     : SARC Basis sets
   Anastasios Papadopoulos: AUTO-CI, single reference methods and gradients
   Taras Petrenko         : DFT Hessian,TD-DFT gradient, ASA, ECA, R-Raman, ABS, FL, XAS/XES, NRVS
   Peter Pinski           : DLPNO-MP2, DLPNO-MP2 Gradient
   Christoph Reimann      : Effective Core Potentials
   Marius Retegan         : Local ZFS, SOC
   Christoph Riplinger    : Optimizer, TS searches, QM/MM, DLPNO-CCSD(T), (RO)-DLPNO pert. Triples
   Tobias Risthaus        : Range-separated hybrids, TD-DFT gradient, RPA, STAB
   Michael Roemelt        : Original ROCIS implementation
   Masaaki Saitow         : Open-shell DLPNO-CCSD energy and density
   Barbara Sandhoefer     : DKH picture change effects
   Avijit Sen             : IP-ROCIS
   Kantharuban Sivalingam : CASSCF convergence, NEVPT2, FIC-MRCI
   Bernardo de Souza      : ESD, SOC TD-DFT
   Georgi Stoychev        : AutoAux, RI-MP2 NMR, DLPNO-MP2 response
   Willem Van den Heuvel  : Paramagnetic NMR
   Boris Wezisla          : Elementary symmetry handling
   Frank Wennmohs         : Technical directorship


 We gratefully acknowledge several colleagues who have allowed us to
 interface, adapt or use parts of their codes:
   Stefan Grimme, W. Hujo, H. Kruse, P. Pracht,  : VdW corrections, initial TS optimization,
                  C. Bannwarth, S. Ehlert          DFT functionals, gCP, sTDA/sTD-DF
   Ed Valeev, F. Pavosevic, A. Kumar             : LibInt (2-el integral package), F12 methods
   Garnet Chan, S. Sharma, J. Yang, R. Olivares  : DMRG
   Ulf Ekstrom                                   : XCFun DFT Library
   Mihaly Kallay                                 : mrcc  (arbitrary order and MRCC methods)
   Jiri Pittner, Ondrej Demel                    : Mk-CCSD
   Frank Weinhold                                : gennbo (NPA and NBO analysis)
   Christopher J. Cramer and Donald G. Truhlar   : smd solvation model
   Lars Goerigk                                  : TD-DFT with DH, B97 family of functionals
   V. Asgeirsson, H. Jonsson                     : NEB implementation
   FAccTs GmbH                                   : IRC, NEB, NEB-TS, DLPNO-Multilevel, CI-OPT
                                                   MM, QMMM, 2- and 3-layer-ONIOM, Crystal-QMMM,
                                                   LR-CPCM, SF, NACMEs, symmetry and pop. for TD-DFT,
                                                   nearIR, NL-DFT gradient (VV10), updates on ESD,
                                                   ML-optimized integration grids
   S Lehtola, MJT Oliveira, MAL Marques          : LibXC Library
   Liviu Ungur et al                             : ANISO software


 Your calculation uses the libint2 library for the computation of 2-el integrals
 For citations please refer to: http://libint.valeyev.net

 Your ORCA version has been built with support for libXC version: 5.1.0
 For citations please refer to: https://tddft.org/programs/libxc/

 This ORCA versions uses:
   CBLAS   interface :  Fast vector & matrix operations
   LAPACKE interface :  Fast linear algebra routines
   SCALAPACK package :  Parallel linear algebra routines
   Shared memory     :  Shared parallel matrices
   BLAS/LAPACK       :  OpenBLAS 0.3.15  USE64BITINT DYNAMIC_ARCH NO_AFFINITY Haswell SINGLE_THREADED
        Core in use  :  Haswell
   Copyright (c) 2011-2014, The OpenBLAS Project




***************************************
The coordinates will be read from file: pbe.xyz
***************************************


================================================================================

cite the ECPs for Au [Def2-ECP] as follows:
Ce-Yb(ecp-28): M. Dolg, H. Stoll, H.Preuss, J. Chem. Phys., 1989, 90, 1730-1734.
Y-Cd(ecp-28), Hf-Hg(ecp-46): D. Andrae,U. Haeussermann, M. Dolg, H. Stoll, H. Preuss, Theor. Chim. Acta, 1990, 77, 123-141.
In-Sb(ecp-28), Tl-Bi(ecp-46): B. Metz, H. Stoll, M. Dolg, J. Chem. Phys., 2000, 113, 2563-2569.
Te-Xe(ecp-28), Po-Rn(ecp-46): K. A. Peterson, D. Figgen, E. Goll, H. Stoll, M. Dolg, J. Chem. Phys., 2003, 119, 11113-11123.
Rb(ecp-28), Cs(ecp-46): T. Leininger, A. Nicklass, W. Kuechle, H. Stoll, M. Dolg, A. Bergner, Chem. Phys. Lett., 1996, 255, 274-280.
Sr(ecp-28), Ba(ecp-46): M. Kaupp, P. V. Schleyer, H. Stoll and H. Preuss, J. Chem. Phys., 1991, 94, 1360-1366.
La(ecp-46): M. Dolg, H. Stoll, A. Savin, H. Preuss, Theor. Chim. Acta, 1989, 75, 173-194.
Lu(ecp-28): X. Cao, M. Dolg, J. Chem. Phys., 2001, 115, 7348-7355.

ECP parameters for Au [Def2-ECP] have been obtained from:
TURBOMOLE (7.0.2)

----- Orbital basis set information -----
Your calculation utilizes the basis: def2-TZVP
   F. Weigend and R. Ahlrichs, Phys. Chem. Chem. Phys. 7, 3297 (2005).

----- AuxJ basis set information -----
Your calculation utilizes the auxiliary basis: def2/J
   F. Weigend, Phys. Chem. Chem. Phys. 8, 1057 (2006).

----- AuxC basis set information -----
Your calculation utilizes the auxiliary basis: def2-TZVP/C
  H-La, Hf-Rn : A. Hellweg, C. Hattig, S. Hofener and W. Klopper, Theor. Chem. Acc. 117, 587 (2007).
        Ce-Lu : J. Chmela and M. E. Harding, Mol. Phys. (2018).

================================================================================
                                        WARNINGS
                       Please study these warnings very carefully!
================================================================================


INFO   : the flag for use of the SHARK integral package has been found!

================================================================================
                                       INPUT FILE
================================================================================
NAME = casscf.inp
|  1> !CASSCF def2-TZVP def2-TZVP/C
|  2> !MOREAD RIJCOSX
|  3> %maxcore 6000
|  4> %moinp "pbe.qro"
|  5> %pal nprocs 2 end 
|  6> 
|  7> %casscf
|  8>  mult 5,3
|  9>  bweight 1,1
| 10>  nroots 5,45
| 11>  nel 6
| 12>  norb 5
| 13> end
| 14> 
| 15> 
| 16> *xyzfile 0 5 pbe.xyz
| 17> 
| 18> 
| 19>                          ****END OF INPUT****
================================================================================

                       ****************************
                       * Single Point Calculation *
                       ****************************

---------------------------------
CARTESIAN COORDINATES (ANGSTROEM)
---------------------------------
  Au    11.594697    4.361410    7.022919
  Au    10.929901    6.894328    6.204083
  Au     6.302455    9.070601    6.071740
  Au     8.877277    4.640179    6.289869
  Au     9.128194    8.839842    5.784637
  Au     7.175556    6.521196    5.476674
  Au     9.790009    8.303548    9.699897
  Au     7.879377    9.542341    8.296935
  Au     6.148543    7.234332    8.245947
  Au    10.552237    5.831805    9.140493
  Au     7.539477    5.065795    9.000771
  Au     9.594300    3.272525    8.661176
  Cr     8.685334    6.993076    7.597584

----------------------------
CARTESIAN COORDINATES (A.U.)
----------------------------
  NO LB      ZA    FRAG     MASS         X           Y           Z
   0 Au   19.0000*   0   196.966   21.910803    8.241870   13.271393
   1 Au   19.0000*   0   196.966   20.654520   13.028391   11.724017
   2 Au   19.0000*   0   196.966   11.909913   17.140952   11.473925
   3 Au   19.0000*   0   196.966   16.775622    8.768667   11.886130
   4 Au   19.0000*   0   196.966   17.249787   16.704881   10.931380
   5 Au   19.0000*   0   196.966   13.559836   12.323275   10.349414
   6 Au   19.0000*   0   196.966   18.500435   15.691432   18.330149
   7 Au   19.0000*   0   196.966   14.889865   18.032410   15.678936
   8 Au   19.0000*   0   196.966   11.619062   13.670907   15.582582
   9 Au   19.0000*   0   196.966   19.940838   11.020515   17.273029
  10 Au   19.0000*   0   196.966   14.247546    9.572965   17.008992
  11 Au   19.0000*   0   196.966   18.130600    6.184176   16.367250
  12 Cr   24.0000    0    52.000   16.412903   13.214999   14.357353
* core charge reduced due to ECP

--------------------------------
INTERNAL COORDINATES (ANGSTROEM)
--------------------------------
 Au     0   0   0     0.000000000000     0.00000000     0.00000000
 Au     1   0   0     2.743741878390     0.00000000     0.00000000
 Au     2   1   0     5.115363548921   128.29090274     0.00000000
 Au     1   2   3     2.828329545446    66.35096256    21.43807910
 Au     2   1   3     2.684606409133   151.43167398     1.15254043
 Au     4   1   2     2.663712870629   139.68750736   357.22285800
 Au     2   1   3     3.937763052344    97.79164324    66.73556281
 Au     7   2   1     2.674587845674    84.65622819   218.70214601
 Au     3   2   1     2.850043647797    75.81862570    30.21692023
 Au     7   2   1     2.646401082002    52.75031448   356.15093036
 Au     9   3   2     2.684587646705   134.98803171   340.51537687
 Au    11   9   3     2.748352637333   151.60563600     1.84625733
 Cr     5   2   1     2.625537326611    59.70697468    25.86881543

---------------------------
INTERNAL COORDINATES (A.U.)
---------------------------
 Au     0   0   0     0.000000000000     0.00000000     0.00000000
 Au     1   0   0     5.184920732328     0.00000000     0.00000000
 Au     2   1   0     9.666636182905   128.29090274     0.00000000
 Au     1   2   3     5.344768257371    66.35096256    21.43807910
 Au     2   1   3     5.073170890630   151.43167398     1.15254043
 Au     4   1   2     5.033687824890   139.68750736   357.22285800
 Au     2   1   3     7.441293749205    97.79164324    66.73556281
 Au     7   2   1     5.054238549439    84.65622819   218.70214601
 Au     3   2   1     5.385801964059    75.81862570    30.21692023
 Au     7   2   1     5.000973285497    52.75031448   356.15093036
 Au     9   3   2     5.073135434781   134.98803171   340.51537687
 Au    11   9   3     5.193633803999   151.60563600     1.84625733
 Cr     5   2   1     4.961546501682    59.70697468    25.86881543

---------------------
BASIS SET INFORMATION
---------------------
There are 2 groups of distinct atoms

 Group   1 Type Au  : 8s7p6d1f contracted to 6s4p3d1f pattern {311111/4111/411/1}
 Group   2 Type Cr  : 17s11p7d1f contracted to 6s4p4d1f pattern {842111/6311/4111/1}

Atom   0Au   basis set group =>   1
Atom   1Au   basis set group =>   1
Atom   2Au   basis set group =>   1
Atom   3Au   basis set group =>   1
Atom   4Au   basis set group =>   1
Atom   5Au   basis set group =>   1
Atom   6Au   basis set group =>   1
Atom   7Au   basis set group =>   1
Atom   8Au   basis set group =>   1
Atom   9Au   basis set group =>   1
Atom  10Au   basis set group =>   1
Atom  11Au   basis set group =>   1
Atom  12Cr   basis set group =>   2
---------------------------------
AUXILIARY/J BASIS SET INFORMATION
---------------------------------
There are 2 groups of distinct atoms

 Group   1 Type Au  : 11s5p5d3f3g contracted to 8s5p5d2f3g pattern {41111111/11111/11111/21/111}
 Group   2 Type Cr  : 19s5p5d3f3g contracted to 8s5p5d2f3g pattern {121111111/11111/11111/21/111}

Atom   0Au   basis set group =>   1
Atom   1Au   basis set group =>   1
Atom   2Au   basis set group =>   1
Atom   3Au   basis set group =>   1
Atom   4Au   basis set group =>   1
Atom   5Au   basis set group =>   1
Atom   6Au   basis set group =>   1
Atom   7Au   basis set group =>   1
Atom   8Au   basis set group =>   1
Atom   9Au   basis set group =>   1
Atom  10Au   basis set group =>   1
Atom  11Au   basis set group =>   1
Atom  12Cr   basis set group =>   2
---------------------------------
AUXILIARY/C BASIS SET INFORMATION
---------------------------------
There are 2 groups of distinct atoms

 Group   1 Type Au  : 8s8p7d5f3g2h contracted to 8s8p7d5f3g2h pattern {11111111/11111111/1111111/11111/111/11}
 Group   2 Type Cr  : 11s9p8d6f5g2h contracted to 9s8p8d6f5g2h pattern {311111111/21111111/11111111/111111/11111/11}

Atom   0Au   basis set group =>   1
Atom   1Au   basis set group =>   1
Atom   2Au   basis set group =>   1
Atom   3Au   basis set group =>   1
Atom   4Au   basis set group =>   1
Atom   5Au   basis set group =>   1
Atom   6Au   basis set group =>   1
Atom   7Au   basis set group =>   1
Atom   8Au   basis set group =>   1
Atom   9Au   basis set group =>   1
Atom  10Au   basis set group =>   1
Atom  11Au   basis set group =>   1
Atom  12Cr   basis set group =>   2
-------------------------
ECP PARAMETER INFORMATION
-------------------------

 Group 1, Type Au ECP Def2-ECP (replacing 60 core electrons, lmax=3)

Atom   0Au   ECP group =>   1
Atom   1Au   ECP group =>   1
Atom   2Au   ECP group =>   1
Atom   3Au   ECP group =>   1
Atom   4Au   ECP group =>   1
Atom   5Au   ECP group =>   1
Atom   6Au   ECP group =>   1
Atom   7Au   ECP group =>   1
Atom   8Au   ECP group =>   1
Atom   9Au   ECP group =>   1
Atom  10Au   ECP group =>   1
Atom  11Au   ECP group =>   1



           ************************************************************
           *        Program running with 2 parallel MPI-processes     *
           *              working on a common directory               *
           ************************************************************
------------------------------------------------------------------------------
                           ORCA GTO INTEGRAL CALCULATION
                           -- RI-GTO INTEGRALS CHOSEN --
------------------------------------------------------------------------------
------------------------------------------------------------------------------
                   ___                                                        
                  /   \      - P O W E R E D   B Y -                         
                 /     \                                                     
                 |  |  |   _    _      __       _____    __    __             
                 |  |  |  | |  | |    /  \     |  _  \  |  |  /  |          
                  \  \/   | |  | |   /    \    | | | |  |  | /  /          
                 / \  \   | |__| |  /  /\  \   | |_| |  |  |/  /          
                |  |  |   |  __  | /  /__\  \  |    /   |      \           
                |  |  |   | |  | | |   __   |  |    \   |  |\   \          
                \     /   | |  | | |  |  |  |  | |\  \  |  | \   \       
                 \___/    |_|  |_| |__|  |__|  |_| \__\ |__|  \__/        
                                                                              
                      - O R C A' S   B I G   F R I E N D -                    
                                      &                                       
                       - I N T E G R A L  F E E D E R -                       
                                                                              
 v1 FN, 2020, v2 2021                                                         
------------------------------------------------------------------------------


Reading SHARK input file casscf.SHARKINP.tmp ... ok
----------------------
SHARK INTEGRAL PACKAGE
----------------------

Number of atoms                             ...     13
Number of basis functions                   ...    525
Number of shells                            ...    183
Maximum angular momentum                    ...      3
Integral batch strategy                     ... SHARK/LIBINT Hybrid
RI-J (if used) integral strategy            ... SPLIT-RIJ (Revised 2003 algorithm where possible)
Printlevel                                  ...      1
Contraction scheme used                     ... SEGMENTED contraction
Coulomb Range Separation                    ... NOT USED
Exchange Range Separation                   ... NOT USED
Finite Nucleus Model                        ... NOT USED
Auxiliary Coulomb fitting basis             ... AVAILABLE
   # of basis functions in Aux-J            ...   1157
   # of shells in Aux-J                     ...    299
   Maximum angular momentum in Aux-J        ...      4
Auxiliary J/K fitting basis                 ... NOT available
Auxiliary Correlation fitting basis         ... AVAILABLE
   # of basis functions in Aux-C            ...   1994
   # of shells in Aux-C                     ...    434
   Maximum angular momentum in Aux-C        ...      5
Auxiliary 'external' fitting basis          ... NOT available
Integral threshold                          ...     1.000000e-10
Primitive cut-off                           ...     1.000000e-11
Primitive pair pre-selection threshold      ...     1.000000e-11

Calculating pre-screening integrals         ... done (  0.2 sec) Dimension = 183
Organizing shell pair data                  ... done (  0.2 sec)
Shell pair information
Total number of shell pairs                 ...     16836
Shell pairs after pre-screening             ...     13567
Total number of primitive shell pairs       ...     45389
Primitive shell pairs kept                  ...     26669
          la=0 lb=0:   2130 shell pairs
          la=1 lb=0:   3103 shell pairs
          la=1 lb=1:   1172 shell pairs
          la=2 lb=0:   2670 shell pairs
          la=2 lb=1:   1898 shell pairs
          la=2 lb=2:    780 shell pairs
          la=3 lb=0:    723 shell pairs
          la=3 lb=1:    548 shell pairs
          la=3 lb=2:    466 shell pairs
          la=3 lb=3:     77 shell pairs

Calculating one electron integrals          ... done (  0.0 sec)
Calculating ECP integrals                   ... done (  5.0 sec)
Calculating RI/J V-Matrix + Cholesky decomp.... done (  0.0 sec)
Calculating RI/C V-Matrix + Cholesky decomp.... done (  0.2 sec)
Calculating Nuclear repulsion               ... done (  0.0 sec) ENN=   4269.512316135305 Eh

SHARK setup successfully completed in   5.9 seconds

Maximum memory used throughout the entire GTOINT-calculation: 69.3 MB


           ************************************************************
           *        Program running with 2 parallel MPI-processes     *
           *              working on a common directory               *
           ************************************************************
-------------------------------------------------------------------------------
                                 ORCA SCF
-------------------------------------------------------------------------------

------------
SCF SETTINGS
------------
Hamiltonian:
 Ab initio Hamiltonian  Method          .... Hartree-Fock(GTOs)
 RI-approximation to the Coulomb term is turned on
   Number of AuxJ basis functions       .... 1157
   RIJ-COSX (HFX calculated with COS-X)).... on


General Settings:
 Integral files         IntName         .... casscf
 Hartree-Fock type      HFTyp           .... CASSCF
 Total Charge           Charge          ....    0
 Multiplicity           Mult            ....    5
 Number of Electrons    NEL             ....  252
 Basis Dimension        Dim             ....  525
 Nuclear Repulsion      ENuc            ....   4269.5123161353 Eh


Diagonalization of the overlap matrix:
Smallest eigenvalue                        ... 1.753e-04
Time for diagonalization                   ...    0.028 sec
Threshold for overlap eigenvalues          ... 1.000e-08
Number of eigenvalues below threshold      ... 0
Time for construction of square roots      ...    0.015 sec
Total time needed                          ...    0.043 sec

---------------------
INITIAL GUESS: MOREAD
---------------------
Guess MOs are being read from file: pbe.qro
Input Geometry matches current geometry (good)
Input basis set matches current basis set (good)
MOs were renormalized
Gram-Schmidt orthogonalization of all MOs with pivot on actives
                      ------------------
                      INITIAL GUESS DONE (   0.7 sec)
                      ------------------
--------------------
COSX GRID GENERATION
--------------------

GRIDX 1
-------
General Integration Accuracy     IntAcc      ... 3.816
Radial Grid Type                 RadialGrid  ... OptM3 with GC (2021)
Angular Grid (max. ang.)         AngularGrid ... 1 (Lebedev-50)
Angular grid pruning method      GridPruning ... 4 (adaptive)
Weight generation scheme         WeightScheme... Becke
Basis function cutoff            BFCut       ... 1.0000e-10
Integration weight cutoff        WCut        ... 1.0000e-14
Angular grids for H and He will be reduced by one unit
Partially contracted basis set               ... on
Rotationally invariant grid construction     ... off

Total number of grid points                  ...    15243
Total number of batches                      ...      247
Average number of points per batch           ...       61
Average number of grid points per atom       ...     1173
UseSFitting                                  ... on

GRIDX 2
-------
General Integration Accuracy     IntAcc      ... 4.020
Radial Grid Type                 RadialGrid  ... OptM3 with GC (2021)
Angular Grid (max. ang.)         AngularGrid ... 2 (Lebedev-110)
Angular grid pruning method      GridPruning ... 4 (adaptive)
Weight generation scheme         WeightScheme... Becke
Basis function cutoff            BFCut       ... 1.0000e-10
Integration weight cutoff        WCut        ... 1.0000e-14
Angular grids for H and He will be reduced by one unit
Partially contracted basis set               ... on
Rotationally invariant grid construction     ... off

Total number of grid points                  ...    46104
Total number of batches                      ...      727
Average number of points per batch           ...       63
Average number of grid points per atom       ...     3546
UseSFitting                                  ... on

GRIDX 3
-------
General Integration Accuracy     IntAcc      ... 4.338
Radial Grid Type                 RadialGrid  ... OptM3 with GC (2021)
Angular Grid (max. ang.)         AngularGrid ... 3 (Lebedev-194)
Angular grid pruning method      GridPruning ... 4 (adaptive)
Weight generation scheme         WeightScheme... Becke
Basis function cutoff            BFCut       ... 1.0000e-10
Integration weight cutoff        WCut        ... 1.0000e-14
Angular grids for H and He will be reduced by one unit
Partially contracted basis set               ... on
Rotationally invariant grid construction     ... off

Total number of grid points                  ...    84341
Total number of batches                      ...     1324
Average number of points per batch           ...       63
Average number of grid points per atom       ...     6488
UseSFitting                                  ... on

Time for X-Grid setup             =    1.429 sec



 ... the calculation is a CASSCF calculation -I'm leaving here GOOD LUCK!!!



           ************************************************************
           *        Program running with 2 parallel MPI-processes     *
           *              working on a common directory               *
           ************************************************************
-------------------------------------------------------------------------------
                              ORCA-CASSCF
-------------------------------------------------------------------------------

Setting up the integral package       ... done
Setting up the integral package (RI)  ... done
Building the CAS space                ... done (5 configurations for Mult=5)
Building the CAS space                ... done (35 configurations for Mult=3)

SYSTEM-SPECIFIC SETTINGS:
Number of active electrons          ...    6
Number of active orbitals           ...    5
Total number of electrons           ...  252
Total number of orbitals            ...  525
Total number aux. functions         ... 1994

Determined orbital ranges:
   Internal       0 -  122 ( 123 orbitals)
   Active       123 -  127 (   5 orbitals)
   External     128 -  524 ( 397 orbitals)
Number of rotation parameters      ...  51431

CI-STEP:
CI strategy                         ... General CI
Number of multiplicity blocks       ...    2
BLOCK  1 WEIGHT=   0.5000
  Multiplicity                      ...    5
  #(Configurations)                 ...    5
  #(CSFs)                           ...    5
  #(Roots)                          ...    5
    ROOT=0 WEIGHT=    0.100000
    ROOT=1 WEIGHT=    0.100000
    ROOT=2 WEIGHT=    0.100000
    ROOT=3 WEIGHT=    0.100000
    ROOT=4 WEIGHT=    0.100000

BLOCK  2 WEIGHT=   0.5000
  Multiplicity                      ...    3
  #(Configurations)                 ...   35
  #(CSFs)                           ...   45
  #(Roots)                          ...   45
    ROOT=0 WEIGHT=    0.011111
    ROOT=1 WEIGHT=    0.011111
    ROOT=2 WEIGHT=    0.011111
    ROOT=3 WEIGHT=    0.011111
    ROOT=4 WEIGHT=    0.011111
    ROOT=5 WEIGHT=    0.011111
    ROOT=6 WEIGHT=    0.011111
    ROOT=7 WEIGHT=    0.011111
    ROOT=8 WEIGHT=    0.011111
    ROOT=9 WEIGHT=    0.011111
    ROOT=10 WEIGHT=    0.011111
    ROOT=11 WEIGHT=    0.011111
    ROOT=12 WEIGHT=    0.011111
    ROOT=13 WEIGHT=    0.011111
    ROOT=14 WEIGHT=    0.011111
    ROOT=15 WEIGHT=    0.011111
    ROOT=16 WEIGHT=    0.011111
    ROOT=17 WEIGHT=    0.011111
    ROOT=18 WEIGHT=    0.011111
    ROOT=19 WEIGHT=    0.011111
    ROOT=20 WEIGHT=    0.011111
    ROOT=21 WEIGHT=    0.011111
    ROOT=22 WEIGHT=    0.011111
    ROOT=23 WEIGHT=    0.011111
    ROOT=24 WEIGHT=    0.011111
    ROOT=25 WEIGHT=    0.011111
    ROOT=26 WEIGHT=    0.011111
    ROOT=27 WEIGHT=    0.011111
    ROOT=28 WEIGHT=    0.011111
    ROOT=29 WEIGHT=    0.011111
    ROOT=30 WEIGHT=    0.011111
    ROOT=31 WEIGHT=    0.011111
    ROOT=32 WEIGHT=    0.011111
    ROOT=33 WEIGHT=    0.011111
    ROOT=34 WEIGHT=    0.011111
    ROOT=35 WEIGHT=    0.011111
    ROOT=36 WEIGHT=    0.011111
    ROOT=37 WEIGHT=    0.011111
    ROOT=38 WEIGHT=    0.011111
    ROOT=39 WEIGHT=    0.011111
    ROOT=40 WEIGHT=    0.011111
    ROOT=41 WEIGHT=    0.011111
    ROOT=42 WEIGHT=    0.011111
    ROOT=43 WEIGHT=    0.011111
    ROOT=44 WEIGHT=    0.011111

  PrintLevel                        ...    1
  N(GuessMat)                       ...       512
  MaxDim(CI)                        ...        10
  MaxIter(CI)                       ...        64
  Energy Tolerance CI               ...  1.00e-08
  Residual Tolerance CI             ...  1.00e-08
  Shift(CI)                         ...  1.00e-04

INTEGRAL-TRANSFORMATION-STEP:
  Algorithm                         ... RI-MO

ORBITAL-IMPROVEMENT-STEP:
  Algorithm                         ... SuperCI(PT)
  Default Parametrization           ... CAYLEY
  Act-Act rotations                 ... depends on algorithm used

  Note: SuperCI(PT) will ignore FreezeIE, FreezeAct and FreezeGrad. In general Default settings are encouraged.
        In conjunction with ShiftUp, ShiftDn or GradScaling the performance of SuperCI(PT) is less optimal.  

  MaxRot                            ... 2.00e-01 
  Max. no of vectors (DIIS)         ... 15
  DThresh (cut-off) metric          ... 1.00e-06
  Switch step at gradient           ...  3.00e-02 
  Switch step at iteration          ...        50   
  Switch step to                    ... SuperCI(PT)    

SCF-SETTINGS:
  Incremental                       ... off
  RIJCOSX approximation             ... on
  UseFinalGrid                      ... on
  RI-JK approximation               ... off
  AO integral handling              ... DIRECT
  Integral Neglect Thresh           ...  1.00e-10
  Primitive cutoff TCut             ...  1.00e-11
  Energy convergence tolerance      ...  1.00e-07
  Orbital gradient convergence      ...  1.00e-03
  Max. number of iterations         ...        75  


FINAL ORBITALS:
  Active   Orbitals                 ... natural 
  Internal Orbitals                 ... canonical 
  External Orbitals                 ... canonical 

------------------
CAS-SCF ITERATIONS
------------------


MACRO-ITERATION   1: 
   --- Inactive Energy E0 = -2654.63443222 Eh
CI-ITERATION   0: 
 -2660.535540202   0.000000000000 (    0.00)
 -2660.471961425   0.000000000000
 -2660.241814642   0.000000000000
 -2660.181799437   0.000000000000
 -2660.162279979   0.000000000000
   CI-PROBLEM SOLVED
   DENSITIES MADE
CI-ITERATION   0: 
 -2660.521510877   0.000000000000 (    0.00)
 -2660.510718654   0.000000000000
 -2660.480185460   0.000000000000
 -2660.479546135   0.000000000000
 -2660.473268167   0.000000000000
 -2660.458519537   0.000000000000
 -2660.456916439   0.000000000000
 -2660.456085804   0.000000000000
 -2660.455849901   0.000000000000
 -2660.442393862   0.000000000000
 -2660.440936101   0.000000000000
 -2660.418196992   0.000000000000
 -2660.404635205   0.000000000000
 -2660.399779040   0.000000000000
 -2660.398591365   0.000000000000
 -2660.397824073   0.000000000000
 -2660.393384018   0.000000000000
 -2660.378512283   0.000000000000
 -2660.366300693   0.000000000000
 -2660.344616192   0.000000000000
 -2660.344441998   0.000000000000
 -2660.343088185   0.000000000000
 -2660.300159296   0.000000000000
 -2660.282796425   0.000000000000
 -2660.236237387   0.000000000000
 -2660.220773955   0.000000000000
 -2660.178951177   0.000000000000
 -2660.178665734   0.000000000000
 -2660.170803001   0.000000000000
 -2660.159377787   0.000000000000
 -2660.151182819   0.000000000000
 -2660.142534485   0.000000000000
 -2660.131450915   0.000000000000
 -2660.129589107   0.000000000000
 -2660.123999198   0.000000000000
 -2660.059088683   0.000000000000
 -2660.047310353   0.000000000000
 -2659.975296112   0.000000000000
 -2659.954789601   0.000000000000
 -2659.759000105   0.000000000000
 -2659.743547563   0.000000000000
 -2659.662254581   0.000000000000
 -2659.513142362   0.000000000000
 -2659.495199046   0.000000000000
 -2659.391540701   0.000000000000
   CI-PROBLEM SOLVED
   DENSITIES MADE

                 <<<<<<<<<<<<<<<<<<INITIAL CI STATE CHECK>>>>>>>>>>>>>>>>>>

BLOCK  1 MULT= 5 NROOTS= 5 
ROOT   0:  E=   -2660.5355402019 Eh
      0.89724 [     4]: 21111
      0.10273 [     0]: 11112
ROOT   1:  E=   -2660.4719614254 Eh  1.730 eV  13953.9 cm**-1
      0.99979 [     3]: 12111
ROOT   2:  E=   -2660.2418146416 Eh  7.993 eV  64465.3 cm**-1
      0.89706 [     0]: 11112
      0.10264 [     4]: 21111
ROOT   3:  E=   -2660.1817994371 Eh  9.626 eV  77637.1 cm**-1
      0.99941 [     1]: 11121
ROOT   4:  E=   -2660.1622799791 Eh 10.157 eV  81921.1 cm**-1
      0.99951 [     2]: 11211

BLOCK  2 MULT= 3 NROOTS=45 
ROOT   0:  E=   -2660.5215108770 Eh
      0.92451 [    34]: 22110
      0.03661 [    18]: 12111
      0.03373 [     3]: 02112
ROOT   1:  E=   -2660.5107186541 Eh  0.294 eV   2368.6 cm**-1
      0.89485 [    28]: 21111
      0.10005 [    10]: 11112
      0.00299 [    33]: 22101
ROOT   2:  E=   -2660.4801854598 Eh  1.125 eV   9069.9 cm**-1
      0.53915 [    33]: 22101
      0.37128 [    28]: 21111
      0.03588 [    10]: 11112
      0.03564 [    17]: 12102
      0.00543 [    27]: 21102
      0.00460 [    25]: 21012
      0.00318 [    19]: 12120
ROOT   3:  E=   -2660.4795461352 Eh  1.142 eV   9210.2 cm**-1
      0.54205 [    28]: 21111
      0.36897 [    33]: 22101
      0.05130 [    10]: 11112
      0.02503 [    17]: 12102
      0.00570 [    25]: 21012
ROOT   4:  E=   -2660.4732681669 Eh  1.313 eV  10588.1 cm**-1
      0.68255 [    27]: 21102
      0.22810 [    29]: 21120
      0.05759 [    11]: 11121
      0.01318 [    32]: 22011
      0.00837 [    33]: 22101
      0.00306 [     0]: 01122
ROOT   5:  E=   -2660.4585195369 Eh  1.714 eV  13825.0 cm**-1
      0.46178 [    25]: 21012
      0.36372 [    31]: 21210
      0.09218 [    13]: 11211
      0.04836 [    28]: 21111
      0.01013 [    32]: 22011
      0.00539 [    10]: 11112
      0.00530 [    29]: 21120
      0.00486 [     1]: 01212
      0.00330 [    33]: 22101
ROOT   6:  E=   -2660.4569164393 Eh  1.758 eV  14176.8 cm**-1
      0.47407 [    30]: 21201
      0.31117 [    26]: 21021
      0.05140 [    12]: 11202
      0.04252 [    32]: 22011
      0.03354 [    28]: 21111
      0.03343 [     9]: 11022
      0.01689 [    18]: 12111
      0.01125 [    29]: 21120
      0.00488 [    31]: 21210
      0.00426 [    25]: 21012
      0.00384 [    15]: 12012
      0.00356 [    10]: 11112
      0.00267 [    11]: 11121
ROOT   7:  E=   -2660.4560858040 Eh  1.780 eV  14359.1 cm**-1
      0.69120 [    32]: 22011
      0.09645 [    28]: 21111
      0.06563 [    29]: 21120
      0.06193 [    15]: 12012
      0.01563 [    11]: 11121
      0.01449 [    30]: 21201
      0.01200 [    21]: 12210
      0.01016 [    10]: 11112
      0.01000 [    26]: 21021
      0.00797 [    18]: 12111
      0.00538 [    27]: 21102
ROOT   8:  E=   -2660.4558499011 Eh  1.787 eV  14410.9 cm**-1
      0.72707 [    28]: 21111
      0.07592 [    10]: 11112
      0.05574 [    32]: 22011
      0.03293 [    30]: 21201
      0.03066 [    26]: 21021
      0.02497 [    31]: 21210
      0.02453 [    25]: 21012
      0.00655 [    13]: 11211
      0.00641 [    15]: 12012
      0.00347 [    12]: 11202
      0.00335 [     9]: 11022
      0.00301 [    18]: 12111
ROOT   9:  E=   -2660.4423938618 Eh  2.153 eV  17364.2 cm**-1
      0.48188 [    29]: 21120
      0.29769 [    27]: 21102
      0.11294 [    11]: 11121
      0.06826 [    32]: 22011
      0.01990 [    15]: 12012
      0.00502 [     0]: 01122
      0.00407 [    21]: 12210
ROOT  10:  E=   -2660.4409361015 Eh  2.193 eV  17684.1 cm**-1
      0.89479 [    18]: 12111
      0.04944 [    34]: 22110
      0.02643 [     3]: 02112
      0.01147 [    30]: 21201
      0.00744 [    26]: 21021
      0.00488 [    32]: 22011
ROOT  11:  E=   -2660.4181969924 Eh  2.811 eV  22674.8 cm**-1
      0.46753 [    25]: 21012
      0.38440 [    31]: 21210
      0.08777 [    13]: 11211
      0.04357 [    17]: 12102
      0.00504 [    19]: 12120
      0.00372 [     1]: 01212
ROOT  12:  E=   -2660.4046352049 Eh  3.180 eV  25651.2 cm**-1
      0.64573 [    18]: 12111
      0.15962 [    26]: 21021
      0.12507 [    30]: 21201
      0.03534 [     3]: 02112
      0.01193 [     9]: 11022
      0.00682 [    12]: 11202
      0.00600 [    17]: 12102
ROOT  13:  E=   -2660.3997790396 Eh  3.312 eV  26717.1 cm**-1
      0.36642 [    26]: 21021
      0.29546 [    18]: 12111
      0.22187 [    30]: 21201
      0.04199 [     9]: 11022
      0.03860 [     3]: 02112
      0.03109 [    12]: 11202
ROOT  14:  E=   -2660.3985913652 Eh  3.345 eV  26977.7 cm**-1
      0.37730 [    17]: 12102
      0.27163 [    20]: 12201
      0.20416 [    16]: 12021
      0.05024 [    19]: 12120
      0.03608 [    33]: 22101
      0.02507 [    18]: 12111
      0.01284 [    25]: 21012
      0.00804 [     4]: 02121
      0.00651 [    31]: 21210
ROOT  15:  E=   -2660.3978240730 Eh  3.366 eV  27146.1 cm**-1
      0.38019 [    17]: 12102
      0.29120 [    20]: 12201
      0.21866 [    16]: 12021
      0.04180 [    19]: 12120
      0.03625 [    33]: 22101
      0.01296 [    25]: 21012
      0.00678 [     4]: 02121
      0.00665 [    31]: 21210
ROOT  16:  E=   -2660.3933840178 Eh  3.487 eV  28120.6 cm**-1
      0.83999 [    18]: 12111
      0.10473 [     3]: 02112
      0.01556 [    30]: 21201
      0.01110 [    26]: 21021
      0.00488 [    17]: 12102
      0.00485 [     9]: 11022
      0.00438 [    20]: 12201
      0.00370 [    16]: 12021
      0.00281 [    12]: 11202
ROOT  17:  E=   -2660.3785122827 Eh  3.891 eV  31384.6 cm**-1
      0.63154 [    15]: 12012
      0.21507 [    21]: 12210
      0.10737 [    32]: 22011
      0.03513 [     5]: 02211
      0.00264 [    27]: 21102
ROOT  18:  E=   -2660.3663006932 Eh  4.223 eV  34064.7 cm**-1
      0.74999 [    19]: 12120
      0.11951 [    17]: 12102
      0.11815 [     4]: 02121
      0.00264 [    20]: 12201
      0.00263 [    21]: 12210
ROOT  19:  E=   -2660.3446161919 Eh  4.814 eV  38823.9 cm**-1
      0.61566 [    21]: 12210
      0.26674 [    15]: 12012
      0.09707 [     5]: 02211
      0.00472 [    16]: 12021
      0.00323 [    22]: 20112
      0.00319 [    19]: 12120
      0.00283 [    11]: 11121
ROOT  20:  E=   -2660.3444419978 Eh  4.818 eV  38862.1 cm**-1
      0.55985 [    16]: 12021
      0.42050 [    20]: 12201
      0.00844 [    10]: 11112
      0.00555 [    21]: 12210
ROOT  21:  E=   -2660.3430881848 Eh  4.855 eV  39159.3 cm**-1
      0.98887 [    22]: 20112
      0.00407 [    18]: 12111
ROOT  22:  E=   -2660.3001592963 Eh  6.023 eV  48581.1 cm**-1
      0.84888 [    23]: 20121
      0.14518 [     6]: 10122
ROOT  23:  E=   -2660.2827964255 Eh  6.496 eV  52391.8 cm**-1
      0.84827 [    24]: 20211
      0.14468 [     7]: 10212
ROOT  24:  E=   -2660.2362373870 Eh  7.763 eV  62610.3 cm**-1
      0.91412 [    10]: 11112
      0.08524 [    28]: 21111
ROOT  25:  E=   -2660.2207739549 Eh  8.183 eV  66004.1 cm**-1
      0.89813 [    10]: 11112
      0.10040 [    28]: 21111
ROOT  26:  E=   -2660.1789511775 Eh  9.322 eV  75183.2 cm**-1
      0.87023 [    10]: 11112
      0.09473 [    28]: 21111
      0.01798 [    12]: 11202
      0.00620 [     9]: 11022
      0.00419 [    16]: 12021
      0.00353 [    20]: 12201
ROOT  27:  E=   -2660.1786657336 Eh  9.329 eV  75245.8 cm**-1
      0.48263 [    12]: 11202
      0.39428 [     9]: 11022
      0.05283 [    30]: 21201
      0.04217 [    26]: 21021
      0.02303 [    10]: 11112
      0.00251 [    28]: 21111
ROOT  28:  E=   -2660.1708030014 Eh  9.543 eV  76971.5 cm**-1
      0.74960 [    11]: 11121
      0.15800 [     0]: 01122
      0.09088 [    29]: 21120
ROOT  29:  E=   -2660.1593777866 Eh  9.854 eV  79479.0 cm**-1
      0.94777 [    11]: 11121
      0.02944 [     0]: 01122
      0.01794 [    29]: 21120
ROOT  30:  E=   -2660.1511828191 Eh 10.077 eV  81277.6 cm**-1
      0.76686 [    13]: 11211
      0.14634 [     1]: 01212
      0.08577 [    31]: 21210
ROOT  31:  E=   -2660.1425344848 Eh 10.312 eV  83175.7 cm**-1
      0.96365 [    13]: 11211
      0.02021 [     1]: 01212
      0.01245 [    31]: 21210
ROOT  32:  E=   -2660.1314509145 Eh 10.614 eV  85608.3 cm**-1
      0.39227 [     9]: 11022
      0.32328 [    12]: 11202
      0.10185 [    11]: 11121
      0.07000 [    14]: 11220
      0.04118 [    26]: 21021
      0.03448 [    30]: 21201
      0.01405 [     2]: 01221
      0.01155 [     0]: 01122
      0.00778 [    29]: 21120
ROOT  33:  E=   -2660.1295891074 Eh 10.665 eV  86016.9 cm**-1
      0.73074 [    11]: 11121
      0.08514 [     0]: 01122
      0.05670 [    29]: 21120
      0.05324 [     9]: 11022
      0.04267 [    12]: 11202
      0.01120 [    14]: 11220
      0.00529 [    26]: 21021
      0.00464 [    13]: 11211
      0.00455 [    30]: 21201
ROOT  34:  E=   -2660.1239991981 Eh 10.817 eV  87243.7 cm**-1
      0.79819 [    13]: 11211
      0.11745 [     1]: 01212
      0.07573 [    31]: 21210
      0.00350 [    11]: 11121
ROOT  35:  E=   -2660.0590886830 Eh 12.583 eV 101489.9 cm**-1
      0.75646 [     3]: 02112
      0.22219 [    18]: 12111
      0.02094 [    34]: 22110
ROOT  36:  E=   -2660.0473103526 Eh 12.904 eV 104075.0 cm**-1
      0.75444 [    14]: 11220
      0.14621 [     2]: 01221
      0.05509 [     9]: 11022
      0.03149 [    12]: 11202
      0.00735 [    26]: 21021
      0.00414 [    30]: 21201
ROOT  37:  E=   -2659.9752961118 Eh 14.863 eV 119880.3 cm**-1
      0.86078 [     4]: 02121
      0.13598 [    19]: 12120
ROOT  38:  E=   -2659.9547896014 Eh 15.421 eV 124380.9 cm**-1
      0.85983 [     5]: 02211
      0.13692 [    21]: 12210
ROOT  39:  E=   -2659.7590001048 Eh 20.749 eV 167351.8 cm**-1
      0.85145 [     6]: 10122
      0.14572 [    23]: 20121
ROOT  40:  E=   -2659.7435475633 Eh 21.169 eV 170743.2 cm**-1
      0.85165 [     7]: 10212
      0.14555 [    24]: 20211
ROOT  41:  E=   -2659.6622545811 Eh 23.382 eV 188585.0 cm**-1
      0.99930 [     8]: 10221
ROOT  42:  E=   -2659.5131423623 Eh 27.439 eV 221311.3 cm**-1
      0.70527 [     0]: 01122
      0.26718 [    11]: 11121
      0.02682 [    29]: 21120
ROOT  43:  E=   -2659.4951990461 Eh 27.927 eV 225249.4 cm**-1
      0.70498 [     1]: 01212
      0.26749 [    13]: 11211
      0.02688 [    31]: 21210
ROOT  44:  E=   -2659.3915407007 Eh 30.748 eV 247999.8 cm**-1
      0.83706 [     2]: 01221
      0.16272 [    14]: 11220

                 <<<<<<<<<<<<<<<<<<INITIAL CI STATE CHECK>>>>>>>>>>>>>>>>>>

   E(CAS)= -2660.263483917 Eh DE=    0.000000e+00
   --- Energy gap subspaces: Ext-Act = 0.114   Act-Int = 0.019
   N(occ)=  1.20000 1.20000 1.20000 1.20000 1.20000
   ||g|| =     2.910760e+00 Max(G)=    5.466710e-01 Rot=129,122
   --- Orbital Update [SuperCI(PT)]
   --- Canonicalize Internal Space
   --- Canonicalize External Space
   --- SX_PT (Skipped TA=0 IT=0): ||X|| =      1.269500723 Max(X)(128,126) =     -0.398827113 
   --- SFit(Active Orbitals)

MACRO-ITERATION   2: 
   --- Inactive Energy E0 = -2651.98242719 Eh
CI-ITERATION   0: 
 -2660.265874215   0.000000000000 (    0.00)
 -2660.181131644   0.000000000000
 -2660.171039917   0.000000000000
 -2659.829489060   0.000000000000
 -2659.710545467   0.000000000000
   CI-PROBLEM SOLVED
   DENSITIES MADE
CI-ITERATION   0: 
 -2660.471400281   0.000000000000 (    0.00)
 -2660.468299335   0.000000000000
 -2660.440058669   0.000000000000
 -2660.434893160   0.000000000000
 -2660.400430501   0.000000000000
 -2660.360366687   0.000000000000
 -2660.304182614   0.000000000000
 -2660.251729949   0.000000000000
 -2660.248043534   0.000000000000
 -2660.237593623   0.000000000000
 -2660.236183191   0.000000000000
 -2660.229262278   0.000000000000
 -2660.217131449   0.000000000000
 -2660.215398515   0.000000000000
 -2660.172320852   0.000000000000
 -2660.165707267   0.000000000000
 -2660.158417020   0.000000000000
 -2660.156932845   0.000000000000
 -2660.154405961   0.000000000000
 -2660.140366730   0.000000000000
 -2660.129885980   0.000000000000
 -2660.069168239   0.000000000000
 -2660.058294805   0.000000000000
 -2659.997609033   0.000000000000
 -2659.892798485   0.000000000000
 -2659.881068279   0.000000000000
 -2659.816886575   0.000000000000
 -2659.797356043   0.000000000000
 -2659.787845686   0.000000000000
 -2659.778160422   0.000000000000
 -2659.776452713   0.000000000000
 -2659.768523602   0.000000000000
 -2659.758612043   0.000000000000
 -2659.693439259   0.000000000000
 -2659.676708307   0.000000000000
 -2659.669269387   0.000000000000
 -2659.656368197   0.000000000000
 -2659.641326607   0.000000000000
 -2659.638527587   0.000000000000
 -2659.617162394   0.000000000000
 -2659.511836266   0.000000000000
 -2659.490361995   0.000000000000
 -2659.143169595   0.000000000000
 -2659.124003684   0.000000000000
 -2658.958454061   0.000000000000
   CI-PROBLEM SOLVED
   DENSITIES MADE
   E(CAS)= -2659.991323738 Eh DE=    2.721602e-01
   --- Energy gap subspaces: Ext-Act = -0.203   Act-Int = -0.461
   N(occ)=  1.20000 1.20000 1.20000 1.20000 1.20000
   ||g|| =     3.935352e+00 Max(G)=    7.116912e-01 Rot=135,125
   --- Orbital Update [SuperCI(PT)]
   --- Canonicalize Internal Space
   --- Canonicalize External Space
   --- SX_PT (Skipped TA=0 IT=0): ||X|| =     32.542762243 Max(X)(128,68) =     28.360557986 
   --- SFit(Active Orbitals)

MACRO-ITERATION   3: 
   --- Inactive Energy E0 = -2652.28452202 Eh
CI-ITERATION   0: 
 -2660.308148512   0.000000000000 (    0.00)
 -2660.234298779   0.000000000000
 -2660.230045927   0.000000000000
 -2659.918537542   0.000000000000
 -2659.818698007   0.000000000000
   CI-PROBLEM SOLVED
   DENSITIES MADE
CI-ITERATION   0: 
 -2660.455243367   0.000000000000 (    0.00)
 -2660.452704320   0.000000000000
 -2660.440288992   0.000000000000
 -2660.433277874   0.000000000000
 -2660.398330093   0.000000000000
 -2660.374247936   0.000000000000
 -2660.329663416   0.000000000000
 -2660.293960727   0.000000000000
 -2660.289996123   0.000000000000
 -2660.279282336   0.000000000000
 -2660.276643411   0.000000000000
 -2660.265036362   0.000000000000
 -2660.259023078   0.000000000000
 -2660.257488316   0.000000000000
 -2660.225100305   0.000000000000
 -2660.219740928   0.000000000000
 -2660.218209798   0.000000000000
 -2660.215366483   0.000000000000
 -2660.213383084   0.000000000000
 -2660.192605849   0.000000000000
 -2660.188097460   0.000000000000
 -2660.140934919   0.000000000000
 -2660.135446496   0.000000000000
 -2660.066012249   0.000000000000
 -2659.964508999   0.000000000000
 -2659.959285074   0.000000000000
 -2659.906009564   0.000000000000
 -2659.878255793   0.000000000000
 -2659.876296615   0.000000000000
 -2659.871042963   0.000000000000
 -2659.864429998   0.000000000000
 -2659.862811671   0.000000000000
 -2659.853605315   0.000000000000
 -2659.802503659   0.000000000000
 -2659.778037870   0.000000000000
 -2659.776994841   0.000000000000
 -2659.763442517   0.000000000000
 -2659.754664320   0.000000000000
 -2659.734042220   0.000000000000
 -2659.723157234   0.000000000000
 -2659.627105873   0.000000000000
 -2659.616421222   0.000000000000
 -2659.266859130   0.000000000000
 -2659.260817830   0.000000000000
 -2659.101635292   0.000000000000
   CI-PROBLEM SOLVED
   DENSITIES MADE
   E(CAS)= -2660.060550787 Eh DE=   -6.922705e-02
   --- Energy gap subspaces: Ext-Act = -0.151   Act-Int = -0.398
   N(occ)=  1.20000 1.20000 1.20000 1.20000 1.20000
   ||g|| =     3.515290e+00 Max(G)=    6.313756e-01 Rot=135,125
   --- Orbital Update [SuperCI(PT)]
   --- Canonicalize Internal Space
   --- Canonicalize External Space
   --- SX_PT (Skipped TA=0 IT=0): ||X|| =     22.341672345 Max(X)(129,99) =    -18.783940705 
   --- SFit(Active Orbitals)

MACRO-ITERATION   4: 
   --- Inactive Energy E0 = -2652.58973145 Eh
CI-ITERATION   0: 
 -2660.353027289   0.000000000000 (    0.00)
 -2660.290861797   0.000000000000
 -2660.287141353   0.000000000000
 -2660.007755313   0.000000000000
 -2659.923566371   0.000000000000
   CI-PROBLEM SOLVED
   DENSITIES MADE
CI-ITERATION   0: 
 -2660.447664827   0.000000000000 (    0.00)
 -2660.444981100   0.000000000000
 -2660.442911876   0.000000000000
 -2660.436841848   0.000000000000
 -2660.402188925   0.000000000000
 -2660.389590696   0.000000000000
 -2660.360424246   0.000000000000
 -2660.339020207   0.000000000000
 -2660.333777258   0.000000000000
 -2660.323537291   0.000000000000
 -2660.318724616   0.000000000000
 -2660.306979163   0.000000000000
 -2660.302477816   0.000000000000
 -2660.300610751   0.000000000000
 -2660.280781646   0.000000000000
 -2660.276973013   0.000000000000
 -2660.276257245   0.000000000000
 -2660.272414329   0.000000000000
 -2660.270216362   0.000000000000
 -2660.247861074   0.000000000000
 -2660.244384688   0.000000000000
 -2660.211371137   0.000000000000
 -2660.206955061   0.000000000000
 -2660.133686292   0.000000000000
 -2660.041485384   0.000000000000
 -2660.034601835   0.000000000000
 -2659.995398936   0.000000000000
 -2659.965770713   0.000000000000
 -2659.965152472   0.000000000000
 -2659.963797421   0.000000000000
 -2659.952815840   0.000000000000
 -2659.952569955   0.000000000000
 -2659.942552700   0.000000000000
 -2659.908444544   0.000000000000
 -2659.882547498   0.000000000000
 -2659.881174863   0.000000000000
 -2659.867415449   0.000000000000
 -2659.858409293   0.000000000000
 -2659.832223527   0.000000000000
 -2659.825435436   0.000000000000
 -2659.741093586   0.000000000000
 -2659.735295636   0.000000000000
 -2659.393174430   0.000000000000
 -2659.386939712   0.000000000000
 -2659.240758139   0.000000000000
   CI-PROBLEM SOLVED
   DENSITIES MADE
   E(CAS)= -2660.129987310 Eh DE=   -6.943652e-02
   --- Energy gap subspaces: Ext-Act = -0.105   Act-Int = -0.346
   N(occ)=  1.20000 1.20000 1.20000 1.20000 1.20000
   ||g|| =     3.105098e+00 Max(G)=    5.589528e-01 Rot=135,125
   --- Orbital Update [SuperCI(PT)]
   --- Canonicalize Internal Space
   --- Canonicalize External Space
   --- SX_PT (Skipped TA=0 IT=0): ||X|| =      4.493745517 Max(X)(129,124) =      3.047257630 
   --- SFit(Active Orbitals)

MACRO-ITERATION   5: 
   --- Inactive Energy E0 = -2653.67151577 Eh
CI-ITERATION   0: 
 -2660.607026246   0.000000000000 (    0.00)
 -2660.578963797   0.000000000000
 -2660.575547667   0.000000000000
 -2660.400597080   0.000000000000
 -2660.367088090   0.000000000000
   CI-PROBLEM SOLVED
   DENSITIES MADE
CI-ITERATION   0: 
 -2660.614938106   0.000000000000 (    0.00)
 -2660.606541368   0.000000000000
 -2660.597316328   0.000000000000
 -2660.594945793   0.000000000000
 -2660.586667600   0.000000000000
 -2660.582754970   0.000000000000
 -2660.578608280   0.000000000000
 -2660.572362503   0.000000000000
 -2660.568956370   0.000000000000
 -2660.568473971   0.000000000000
 -2660.565191505   0.000000000000
 -2660.559079067   0.000000000000
 -2660.551005094   0.000000000000
 -2660.548022441   0.000000000000
 -2660.544032656   0.000000000000
 -2660.543634235   0.000000000000
 -2660.542500172   0.000000000000
 -2660.531802113   0.000000000000
 -2660.517151885   0.000000000000
 -2660.494795561   0.000000000000
 -2660.492102467   0.000000000000
 -2660.486301082   0.000000000000
 -2660.463383309   0.000000000000
 -2660.452379404   0.000000000000
 -2660.395122634   0.000000000000
 -2660.386925686   0.000000000000
 -2660.380839887   0.000000000000
 -2660.366857409   0.000000000000
 -2660.357884310   0.000000000000
 -2660.356604367   0.000000000000
 -2660.353300511   0.000000000000
 -2660.346509750   0.000000000000
 -2660.341539079   0.000000000000
 -2660.328655763   0.000000000000
 -2660.325825548   0.000000000000
 -2660.323657207   0.000000000000
 -2660.308241560   0.000000000000
 -2660.291769593   0.000000000000
 -2660.260357628   0.000000000000
 -2660.255358431   0.000000000000
 -2660.225864793   0.000000000000
 -2660.220245037   0.000000000000
 -2659.908660857   0.000000000000
 -2659.881139291   0.000000000000
 -2659.796311260   0.000000000000
   CI-PROBLEM SOLVED
   DENSITIES MADE
   E(CAS)= -2660.459306920 Eh DE=   -3.293196e-01
   --- Energy gap subspaces: Ext-Act = 0.055   Act-Int = -0.172
   N(occ)=  1.20000 1.20000 1.20000 1.20000 1.20000
   ||g|| =     1.730487e+00 Max(G)=    3.277092e-01 Rot=135,125
   --- Orbital Update [SuperCI(PT)]
   --- Canonicalize Internal Space
   --- Canonicalize External Space
   --- SX_PT (Skipped TA=0 IT=0): ||X|| =      1.296353443 Max(X)(128,122) =     -0.675044265 
   --- SFit(Active Orbitals)

MACRO-ITERATION   6: 
   --- Inactive Energy E0 = -2654.44880283 Eh
CI-ITERATION   0: 
 -2660.806923047   0.000000000000 (    0.00)
 -2660.797804939   0.000000000000
 -2660.725740838   0.000000000000
 -2660.721549760   0.000000000000
 -2660.710910973   0.000000000000
   CI-PROBLEM SOLVED
   DENSITIES MADE
CI-ITERATION   0: 
 -2660.800482306   0.000000000000 (    0.00)
 -2660.791401997   0.000000000000
 -2660.775548374   0.000000000000
 -2660.772075928   0.000000000000
 -2660.761760260   0.000000000000
 -2660.752589732   0.000000000000
 -2660.750835629   0.000000000000
 -2660.749194961   0.000000000000
 -2660.744502998   0.000000000000
 -2660.741829810   0.000000000000
 -2660.740049249   0.000000000000
 -2660.737375044   0.000000000000
 -2660.736083785   0.000000000000
 -2660.730517776   0.000000000000
 -2660.729079274   0.000000000000
 -2660.721705346   0.000000000000
 -2660.711776181   0.000000000000
 -2660.710985817   0.000000000000
 -2660.706144237   0.000000000000
 -2660.699081160   0.000000000000
 -2660.696055628   0.000000000000
 -2660.695441549   0.000000000000
 -2660.693815007   0.000000000000
 -2660.687480279   0.000000000000
 -2660.681111415   0.000000000000
 -2660.678054189   0.000000000000
 -2660.672612056   0.000000000000
 -2660.670284301   0.000000000000
 -2660.660653665   0.000000000000
 -2660.659973169   0.000000000000
 -2660.653132181   0.000000000000
 -2660.648880209   0.000000000000
 -2660.647325086   0.000000000000
 -2660.638314685   0.000000000000
 -2660.634268815   0.000000000000
 -2660.588099450   0.000000000000
 -2660.519247787   0.000000000000
 -2660.506435701   0.000000000000
 -2660.455996693   0.000000000000
 -2660.406702549   0.000000000000
 -2660.400363185   0.000000000000
 -2660.392808256   0.000000000000
 -2660.313374003   0.000000000000
 -2660.308330161   0.000000000000
 -2660.300738182   0.000000000000
   CI-PROBLEM SOLVED
   DENSITIES MADE
   E(CAS)= -2660.699320934 Eh DE=   -2.400140e-01
   --- Energy gap subspaces: Ext-Act = 0.252   Act-Int = 0.068
   N(occ)=  1.20000 1.20000 1.20000 1.20000 1.20000
   ||g|| =     8.117847e-01 Max(G)=    9.738652e-02 Rot=129,122
   --- Orbital Update [SuperCI(PT)]
   --- Canonicalize Internal Space
   --- Canonicalize External Space
   --- SX_PT (Skipped TA=0 IT=0): ||X|| =      0.351237596 Max(X)(123,122) =      0.102330969 
   --- SFit(Active Orbitals)

MACRO-ITERATION   7: 
   --- Inactive Energy E0 = -2653.91486307 Eh
CI-ITERATION   0: 
 -2660.833840285   0.000000000000 (    0.00)
 -2660.814336609   0.000000000000
 -2660.805793027   0.000000000000
 -2660.800743306   0.000000000000
 -2660.765454275   0.000000000000
   CI-PROBLEM SOLVED
   DENSITIES MADE
CI-ITERATION   0: 
 -2660.826172128   0.000000000000 (    0.00)
 -2660.823187947   0.000000000000
 -2660.821324316   0.000000000000
 -2660.819428206   0.000000000000
 -2660.808478585   0.000000000000
 -2660.806519928   0.000000000000
 -2660.804022799   0.000000000000
 -2660.794116918   0.000000000000
 -2660.791915872   0.000000000000
 -2660.789610203   0.000000000000
 -2660.781985652   0.000000000000
 -2660.779245531   0.000000000000
 -2660.778671463   0.000000000000
 -2660.773206371   0.000000000000
 -2660.769528521   0.000000000000
 -2660.768493179   0.000000000000
 -2660.764651164   0.000000000000
 -2660.758538777   0.000000000000
 -2660.752952185   0.000000000000
 -2660.745526162   0.000000000000
 -2660.740929277   0.000000000000
 -2660.733140772   0.000000000000
 -2660.726566342   0.000000000000
 -2660.722662930   0.000000000000
 -2660.721223070   0.000000000000
 -2660.720070552   0.000000000000
 -2660.718253891   0.000000000000
 -2660.706669442   0.000000000000
 -2660.702349063   0.000000000000
 -2660.698269641   0.000000000000
 -2660.694383975   0.000000000000
 -2660.690492338   0.000000000000
 -2660.679376220   0.000000000000
 -2660.670937481   0.000000000000
 -2660.657578064   0.000000000000
 -2660.628583614   0.000000000000
 -2660.500992107   0.000000000000
 -2660.487850892   0.000000000000
 -2660.479368802   0.000000000000
 -2660.426746665   0.000000000000
 -2660.418862468   0.000000000000
 -2660.416751952   0.000000000000
 -2660.410115286   0.000000000000
 -2660.394557151   0.000000000000
 -2660.351244254   0.000000000000
   CI-PROBLEM SOLVED
   DENSITIES MADE
   E(CAS)= -2660.744856218 Eh DE=   -4.553528e-02
   --- Energy gap subspaces: Ext-Act = 0.266   Act-Int = 0.037
   N(occ)=  1.20000 1.20000 1.20000 1.20000 1.20000
   ||g|| =     5.583989e-01 Max(G)=    6.855837e-02 Rot=135,125
   --- Orbital Update [SuperCI(PT)]
   --- Canonicalize Internal Space
   --- Canonicalize External Space
   --- SX_PT (Skipped TA=0 IT=0): ||X|| =      0.238786331 Max(X)(133,125) =      0.059710115 
   --- SFit(Active Orbitals)

MACRO-ITERATION   8: 
   --- Inactive Energy E0 = -2653.74719461 Eh
CI-ITERATION   0: 
 -2660.875488561   0.000000000000 (    0.00)
 -2660.863341439   0.000000000000
 -2660.838284004   0.000000000000
 -2660.833535221   0.000000000000
 -2660.809482772   0.000000000000
   CI-PROBLEM SOLVED
   DENSITIES MADE
CI-ITERATION   0: 
 -2660.870182197   0.000000000000 (    0.00)
 -2660.862594440   0.000000000000
 -2660.855874305   0.000000000000
 -2660.852196113   0.000000000000
 -2660.845392392   0.000000000000
 -2660.843709101   0.000000000000
 -2660.840572682   0.000000000000
 -2660.832197660   0.000000000000
 -2660.826450832   0.000000000000
 -2660.822248920   0.000000000000
 -2660.813920844   0.000000000000
 -2660.811547736   0.000000000000
 -2660.809372575   0.000000000000
 -2660.805497596   0.000000000000
 -2660.803283720   0.000000000000
 -2660.800067219   0.000000000000
 -2660.797466062   0.000000000000
 -2660.796687722   0.000000000000
 -2660.789676053   0.000000000000
 -2660.784994064   0.000000000000
 -2660.780605884   0.000000000000
 -2660.769074527   0.000000000000
 -2660.767899994   0.000000000000
 -2660.763880581   0.000000000000
 -2660.762021975   0.000000000000
 -2660.757388264   0.000000000000
 -2660.749617387   0.000000000000
 -2660.743121691   0.000000000000
 -2660.739673558   0.000000000000
 -2660.738043188   0.000000000000
 -2660.732475813   0.000000000000
 -2660.721534983   0.000000000000
 -2660.716347198   0.000000000000
 -2660.706173578   0.000000000000
 -2660.701139574   0.000000000000
 -2660.660617807   0.000000000000
 -2660.481071843   0.000000000000
 -2660.465842726   0.000000000000
 -2660.454298756   0.000000000000
 -2660.432649311   0.000000000000
 -2660.412194351   0.000000000000
 -2660.393201913   0.000000000000
 -2660.385521391   0.000000000000
 -2660.372097846   0.000000000000
 -2660.371418248   0.000000000000
   CI-PROBLEM SOLVED
   DENSITIES MADE
   E(CAS)= -2660.778033695 Eh DE=   -3.317748e-02
   --- Energy gap subspaces: Ext-Act = 0.280   Act-Int = 0.051
   N(occ)=  1.20000 1.20000 1.20000 1.20000 1.20000
   ||g|| =     6.017762e-01 Max(G)=    3.526502e-02 Rot=129,67
   --- Orbital Update [SuperCI(PT)]
   --- Canonicalize Internal Space
   --- Canonicalize External Space
   --- SX_PT (Skipped TA=0 IT=0): ||X|| =      0.190399265 Max(X)(123,122) =      0.066964043 
   --- SFit(Active Orbitals)

MACRO-ITERATION   9: 
   --- Inactive Energy E0 = -2653.35771917 Eh
CI-ITERATION   0: 
 -2660.892363635   0.000000000000 (    0.00)
 -2660.878345814   0.000000000000
 -2660.869242589   0.000000000000
 -2660.863000926   0.000000000000
 -2660.830365042   0.000000000000
   CI-PROBLEM SOLVED
   DENSITIES MADE
CI-ITERATION   0: 
 -2660.889350261   0.000000000000 (    0.00)
 -2660.881547332   0.000000000000
 -2660.880186746   0.000000000000
 -2660.876419980   0.000000000000
 -2660.868458924   0.000000000000
 -2660.866304173   0.000000000000
 -2660.864947635   0.000000000000
 -2660.857654003   0.000000000000
 -2660.852883466   0.000000000000
 -2660.850545901   0.000000000000
 -2660.836327570   0.000000000000
 -2660.834534168   0.000000000000
 -2660.833182248   0.000000000000
 -2660.825359585   0.000000000000
 -2660.822148779   0.000000000000
 -2660.817725806   0.000000000000
 -2660.816003842   0.000000000000
 -2660.814319020   0.000000000000
 -2660.811431273   0.000000000000
 -2660.794213890   0.000000000000
 -2660.790728277   0.000000000000
 -2660.785433661   0.000000000000
 -2660.783235210   0.000000000000
 -2660.776534810   0.000000000000
 -2660.775593054   0.000000000000
 -2660.773677622   0.000000000000
 -2660.772565755   0.000000000000
 -2660.755368387   0.000000000000
 -2660.751694389   0.000000000000
 -2660.750025092   0.000000000000
 -2660.735204149   0.000000000000
 -2660.729628250   0.000000000000
 -2660.722303153   0.000000000000
 -2660.711575607   0.000000000000
 -2660.701818501   0.000000000000
 -2660.670555593   0.000000000000
 -2660.493228790   0.000000000000
 -2660.475885170   0.000000000000
 -2660.461453737   0.000000000000
 -2660.414410753   0.000000000000
 -2660.404718578   0.000000000000
 -2660.386625590   0.000000000000
 -2660.383965570   0.000000000000
 -2660.363370946   0.000000000000
 -2660.325495165   0.000000000000
   CI-PROBLEM SOLVED
   DENSITIES MADE
   E(CAS)= -2660.795427805 Eh DE=   -1.739411e-02
   --- Energy gap subspaces: Ext-Act = 0.285   Act-Int = 0.029
   N(occ)=  1.20000 1.20000 1.20000 1.20000 1.20000
   ||g|| =     4.229451e-01 Max(G)=    3.910131e-02 Rot=129,61
   --- Orbital Update [SuperCI(PT)]
   --- Canonicalize Internal Space
   --- Canonicalize External Space
   --- SX_PT (Skipped TA=0 IT=0): ||X|| =      0.124545893 Max(X)(123,122) =     -0.048905187 
   --- SFit(Active Orbitals)

MACRO-ITERATION  10: 
   --- Inactive Energy E0 = -2653.36660953 Eh
CI-ITERATION   0: 
 -2660.894092083   0.000000000000 (    0.00)
 -2660.880182665   0.000000000000
 -2660.871260273   0.000000000000
 -2660.864708813   0.000000000000
 -2660.833833594   0.000000000000
   CI-PROBLEM SOLVED
   DENSITIES MADE
CI-ITERATION   0: 
 -2660.890046401   0.000000000000 (    0.00)
 -2660.882492286   0.000000000000
 -2660.881689655   0.000000000000
 -2660.877135275   0.000000000000
 -2660.870170871   0.000000000000
 -2660.868186212   0.000000000000
 -2660.865948138   0.000000000000
 -2660.859457877   0.000000000000
 -2660.854581697   0.000000000000
 -2660.851943003   0.000000000000
 -2660.837363209   0.000000000000
 -2660.835700736   0.000000000000
 -2660.834227190   0.000000000000
 -2660.826153591   0.000000000000
 -2660.823261024   0.000000000000
 -2660.820922699   0.000000000000
 -2660.817395781   0.000000000000
 -2660.815552428   0.000000000000
 -2660.812929859   0.000000000000
 -2660.796335447   0.000000000000
 -2660.792591843   0.000000000000
 -2660.787289965   0.000000000000
 -2660.785673423   0.000000000000
 -2660.780166219   0.000000000000
 -2660.778993610   0.000000000000
 -2660.776548264   0.000000000000
 -2660.775670432   0.000000000000
 -2660.758680250   0.000000000000
 -2660.754072931   0.000000000000
 -2660.753032488   0.000000000000
 -2660.737746996   0.000000000000
 -2660.731523393   0.000000000000
 -2660.724066123   0.000000000000
 -2660.713229445   0.000000000000
 -2660.705479214   0.000000000000
 -2660.674106406   0.000000000000
 -2660.496735443   0.000000000000
 -2660.479191931   0.000000000000
 -2660.465292032   0.000000000000
 -2660.419475217   0.000000000000
 -2660.409681038   0.000000000000
 -2660.391747030   0.000000000000
 -2660.390306217   0.000000000000
 -2660.370208100   0.000000000000
 -2660.332408016   0.000000000000
   CI-PROBLEM SOLVED
   DENSITIES MADE
   E(CAS)= -2660.797801181 Eh DE=   -2.373375e-03
   --- Energy gap subspaces: Ext-Act = 0.284   Act-Int = 0.029
   N(occ)=  1.20000 1.20000 1.20000 1.20000 1.20000
   ||g|| =     4.077905e-01 Max(G)=    3.351208e-02 Rot=129,61
   --- Orbital Update [SuperCI(PT)]
   --- Canonicalize Internal Space
   --- Canonicalize External Space
   --- SX_PT (Skipped TA=0 IT=0): ||X|| =      0.122893048 Max(X)(123,122) =     -0.054764036 
   --- SFit(Active Orbitals)

MACRO-ITERATION  11: 
   --- Inactive Energy E0 = -2653.34146728 Eh
CI-ITERATION   0: 
 -2660.895117582   0.000000000000 (    0.00)
 -2660.881050245   0.000000000000
 -2660.872399061   0.000000000000
 -2660.865735718   0.000000000000
 -2660.836102588   0.000000000000
   CI-PROBLEM SOLVED
   DENSITIES MADE
CI-ITERATION   0: 
 -2660.890179380   0.000000000000 (    0.00)
 -2660.882822068   0.000000000000
 -2660.882355580   0.000000000000
 -2660.877308618   0.000000000000
 -2660.870604847   0.000000000000
 -2660.868931413   0.000000000000
 -2660.866514912   0.000000000000
 -2660.860361716   0.000000000000
 -2660.855311396   0.000000000000
 -2660.852663647   0.000000000000
 -2660.837900215   0.000000000000
 -2660.835954586   0.000000000000
 -2660.834585073   0.000000000000
 -2660.826423576   0.000000000000
 -2660.823664912   0.000000000000
 -2660.822915489   0.000000000000
 -2660.818112980   0.000000000000
 -2660.816074592   0.000000000000
 -2660.813667292   0.000000000000
 -2660.797250782   0.000000000000
 -2660.793403629   0.000000000000
 -2660.788350328   0.000000000000
 -2660.787051868   0.000000000000
 -2660.782257954   0.000000000000
 -2660.781038180   0.000000000000
 -2660.778208689   0.000000000000
 -2660.777378292   0.000000000000
 -2660.760693914   0.000000000000
 -2660.756346700   0.000000000000
 -2660.753235121   0.000000000000
 -2660.738686740   0.000000000000
 -2660.732507175   0.000000000000
 -2660.724693711   0.000000000000
 -2660.713730721   0.000000000000
 -2660.707483667   0.000000000000
 -2660.676184364   0.000000000000
 -2660.498991212   0.000000000000
 -2660.481722237   0.000000000000
 -2660.468478999   0.000000000000
 -2660.423872512   0.000000000000
 -2660.414494334   0.000000000000
 -2660.396809879   0.000000000000
 -2660.394430025   0.000000000000
 -2660.374338505   0.000000000000
 -2660.336742384   0.000000000000
   CI-PROBLEM SOLVED
   DENSITIES MADE
   E(CAS)= -2660.799204233 Eh DE=   -1.403052e-03
   --- Energy gap subspaces: Ext-Act = 0.284   Act-Int = 0.030
   N(occ)=  1.20000 1.20000 1.20000 1.20000 1.20000
   ||g|| =     4.072610e-01 Max(G)=    3.152853e-02 Rot=129,61
   --- Orbital Update [SuperCI(PT)]
   --- Canonicalize Internal Space
   --- Canonicalize External Space
   --- SX_PT (Skipped TA=0 IT=0): ||X|| =      0.121142109 Max(X)(123,122) =     -0.054547107 
   --- SFit(Active Orbitals)

MACRO-ITERATION  12: 
   --- Inactive Energy E0 = -2653.32203989 Eh
CI-ITERATION   0: 
 -2660.895750257   0.000000000000 (    0.00)
 -2660.881909602   0.000000000000
 -2660.872993057   0.000000000000
 -2660.866364597   0.000000000000
 -2660.838060013   0.000000000000
   CI-PROBLEM SOLVED
   DENSITIES MADE
CI-ITERATION   0: 
 -2660.890171580   0.000000000000 (    0.00)
 -2660.883051137   0.000000000000
 -2660.882109352   0.000000000000
 -2660.877060210   0.000000000000
 -2660.870194300   0.000000000000
 -2660.868949729   0.000000000000
 -2660.866598197   0.000000000000
 -2660.860666778   0.000000000000
 -2660.855247712   0.000000000000
 -2660.852995741   0.000000000000
 -2660.838332870   0.000000000000
 -2660.835807894   0.000000000000
 -2660.834684812   0.000000000000
 -2660.826661074   0.000000000000
 -2660.824599507   0.000000000000
 -2660.823915981   0.000000000000
 -2660.818589449   0.000000000000
 -2660.816355504   0.000000000000
 -2660.814119402   0.000000000000
 -2660.798203724   0.000000000000
 -2660.794329103   0.000000000000
 -2660.789533527   0.000000000000
 -2660.788402664   0.000000000000
 -2660.784309436   0.000000000000
 -2660.783013623   0.000000000000
 -2660.779892199   0.000000000000
 -2660.779001574   0.000000000000
 -2660.762581251   0.000000000000
 -2660.758569342   0.000000000000
 -2660.753558792   0.000000000000
 -2660.739576739   0.000000000000
 -2660.733431008   0.000000000000
 -2660.725537694   0.000000000000
 -2660.714573080   0.000000000000
 -2660.709475852   0.000000000000
 -2660.678250578   0.000000000000
 -2660.501270438   0.000000000000
 -2660.484343345   0.000000000000
 -2660.471818941   0.000000000000
 -2660.428774803   0.000000000000
 -2660.419892186   0.000000000000
 -2660.402514548   0.000000000000
 -2660.400371422   0.000000000000
 -2660.379890105   0.000000000000
 -2660.342781828   0.000000000000
   CI-PROBLEM SOLVED
   DENSITIES MADE
   E(CAS)= -2660.800441186 Eh DE=   -1.236953e-03
   --- Energy gap subspaces: Ext-Act = 0.284   Act-Int = 0.030
   N(occ)=  1.20000 1.20000 1.20000 1.20000 1.20000
   ||g|| =     4.075643e-01 Max(G)=    3.125454e-02 Rot=129,61
   --- Orbital Update [SuperCI(PT)]
   --- Canonicalize Internal Space
   --- Canonicalize External Space
   --- SX_PT (Skipped TA=0 IT=0): ||X|| =      0.121389427 Max(X)(123,122) =     -0.056779823 
   --- SFit(Active Orbitals)

MACRO-ITERATION  13: 
   --- Inactive Energy E0 = -2653.38540775 Eh
CI-ITERATION   0: 
 -2660.893952885   0.000000000000 (    0.00)
 -2660.880488443   0.000000000000
 -2660.871717020   0.000000000000
 -2660.865142489   0.000000000000
 -2660.831428134   0.000000000000
   CI-PROBLEM SOLVED
   DENSITIES MADE
CI-ITERATION   0: 
 -2660.891849147   0.000000000000 (    0.00)
 -2660.884310367   0.000000000000
 -2660.881806121   0.000000000000
 -2660.878660203   0.000000000000
 -2660.871071830   0.000000000000
 -2660.868418424   0.000000000000
 -2660.867008975   0.000000000000
 -2660.860049396   0.000000000000
 -2660.854721680   0.000000000000
 -2660.852636078   0.000000000000
 -2660.838187261   0.000000000000
 -2660.836708116   0.000000000000
 -2660.835060257   0.000000000000
 -2660.827002419   0.000000000000
 -2660.823965442   0.000000000000
 -2660.818826624   0.000000000000
 -2660.817728413   0.000000000000
 -2660.815969368   0.000000000000
 -2660.813215761   0.000000000000
 -2660.796507779   0.000000000000
 -2660.792639826   0.000000000000
 -2660.787261670   0.000000000000
 -2660.784622677   0.000000000000
 -2660.776845188   0.000000000000
 -2660.776236409   0.000000000000
 -2660.774493062   0.000000000000
 -2660.773298649   0.000000000000
 -2660.756387732   0.000000000000
 -2660.752934186   0.000000000000
 -2660.750801958   0.000000000000
 -2660.735674557   0.000000000000
 -2660.730894725   0.000000000000
 -2660.724261699   0.000000000000
 -2660.713271723   0.000000000000
 -2660.702319579   0.000000000000
 -2660.671268658   0.000000000000
 -2660.494546759   0.000000000000
 -2660.476022508   0.000000000000
 -2660.461807770   0.000000000000
 -2660.413184399   0.000000000000
 -2660.402212156   0.000000000000
 -2660.384529933   0.000000000000
 -2660.380417837   0.000000000000
 -2660.361790781   0.000000000000
 -2660.322980299   0.000000000000
   CI-PROBLEM SOLVED
   DENSITIES MADE
   E(CAS)= -2660.796877435 Eh DE=    3.563751e-03
   --- Energy gap subspaces: Ext-Act = 0.284   Act-Int = 0.028
   N(occ)=  1.20000 1.20000 1.20000 1.20000 1.20000
   ||g|| =     4.058755e-01 Max(G)=    3.118888e-02 Rot=129,61
   --- Orbital Update [SuperCI(PT)]
   --- Canonicalize Internal Space
   --- Canonicalize External Space
   --- SX_PT (Skipped TA=0 IT=0): ||X|| =      0.119892870 Max(X)(123,122) =     -0.049147970 
   --- SFit(Active Orbitals)

MACRO-ITERATION  14: 
   --- Inactive Energy E0 = -2653.45232811 Eh
CI-ITERATION   0: 
 -2660.891312455   0.000000000000 (    0.00)
 -2660.876385860   0.000000000000
 -2660.872596037   0.000000000000
 -2660.865477475   0.000000000000
 -2660.821460949   0.000000000000
   CI-PROBLEM SOLVED
   DENSITIES MADE
CI-ITERATION   0: 
 -2660.892254583   0.000000000000 (    0.00)
 -2660.888877010   0.000000000000
 -2660.881994557   0.000000000000
 -2660.880022451   0.000000000000
 -2660.873673825   0.000000000000
 -2660.868937576   0.000000000000
 -2660.868401854   0.000000000000
 -2660.861640458   0.000000000000
 -2660.854670928   0.000000000000
 -2660.854047366   0.000000000000
 -2660.841069845   0.000000000000
 -2660.837669670   0.000000000000
 -2660.836800130   0.000000000000
 -2660.828083736   0.000000000000
 -2660.824013963   0.000000000000
 -2660.817278744   0.000000000000
 -2660.815785511   0.000000000000
 -2660.813488048   0.000000000000
 -2660.809717555   0.000000000000
 -2660.793054524   0.000000000000
 -2660.788840313   0.000000000000
 -2660.784426024   0.000000000000
 -2660.779400545   0.000000000000
 -2660.768974589   0.000000000000
 -2660.764487715   0.000000000000
 -2660.763824443   0.000000000000
 -2660.763147795   0.000000000000
 -2660.752601721   0.000000000000
 -2660.745106178   0.000000000000
 -2660.738752350   0.000000000000
 -2660.728664032   0.000000000000
 -2660.726362239   0.000000000000
 -2660.720228674   0.000000000000
 -2660.709440183   0.000000000000
 -2660.689191783   0.000000000000
 -2660.660137942   0.000000000000
 -2660.492745958   0.000000000000
 -2660.472151215   0.000000000000
 -2660.455384362   0.000000000000
 -2660.399596198   0.000000000000
 -2660.385852414   0.000000000000
 -2660.367482775   0.000000000000
 -2660.346885640   0.000000000000
 -2660.330915153   0.000000000000
 -2660.288916688   0.000000000000
   CI-PROBLEM SOLVED
   DENSITIES MADE
   E(CAS)= -2660.792334380 Eh DE=    4.543055e-03
   --- Energy gap subspaces: Ext-Act = 0.281   Act-Int = 0.021
   N(occ)=  1.20000 1.20000 1.20000 1.20000 1.20000
   ||g|| =     3.929803e-01 Max(G)=    3.196670e-02 Rot=129,61
   --- Orbital Update [SuperCI(PT)]
   --- Canonicalize Internal Space
   --- Canonicalize External Space
   --- SX_PT (Skipped TA=0 IT=0): ||X|| =      0.113612006 Max(X)(123,122) =     -0.023748486 
Warning: badly conditioned DIIS matrix, 1 vectors out of 14 destroyed
   --- SFit(Active Orbitals)

MACRO-ITERATION  15: 
   --- Inactive Energy E0 = -2653.43022418 Eh
CI-ITERATION   0: 
 -2660.894416100   0.000000000000 (    0.00)
 -2660.879049920   0.000000000000
 -2660.876605908   0.000000000000
 -2660.869833587   0.000000000000
 -2660.823160021   0.000000000000
   CI-PROBLEM SOLVED
   DENSITIES MADE
CI-ITERATION   0: 
 -2660.895445477   0.000000000000 (    0.00)
 -2660.892813165   0.000000000000
 -2660.886042265   0.000000000000
 -2660.882597265   0.000000000000
 -2660.878913521   0.000000000000
 -2660.873930676   0.000000000000
 -2660.873084219   0.000000000000
 -2660.865279738   0.000000000000
 -2660.860021851   0.000000000000
 -2660.857833047   0.000000000000
 -2660.843817447   0.000000000000
 -2660.839928616   0.000000000000
 -2660.838969456   0.000000000000
 -2660.829582991   0.000000000000
 -2660.826984318   0.000000000000
 -2660.820354887   0.000000000000
 -2660.818402280   0.000000000000
 -2660.816967788   0.000000000000
 -2660.810805717   0.000000000000
 -2660.795807963   0.000000000000
 -2660.791526544   0.000000000000
 -2660.787004560   0.000000000000
 -2660.780425251   0.000000000000
 -2660.770168180   0.000000000000
 -2660.764208886   0.000000000000
 -2660.763320747   0.000000000000
 -2660.763259805   0.000000000000
 -2660.753012979   0.000000000000
 -2660.745929105   0.000000000000
 -2660.739723488   0.000000000000
 -2660.731661395   0.000000000000
 -2660.725978028   0.000000000000
 -2660.723455500   0.000000000000
 -2660.711884010   0.000000000000
 -2660.689961041   0.000000000000
 -2660.661689923   0.000000000000
 -2660.505146551   0.000000000000
 -2660.483308933   0.000000000000
 -2660.468657909   0.000000000000
 -2660.405188266   0.000000000000
 -2660.390320263   0.000000000000
 -2660.374103092   0.000000000000
 -2660.345775484   0.000000000000
 -2660.333332170   0.000000000000
 -2660.290388482   0.000000000000
   CI-PROBLEM SOLVED
   DENSITIES MADE
   E(CAS)= -2660.795495590 Eh DE=   -3.161210e-03
   --- Energy gap subspaces: Ext-Act = 0.279   Act-Int = 0.018
   N(occ)=  1.20000 1.20000 1.20000 1.20000 1.20000
   ||g|| =     3.778881e-01 Max(G)=    2.993402e-02 Rot=129,61
   --- Orbital Update [SuperCI(PT)]
   --- Canonicalize Internal Space
   --- Canonicalize External Space
   --- SX_PT (Skipped TA=0 IT=0): ||X|| =      0.105179449 Max(X)(123,122) =      0.015966266 
Warning: badly conditioned DIIS matrix, 1 vectors out of 14 destroyed
   --- SFit(Active Orbitals)

MACRO-ITERATION  16: 
   --- Inactive Energy E0 = -2653.40222093 Eh
CI-ITERATION   0: 
 -2660.902060797   0.000000000000 (    0.00)
 -2660.889221525   0.000000000000
 -2660.884670069   0.000000000000
 -2660.881425734   0.000000000000
 -2660.827235938   0.000000000000
   CI-PROBLEM SOLVED
   DENSITIES MADE
CI-ITERATION   0: 
 -2660.904306628   0.000000000000 (    0.00)
 -2660.902297391   0.000000000000
 -2660.896746680   0.000000000000
 -2660.890087915   0.000000000000
 -2660.888153572   0.000000000000
 -2660.883538435   0.000000000000
 -2660.882086279   0.000000000000
 -2660.877540081   0.000000000000
 -2660.869522775   0.000000000000
 -2660.867795861   0.000000000000
 -2660.856881960   0.000000000000
 -2660.851729050   0.000000000000
 -2660.849403290   0.000000000000
 -2660.839499389   0.000000000000
 -2660.836618394   0.000000000000
 -2660.829280719   0.000000000000
 -2660.828242647   0.000000000000
 -2660.826314835   0.000000000000
 -2660.814573118   0.000000000000
 -2660.801838943   0.000000000000
 -2660.797536527   0.000000000000
 -2660.795248113   0.000000000000
 -2660.789291819   0.000000000000
 -2660.779169894   0.000000000000
 -2660.766006241   0.000000000000
 -2660.765849500   0.000000000000
 -2660.765372284   0.000000000000
 -2660.760354312   0.000000000000
 -2660.749199560   0.000000000000
[...]
      dx2y2   :     0.002286
      dxy     :     0.003867
      f0      :     0.000064  f :     0.000342
      f+1     :     0.000103
      f-1     :     0.000024
      f+2     :     0.000053
      f-2     :     0.000037
      f+3     :     0.000036
      f-3     :     0.000026
  6 Aus       :     0.003500  s :     0.003500
      pz      :     0.002834  p :     0.046138
      px      :     0.015731
      py      :     0.027574
      dz2     :     0.004355  d :     0.023188
      dxz     :     0.003151
      dyz     :     0.006151
      dx2y2   :     0.007610
      dxy     :     0.001921
      f0      :     0.000052  f :     0.000295
      f+1     :     0.000018
      f-1     :     0.000051
      f+2     :     0.000054
      f-2     :     0.000077
      f+3     :     0.000019
      f-3     :     0.000025
  7 Aus       :     0.031159  s :     0.031159
      pz      :     0.007885  p :     0.021425
      px      :     0.009803
      py      :     0.003738
      dz2     :     0.005014  d :     0.016601
      dxz     :     0.003739
      dyz     :     0.002132
      dx2y2   :     0.002083
      dxy     :     0.003633
      f0      :     0.000030  f :     0.000232
      f+1     :     0.000010
      f-1     :     0.000034
      f+2     :     0.000037
      f-2     :     0.000045
      f+3     :     0.000019
      f-3     :     0.000056
  8 Aus       :     0.045364  s :     0.045364
      pz      :     0.010245  p :     0.016674
      px      :     0.006009
      py      :     0.000420
      dz2     :     0.007637  d :     0.019513
      dxz     :     0.003759
      dyz     :     0.000882
      dx2y2   :     0.004831
      dxy     :     0.002404
      f0      :     0.000046  f :     0.000385
      f+1     :     0.000079
      f-1     :     0.000002
      f+2     :     0.000070
      f-2     :     0.000016
      f+3     :     0.000136
      f-3     :     0.000036
  9 Aus       :     0.044002  s :     0.044002
      pz      :     0.012983  p :     0.036832
      px      :     0.013470
      py      :     0.010380
      dz2     :     0.006281  d :     0.025317
      dxz     :     0.005643
      dyz     :     0.002637
      dx2y2   :     0.004842
      dxy     :     0.005913
      f0      :     0.000022  f :     0.000359
      f+1     :     0.000078
      f-1     :     0.000047
      f+2     :     0.000073
      f-2     :     0.000069
      f+3     :     0.000041
      f-3     :     0.000028
 10 Aus       :     0.006315  s :     0.006315
      pz      :     0.002323  p :     0.055428
      px      :     0.019715
      py      :     0.033391
      dz2     :     0.001717  d :     0.018090
      dxz     :     0.003813
      dyz     :     0.002141
      dx2y2   :     0.003622
      dxy     :     0.006796
      f0      :     0.000029  f :     0.000362
      f+1     :     0.000041
      f-1     :     0.000063
      f+2     :     0.000014
      f-2     :     0.000091
      f+3     :     0.000062
      f-3     :     0.000062
 11 Aus       :     0.056955  s :     0.056955
      pz      :     0.014128  p :     0.033736
      px      :     0.014944
      py      :     0.004664
      dz2     :     0.001242  d :     0.008759
      dxz     :     0.000479
      dyz     :     0.002682
      dx2y2   :     0.000964
      dxy     :     0.003392
      f0      :     0.000006  f :     0.000052
      f+1     :     0.000002
      f-1     :     0.000018
      f+2     :     0.000006
      f-2     :     0.000001
      f+3     :     0.000013
      f-3     :     0.000005
 12 Crs       :     0.000415  s :     0.000415
      pz      :     0.003234  p :     0.012390
      px      :     0.005592
      py      :     0.003564
      dz2     :     0.547430  d :     2.049956
      dxz     :     0.272116
      dyz     :     0.308466
      dx2y2   :     0.412375
      dxy     :     0.509569
      f0      :     0.000001  f :     0.000008
      f+1     :     0.000000
      f-1     :     0.000002
      f+2     :     0.000001
      f-2     :     0.000003
      f+3     :     0.000002
      f-3     :     0.000000


                      *****************************
                      * MAYER POPULATION ANALYSIS *
                      *****************************

  NA   - Mulliken gross atomic population
  ZA   - Total nuclear charge
  QA   - Mulliken gross atomic charge
  VA   - Mayer's total valence
  BVA  - Mayer's bonded valence
  FA   - Mayer's free valence

  ATOM       NA         ZA         QA         VA         BVA        FA
  0 Au    18.6562    19.0000     0.3438     1.1526     1.0272     0.1254
  1 Au    18.7329    19.0000     0.2671     1.5594     1.5101     0.0492
  2 Au    18.4920    19.0000     0.5080     1.0494     1.0155     0.0339
  3 Au    18.8461    19.0000     0.1539     1.6850     1.6555     0.0294
  4 Au    18.7275    19.0000     0.2725     1.4988     1.4440     0.0548
  5 Au    18.5460    19.0000     0.4540     1.4312     1.3977     0.0335
  6 Au    18.7256    19.0000     0.2744     1.4123     1.3786     0.0337
  7 Au    18.6160    19.0000     0.3840     1.3720     1.3139     0.0581
  8 Au    18.7295    19.0000     0.2705     1.4946     1.4360     0.0586
  9 Au    18.8977    19.0000     0.1023     1.6990     1.6194     0.0796
 10 Au    18.7386    19.0000     0.2614     1.5575     1.5089     0.0486
 11 Au    18.6488    19.0000     0.3512     1.1440     1.0220     0.1220
 12 Cr    27.6432    24.0000    -3.6432     9.4982     6.0058     3.4925

  Mayer bond orders larger than 0.100000
B(  0-Au,  1-Au) :   0.1539 B(  0-Au,  3-Au) :   0.1667 B(  0-Au,  9-Au) :   0.2188 
B(  0-Au, 11-Au) :   0.1201 B(  0-Au, 12-Cr) :   0.3530 B(  1-Au,  4-Au) :   0.4462 
B(  1-Au, 12-Cr) :   0.6263 B(  2-Au,  4-Au) :   0.1328 B(  2-Au,  5-Au) :   0.1742 
B(  2-Au,  7-Au) :   0.1577 B(  2-Au,  8-Au) :   0.1327 B(  2-Au, 12-Cr) :   0.3094 
B(  3-Au,  5-Au) :   0.3540 B(  3-Au,  9-Au) :   0.1035 B(  3-Au, 11-Au) :   0.1610 
B(  3-Au, 12-Cr) :   0.6057 B(  4-Au, 12-Cr) :   0.5194 B(  5-Au, 12-Cr) :   0.6175 
B(  6-Au,  7-Au) :   0.3160 B(  6-Au,  9-Au) :   0.3182 B(  6-Au, 12-Cr) :   0.6002 
B(  7-Au, 12-Cr) :   0.4244 B(  8-Au, 10-Au) :   0.4462 B(  8-Au, 12-Cr) :   0.5091 
B(  9-Au, 11-Au) :   0.2319 B(  9-Au, 12-Cr) :   0.4664 B( 10-Au, 11-Au) :   0.1494 
B( 10-Au, 12-Cr) :   0.6287 B( 11-Au, 12-Cr) :   0.3458 


-------------------------------------------------------------
 Forming the transition density       ... done in 0.022559 sec
-------------------------------------------------------------



==========================================
CASSCF UV, CD spectra and dipole moments
==========================================
-------------------
ABSORPTION SPECTRUM
-------------------

Center of mass           = ( 16.6114, 12.5464, 14.1608)
Nuclear contribution to the dipole moment =    -3.767667,   12.692393,    3.732136 au

Calculating the Dipole integrals                  ... done
Transforming integrals                            ... done
Calculating the Linear Momentum integrals         ... done
Transforming integrals                            ... done
Calculating the Angular Momentum integrals        ... done
Transforming integrals                            ... done

------------------------------------------------------------------------------------------
                                ABSORPTION SPECTRUM
------------------------------------------------------------------------------------------
  States           Energy   Wavelength   fosc          T2        TX         TY        TZ  
                   (cm-1)     (nm)                   (D**2)      (D)        (D)       (D) 
------------------------------------------------------------------------------------------
  0( 1)-> 1( 1) 3    5391.1   1854.9   0.000075922   0.02990  -0.04468  -0.14047  -0.09043
  0( 1)-> 2( 1) 3    5778.7   1730.5   0.000007619   0.00280   0.02302   0.03321  -0.03416
  0( 1)-> 3( 1) 3    6751.6   1481.1   0.000087883   0.02764  -0.08430  -0.04753   0.13518
  0( 1)-> 4( 1) 3    7515.7   1330.5   0.000588943   0.16640  -0.29370   0.17404  -0.22328
  0( 1)-> 5( 1) 3    8339.5   1199.1   0.000390112   0.09933   0.24764   0.14569  -0.12954
  0( 1)-> 6( 1) 3    8672.4   1153.1   0.000084319   0.02065   0.06107  -0.01116  -0.12959
  0( 1)-> 7( 1) 3    9563.7   1045.6   0.000255268   0.05668   0.17772   0.10460  -0.11897
  0( 1)-> 8( 1) 3   14102.3    709.1   0.000033447   0.00504  -0.06062   0.00095   0.03689
  0( 1)-> 9( 1) 3   14791.1    676.1   0.000007092   0.00102   0.00923   0.01630   0.02583
  0( 1)->10( 1) 3   16675.9    599.7   0.003997402   0.50903  -0.33848   0.62805   0.00362
  0( 1)->11( 1) 3   17629.3    567.2   0.000027001   0.00325   0.03435   0.01312  -0.04359
  0( 1)->12( 1) 3   17824.8    561.0   0.000319630   0.03808  -0.12520   0.14191  -0.04758
  0( 1)->13( 1) 3   19090.8    523.8   0.000564568   0.06280   0.13563  -0.21049  -0.00971
  0( 1)->14( 1) 3   19360.4    516.5   0.000118905   0.01304  -0.01487   0.11131  -0.02078
  0( 1)->15( 1) 3   19961.2    501.0   0.000025051   0.00266   0.02819   0.03381  -0.02696
  0( 1)->16( 1) 3   20923.1    477.9   0.000028339   0.00288  -0.04827  -0.00093   0.02336
  0( 1)->17( 1) 3   21458.4    466.0   0.000102056   0.01010  -0.04823   0.08501  -0.02340
  0( 1)->18( 1) 3   21761.9    459.5   0.000171891   0.01677  -0.06527   0.11150   0.00902
  0( 1)->19( 1) 3   23187.5    431.3   0.000131950   0.01208  -0.06578   0.07819  -0.04053
  0( 1)->20( 1) 3   24702.6    404.8   0.001954073   0.16798  -0.30530  -0.17464   0.21040
  0( 1)->21( 1) 3   28562.4    350.1   0.000028121   0.00209   0.03391   0.01024  -0.02891
  0( 1)->22( 1) 3   32039.8    312.1   0.000015460   0.00102   0.01227   0.01350   0.02630
  0( 1)->23( 1) 3   33479.3    298.7   0.000189952   0.01205  -0.06977   0.08251  -0.01929
  0( 1)->24( 1) 3   33919.0    294.8   0.000116743   0.00731   0.05982   0.03504  -0.05002
  0( 1)->25( 1) 3   35170.0    284.3   0.000030905   0.00187  -0.02350  -0.02758   0.02352
  0( 1)->26( 1) 3   35800.1    279.3   0.000004914   0.00029   0.00165  -0.01699  -0.00023
  0( 1)->27( 1) 3   36863.7    271.3   0.000229544   0.01322   0.04219  -0.10474  -0.02176
  0( 1)->28( 1) 3   38436.2    260.2   0.064953263   3.58850  -0.86875   1.68302   0.03510
  0( 1)->29( 1) 3   39204.6    255.1   0.000791736   0.04288   0.09999  -0.18129  -0.00440
  0( 1)->30( 1) 3   39483.2    253.3   0.002493342   0.13410   0.17221  -0.32317   0.00185
  0( 1)->31( 1) 3   41060.3    243.5   0.000328907   0.01701   0.07488  -0.10250   0.02996
  0( 1)->32( 1) 3   41247.8    242.4   0.016716798   0.86061   0.47606  -0.79162   0.08552
  0( 1)->33( 1) 3   44086.4    226.8   0.000150223   0.00724  -0.05744   0.05335  -0.03302
  0( 1)->34( 1) 3   47197.7    211.9   0.000000161   0.00001   0.00080  -0.00199  -0.00162
  0( 1)->35( 1) 3   53514.8    186.9   0.000028912   0.00115  -0.00895   0.03102   0.01023
  0( 1)->36( 1) 3   73301.4    136.4   0.000000022   0.00000   0.00009  -0.00039   0.00068
  0( 1)->37( 1) 3   78054.1    128.1   0.000005475   0.00015  -0.00158   0.01193  -0.00204
  0( 1)->38( 1) 3   78276.2    127.8   0.000049658   0.00135   0.01629  -0.03273  -0.00326
  0( 1)->39( 1) 3  103519.0     96.6   0.000135246   0.00277  -0.03882   0.00891   0.03446
  0( 1)->40( 1) 3  105207.6     95.1   0.013157959   0.26558  -0.30873   0.39080  -0.13244
  0( 1)->41( 1) 3  112217.9     89.1   0.016373031   0.30983  -0.21007   0.50947   0.07838
  0( 1)->42( 1) 3  115239.2     86.8   0.000011707   0.00022   0.00467  -0.01331  -0.00409
  0( 1)->43( 1) 3  118135.0     84.6   0.000808467   0.01453  -0.07286   0.08950  -0.03484
  0( 1)->44( 1) 3  118362.0     84.5   0.000015863   0.00028  -0.01482  -0.00631   0.00500
------------------------------------------------------------------------------------------



------------------------------------------------------------------------------
                             CD SPECTRUM
------------------------------------------------------------------------------
      States        Energy   Wavelength   R*T        RX        RY        RZ   
                    (cm-1)      (nm)   (1e40*sgs)   (au)      (au)      (au)  
------------------------------------------------------------------------------
  0( 1)-> 1( 1) 3    5391.1   1854.9    -0.46869   0.04612   0.03371  -0.04720
  0( 1)-> 2( 1) 3    5778.7   1730.5    -0.31430   0.04782  -0.16282  -0.07643
  0( 1)-> 3( 1) 3    6751.6   1481.1    -0.19614  -0.00474  -0.24953  -0.09852
  0( 1)-> 4( 1) 3    7515.7   1330.5    -1.30979   0.22714   0.09631  -0.19209
  0( 1)-> 5( 1) 3    8339.5   1199.1    -0.48765   0.06879  -0.08741   0.05349
  0( 1)-> 6( 1) 3    8672.4   1153.1     0.42710   0.04222  -0.03487   0.00513
  0( 1)-> 7( 1) 3    9563.7   1045.6    -0.90509   0.08793  -0.24633  -0.04421
  0( 1)-> 8( 1) 3   14102.3    709.1    -0.04776  -0.00226  -0.01802  -0.01023
  0( 1)-> 9( 1) 3   14791.1    676.1    -0.00768  -0.03426  -0.01517   0.02021
  0( 1)->10( 1) 3   16675.9    599.7    -0.55973  -0.05136  -0.03271   0.03946
  0( 1)->11( 1) 3   17629.3    567.2     0.54759  -0.01717  -0.09420  -0.10962
  0( 1)->12( 1) 3   17824.8    561.0     0.37667   0.05275   0.04966  -0.03335
  0( 1)->13( 1) 3   19090.8    523.8     1.15042   0.00897  -0.02322  -0.01003
  0( 1)->14( 1) 3   19360.4    516.5    -1.21450   0.00595  -0.06206  -0.02160
  0( 1)->15( 1) 3   19961.2    501.0    -0.03874   0.00738  -0.01003   0.00288
  0( 1)->16( 1) 3   20923.1    477.9     0.14239  -0.00153   0.06544   0.03231
  0( 1)->17( 1) 3   21458.4    466.0     0.00014   0.01600   0.00515  -0.01432
  0( 1)->18( 1) 3   21761.9    459.5     0.13718  -0.00321   0.00475   0.00004
  0( 1)->19( 1) 3   23187.5    431.3     0.07038   0.04132   0.02055  -0.03678
  0( 1)->20( 1) 3   24702.6    404.8    -1.18404  -0.10258   0.22513   0.00767
  0( 1)->21( 1) 3   28562.4    350.1     0.11863   0.01930  -0.06032  -0.02085
  0( 1)->22( 1) 3   32039.8    312.1     0.01279  -0.04003  -0.03093   0.03717
  0( 1)->23( 1) 3   33479.3    298.7    -0.01674   0.02328   0.01423  -0.01865
  0( 1)->24( 1) 3   33919.0    294.8    -0.00643   0.01967  -0.06884  -0.02401
  0( 1)->25( 1) 3   35170.0    284.3     0.11209   0.00565  -0.04523  -0.02169
  0( 1)->26( 1) 3   35800.1    279.3    -0.07223  -0.00047   0.02280   0.00578
  0( 1)->27( 1) 3   36863.7    271.3     0.07305   0.01378   0.00500  -0.01548
  0( 1)->28( 1) 3   38436.2    260.2    -0.38836  -0.04311  -0.02432   0.03954
  0( 1)->29( 1) 3   39204.6    255.1     0.02747   0.00127   0.00004  -0.00661
  0( 1)->30( 1) 3   39483.2    253.3    -0.02420   0.00659   0.00389  -0.00521
  0( 1)->31( 1) 3   41060.3    243.5     0.00284   0.00715   0.02093   0.05426
  0( 1)->32( 1) 3   41247.8    242.4     1.97732  -0.06652  -0.04838   0.04712
  0( 1)->33( 1) 3   44086.4    226.8    -0.02440   0.04237   0.02126  -0.03537
  0( 1)->34( 1) 3   47197.7    211.9    -0.01992  -0.00285   0.03811   0.01796
  0( 1)->35( 1) 3   53514.8    186.9     0.00208  -0.00072  -0.00047   0.00189
  0( 1)->36( 1) 3   73301.4    136.4     0.00005  -0.00028   0.00307   0.00219
  0( 1)->37( 1) 3   78054.1    128.1    -0.01285  -0.00013  -0.00624  -0.00242
  0( 1)->38( 1) 3   78276.2    127.8     0.00251   0.00088   0.00016  -0.00139
  0( 1)->39( 1) 3  103519.0     96.6     0.43603   0.02996   0.06686   0.08468
  0( 1)->40( 1) 3  105207.6     95.1     0.00655  -0.00670  -0.00657  -0.00403
  0( 1)->41( 1) 3  112217.9     89.1    -0.52737   0.00747  -0.00066  -0.01196
  0( 1)->42( 1) 3  115239.2     86.8     0.00151   0.00276   0.00123  -0.00285
  0( 1)->43( 1) 3  118135.0     84.6     0.14394   0.03366   0.02616  -0.02545
  0( 1)->44( 1) 3  118362.0     84.5    -0.00927   0.01416  -0.04604  -0.02612
------------------------------------------------------------------------------

------------------------------------------------------------------------------
                                 DIPOLE MOMENTS
------------------------------------------------------------------------------
  Root  Block           TX        TY        TZ           |T|
                      (Debye)   (Debye)   (Debye)      (Debye)
------------------------------------------------------------------------------
    0    1            0.47444  -2.87481  -1.22094      3.15916

--------------
CASSCF TIMINGS
--------------

Total time                       ...     5454.7 sec
Sum of individual times          ...     5446.5 sec ( 99.8%)

Calculation of AO operators
   F(Core) operator              ...     2672.0 sec ( 49.0%)
   G(Act) operator               ...     2577.9 sec ( 47.3%)
   J(AO) operators               ...        0.0 sec (  0.0%)
Calculation of MO transformed quantities
   J(MO) operators               ...      184.1 sec (  3.4%)
   (pq|rs) integrals             ...        0.0 sec (  0.0%)
   AO->MO one electron integrals ...        1.6 sec (  0.0%)
Configuration interaction steps
   CI-setup phase                ...        0.0 sec (  0.0%)
   CI-solution phase             ...        1.3 sec (  0.0%)
   Generation of densities       ...        0.1 sec (  0.0%)
Orbital improvement steps
   Orbital gradient              ...        0.2 sec (  0.0%)
   O(1) converger                ...        9.2 sec (  0.2%)
Properties                       ...        0.0 sec (  0.0%)
   SOC integral calculation      ...        0.0 sec (  0.0%)
   SSC RMEs (incl. integrals)    ...        0.0 sec (  0.0%)
   SOC RMEs                      ...        0.0 sec (  0.0%)

Maximum memory used throughout the entire CASSCF-calculation: 311.1 MB

-------------------------   --------------------
FINAL SINGLE POINT ENERGY     -2660.818748799494
-------------------------   --------------------


                            ***************************************
                            *     ORCA property calculations      *
                            ***************************************

                                    ---------------------
                                    Active property flags
                                    ---------------------
   (+) Dipole Moment


------------------------------------------------------------------------------
                       ORCA ELECTRIC PROPERTIES CALCULATION
------------------------------------------------------------------------------

Dipole Moment Calculation                       ... on
Quadrupole Moment Calculation                   ... off
Polarizability Calculation                      ... off
GBWName                                         ... casscf.gbw
Electron density                                ... casscf.scfp
The origin for moment calculation is the CENTER OF MASS  = (16.611369, 12.546413 14.160758)

-------------
DIPOLE MOMENT
-------------
                                X             Y             Z
Electronic contribution:      3.72264     -12.70699      -3.77739
Nuclear contribution   :     -3.76767      12.69239       3.73214
                        -----------------------------------------
Total Dipole Moment    :     -0.04502      -0.01459      -0.04526
                        -----------------------------------------
Magnitude (a.u.)       :      0.06549
Magnitude (Debye)      :      0.16645



--------------------
Rotational spectrum 
--------------------
 
Rotational constants in cm-1:     0.001793     0.001041     0.001035 
Rotational constants in MHz :    53.745825    31.200667    31.034795 

 Dipole components along the rotational axes: 
x,y,z [a.u.] :    -0.022245    -0.033314    -0.051804 
x,y,z [Debye]:    -0.056543    -0.084678    -0.131675 

 

Timings for individual modules:

Sum of individual times         ...     5465.746 sec (=  91.096 min)
GTO integral calculation        ...        5.948 sec (=   0.099 min)   0.1 %
SCF iterations                  ...        2.579 sec (=   0.043 min)   0.0 %
CASSCF iterations               ...     5457.218 sec (=  90.954 min)  99.8 %
                             ****ORCA TERMINATED NORMALLY****
TOTAL RUN TIME: 0 days 1 hours 31 minutes 6 seconds 261 msec
