
                                 *****************
                                 * O   R   C   A *
                                 *****************

                                            #,                                       
                                            ###                                      
                                            ####                                     
                                            #####                                    
                                            ######                                   
                                           ########,                                 
                                     ,,################,,,,,                         
                               ,,#################################,,                 
                          ,,##########################################,,             
                       ,#########################################, ''#####,          
                    ,#############################################,,   '####,        
                  ,##################################################,,,,####,       
                ,###########''''           ''''###############################       
              ,#####''   ,,,,##########,,,,          '''####'''          '####       
            ,##' ,,,,###########################,,,                        '##       
           ' ,,###''''                  '''############,,,                           
         ,,##''                                '''############,,,,        ,,,,,,###''
      ,#''                                            '''#######################'''  
     '                                                          ''''####''''         
             ,#######,   #######,   ,#######,      ##                                
            ,#'     '#,  ##    ##  ,#'     '#,    #''#        ######   ,####,        
            ##       ##  ##   ,#'  ##            #'  '#       #        #'  '#        
            ##       ##  #######   ##           ,######,      #####,   #    #        
            '#,     ,#'  ##    ##  '#,     ,#' ,#      #,         ##   #,  ,#        
             '#######'   ##     ##  '#######'  #'      '#     #####' # '####'        



                  #######################################################
                  #                        -***-                        #
                  #          Department of theory and spectroscopy      #
                  #    Directorship and core code : Frank Neese         #
                  #        Max Planck Institute fuer Kohlenforschung    #
                  #                Kaiser Wilhelm Platz 1               #
                  #                 D-45470 Muelheim/Ruhr               #
                  #                      Germany                        #
                  #                                                     #
                  #                  All rights reserved                #
                  #                        -***-                        #
                  #######################################################


                         Program Version 5.0.3 -  RELEASE  -


 With contributions from (in alphabetic order):
   Daniel Aravena         : Magnetic Suceptibility
   Michael Atanasov       : Ab Initio Ligand Field Theory (pilot matlab implementation)
   Alexander A. Auer      : GIAO ZORA, VPT2 properties, NMR spectrum
   Ute Becker             : Parallelization
   Giovanni Bistoni       : ED, misc. LED, open-shell LED, HFLD
   Martin Brehm           : Molecular dynamics
   Dmytro Bykov           : SCF Hessian
   Vijay G. Chilkuri      : MRCI spin determinant printing, contributions to CSF-ICE
   Dipayan Datta          : RHF DLPNO-CCSD density
   Achintya Kumar Dutta   : EOM-CC, STEOM-CC
   Dmitry Ganyushin       : Spin-Orbit,Spin-Spin,Magnetic field MRCI
   Miquel Garcia          : C-PCM and meta-GGA Hessian, CC/C-PCM, Gaussian charge scheme
   Yang Guo               : DLPNO-NEVPT2, F12-NEVPT2, CIM, IAO-localization
   Andreas Hansen         : Spin unrestricted coupled pair/coupled cluster methods
   Benjamin Helmich-Paris : MC-RPA, TRAH-SCF, COSX integrals
   Lee Huntington         : MR-EOM, pCC
   Robert Izsak           : Overlap fitted RIJCOSX, COSX-SCS-MP3, EOM
   Marcus Kettner         : VPT2
   Christian Kollmar      : KDIIS, OOCD, Brueckner-CCSD(T), CCSD density, CASPT2, CASPT2-K
   Simone Kossmann        : Meta GGA functionals, TD-DFT gradient, OOMP2, MP2 Hessian
   Martin Krupicka        : Initial AUTO-CI
   Lucas Lang             : DCDCAS
   Marvin Lechner         : AUTO-CI (C++ implementation), FIC-MRCC
   Dagmar Lenk            : GEPOL surface, SMD
   Dimitrios Liakos       : Extrapolation schemes; Compound Job, initial MDCI parallelization
   Dimitrios Manganas     : Further ROCIS development; embedding schemes
   Dimitrios Pantazis     : SARC Basis sets
   Anastasios Papadopoulos: AUTO-CI, single reference methods and gradients
   Taras Petrenko         : DFT Hessian,TD-DFT gradient, ASA, ECA, R-Raman, ABS, FL, XAS/XES, NRVS
   Peter Pinski           : DLPNO-MP2, DLPNO-MP2 Gradient
   Christoph Reimann      : Effective Core Potentials
   Marius Retegan         : Local ZFS, SOC
   Christoph Riplinger    : Optimizer, TS searches, QM/MM, DLPNO-CCSD(T), (RO)-DLPNO pert. Triples
   Tobias Risthaus        : Range-separated hybrids, TD-DFT gradient, RPA, STAB
   Michael Roemelt        : Original ROCIS implementation
   Masaaki Saitow         : Open-shell DLPNO-CCSD energy and density
   Barbara Sandhoefer     : DKH picture change effects
   Avijit Sen             : IP-ROCIS
   Kantharuban Sivalingam : CASSCF convergence, NEVPT2, FIC-MRCI
   Bernardo de Souza      : ESD, SOC TD-DFT
   Georgi Stoychev        : AutoAux, RI-MP2 NMR, DLPNO-MP2 response
   Willem Van den Heuvel  : Paramagnetic NMR
   Boris Wezisla          : Elementary symmetry handling
   Frank Wennmohs         : Technical directorship


 We gratefully acknowledge several colleagues who have allowed us to
 interface, adapt or use parts of their codes:
   Stefan Grimme, W. Hujo, H. Kruse, P. Pracht,  : VdW corrections, initial TS optimization,
                  C. Bannwarth, S. Ehlert          DFT functionals, gCP, sTDA/sTD-DF
   Ed Valeev, F. Pavosevic, A. Kumar             : LibInt (2-el integral package), F12 methods
   Garnet Chan, S. Sharma, J. Yang, R. Olivares  : DMRG
   Ulf Ekstrom                                   : XCFun DFT Library
   Mihaly Kallay                                 : mrcc  (arbitrary order and MRCC methods)
   Jiri Pittner, Ondrej Demel                    : Mk-CCSD
   Frank Weinhold                                : gennbo (NPA and NBO analysis)
   Christopher J. Cramer and Donald G. Truhlar   : smd solvation model
   Lars Goerigk                                  : TD-DFT with DH, B97 family of functionals
   V. Asgeirsson, H. Jonsson                     : NEB implementation
   FAccTs GmbH                                   : IRC, NEB, NEB-TS, DLPNO-Multilevel, CI-OPT
                                                   MM, QMMM, 2- and 3-layer-ONIOM, Crystal-QMMM,
                                                   LR-CPCM, SF, NACMEs, symmetry and pop. for TD-DFT,
                                                   nearIR, NL-DFT gradient (VV10), updates on ESD,
                                                   ML-optimized integration grids
   S Lehtola, MJT Oliveira, MAL Marques          : LibXC Library
   Liviu Ungur et al                             : ANISO software


 Your calculation uses the libint2 library for the computation of 2-el integrals
 For citations please refer to: http://libint.valeyev.net

 Your ORCA version has been built with support for libXC version: 5.1.0
 For citations please refer to: https://tddft.org/programs/libxc/

 This ORCA versions uses:
   CBLAS   interface :  Fast vector & matrix operations
   LAPACKE interface :  Fast linear algebra routines
   SCALAPACK package :  Parallel linear algebra routines
   Shared memory     :  Shared parallel matrices
   BLAS/LAPACK       :  OpenBLAS 0.3.15  USE64BITINT DYNAMIC_ARCH NO_AFFINITY Haswell SINGLE_THREADED
        Core in use  :  Haswell
   Copyright (c) 2011-2014, The OpenBLAS Project




***************************************
The coordinates will be read from file: pbe.xyz
***************************************


================================================================================

cite the ECPs for Au [Def2-ECP] as follows:
Ce-Yb(ecp-28): M. Dolg, H. Stoll, H.Preuss, J. Chem. Phys., 1989, 90, 1730-1734.
Y-Cd(ecp-28), Hf-Hg(ecp-46): D. Andrae,U. Haeussermann, M. Dolg, H. Stoll, H. Preuss, Theor. Chim. Acta, 1990, 77, 123-141.
In-Sb(ecp-28), Tl-Bi(ecp-46): B. Metz, H. Stoll, M. Dolg, J. Chem. Phys., 2000, 113, 2563-2569.
Te-Xe(ecp-28), Po-Rn(ecp-46): K. A. Peterson, D. Figgen, E. Goll, H. Stoll, M. Dolg, J. Chem. Phys., 2003, 119, 11113-11123.
Rb(ecp-28), Cs(ecp-46): T. Leininger, A. Nicklass, W. Kuechle, H. Stoll, M. Dolg, A. Bergner, Chem. Phys. Lett., 1996, 255, 274-280.
Sr(ecp-28), Ba(ecp-46): M. Kaupp, P. V. Schleyer, H. Stoll and H. Preuss, J. Chem. Phys., 1991, 94, 1360-1366.
La(ecp-46): M. Dolg, H. Stoll, A. Savin, H. Preuss, Theor. Chim. Acta, 1989, 75, 173-194.
Lu(ecp-28): X. Cao, M. Dolg, J. Chem. Phys., 2001, 115, 7348-7355.

ECP parameters for Au [Def2-ECP] have been obtained from:
TURBOMOLE (7.0.2)

----- Orbital basis set information -----
Your calculation utilizes the basis: def2-TZVP
   F. Weigend and R. Ahlrichs, Phys. Chem. Chem. Phys. 7, 3297 (2005).

----- AuxJ basis set information -----
Your calculation utilizes the auxiliary basis: def2/J
   F. Weigend, Phys. Chem. Chem. Phys. 8, 1057 (2006).

----- AuxC basis set information -----
Your calculation utilizes the auxiliary basis: def2-TZVP/C
  H-La, Hf-Rn : A. Hellweg, C. Hattig, S. Hofener and W. Klopper, Theor. Chem. Acc. 117, 587 (2007).
        Ce-Lu : J. Chmela and M. E. Harding, Mol. Phys. (2018).

================================================================================
                                        WARNINGS
                       Please study these warnings very carefully!
================================================================================


IMPORTANT NOTE: CASSCF must signal convergence for a subsequent CASPT2/NEVPT2! 
                Set maxiter=1 to run CASPT2/NEVPT2 with arbitrary orbitals.


INFO   : the flag for use of the SHARK integral package has been found!

================================================================================
                                       INPUT FILE
================================================================================
NAME = nevpt2.inp
|  1> !SC-NEVPT2 def2-TZVP def2-TZVP/C
|  2> !MOREAD RIJCOSX def2/J
|  3> %maxcore 4000
|  4> %moinp "casscf.gbw"
|  5> %pal nprocs 8 end 
|  6> 
|  7> %casscf
|  8>  mult 5,3
|  9>  bweight 1,1
| 10>  nroots 5,45
| 11>  nel 6
| 12>  norb 5
| 13>  ptsettings
| 14>   d4tpre 1e-14 # default = 1e-10
| 15>   d3tpre 1e-14
| 16>  end
| 17>  rel           
| 18>    dosoc true   
| 19>    gtensor true 
| 20>  end           
| 21> end
| 22> 
| 23> 
| 24> *xyzfile 0 5 pbe.xyz
| 25> 
| 26> 
| 27>                          ****END OF INPUT****
================================================================================

                       ****************************
                       * Single Point Calculation *
                       ****************************

---------------------------------
CARTESIAN COORDINATES (ANGSTROEM)
---------------------------------
  Au     9.642388    3.820694    6.848470
  Au    10.876038    7.915393    6.263629
  Au     8.195024    8.605742    6.243049
  Au    10.366426    8.338158    8.952805
  Au     8.283219    7.030907   10.482861
  Au    11.264684    5.766637    7.966380
  Au     9.190510    4.457787    9.505054
  Au     6.510884    5.150604    9.490060
  Au     7.749413    9.240380    8.901614
  Au     7.025685    4.724638    6.802553
  Au     6.121807    7.297399    7.785034
  Au     9.107071    6.031996    5.271044
  Cr     8.693506    6.534630    7.876462

----------------------------
CARTESIAN COORDINATES (A.U.)
----------------------------
  NO LB      ZA    FRAG     MASS         X           Y           Z
   0 Au   19.0000*   0   196.966   18.221473    7.220064   12.941733
   1 Au   19.0000*   0   196.966   20.552733   14.957926   11.836543
   2 Au   19.0000*   0   196.966   15.486352   16.262496   11.797653
   3 Au   19.0000*   0   196.966   19.589707   15.756834   16.918349
   4 Au   19.0000*   0   196.966   15.653015   13.286488   19.809737
   5 Au   19.0000*   0   196.966   21.287167   10.897365   15.054276
   6 Au   19.0000*   0   196.966   17.367547    8.423997   17.961949
   7 Au   19.0000*   0   196.966   12.303787    9.733231   17.933615
   8 Au   19.0000*   0   196.966   14.644269   17.461787   16.821612
   9 Au   19.0000*   0   196.966   13.276621    8.928271   12.854962
  10 Au   19.0000*   0   196.966   11.568539   13.790086   14.711581
  11 Au   19.0000*   0   196.966   17.209870   11.398821    9.960829
  12 Cr   24.0000    0    52.000   16.428345   12.348661   14.884357
* core charge reduced due to ECP

--------------------------------
INTERNAL COORDINATES (ANGSTROEM)
--------------------------------
 Au     0   0   0     0.000000000000     0.00000000     0.00000000
 Au     1   0   0     4.316305976678     0.00000000     0.00000000
 Au     2   1   0     2.768544454342    87.75253278     0.00000000
 Au     2   1   3     2.769495075300    87.74510530    78.00565215
 Au     4   2   1     2.896503237881   125.19567290   326.71567396
 Au     2   1   3     2.769036212069    38.79811891   125.60938385
 Au     1   2   3     2.769028427793    87.61405903   282.13682279
 Au     7   1   2     2.767782115906   102.14505635    92.77382350
 Au     4   2   1     2.768642750203   101.87177885   267.09357567
 Au     1   2   3     2.768819137386    87.60152851   359.89395232
 Au     8   7   1     2.768975475775   109.47787350   299.91122524
 Au     2   1   3     2.767968870185    38.77962198   312.31302068
 Cr    11   8   7     2.683991371752    67.91729823     0.07687618

---------------------------
INTERNAL COORDINATES (A.U.)
---------------------------
 Au     0   0   0     0.000000000000     0.00000000     0.00000000
 Au     1   0   0     8.156636206130     0.00000000     0.00000000
 Au     2   1   0     5.231790808292    87.75253278     0.00000000
 Au     2   1   3     5.233587221560    87.74510530    78.00565215
 Au     4   2   1     5.473597865610   125.19567290   326.71567396
 Au     2   1   3     5.232720095722    38.79811891   125.60938385
 Au     1   2   3     5.232705385572    87.61405903   282.13682279
 Au     7   1   2     5.230350197428   102.14505635    92.77382350
 Au     4   2   1     5.231976560549   101.87177885   267.09357567
 Au     1   2   3     5.232309884019    87.60152851   359.89395232
 Au     8   7   1     5.232605320759   109.47787350   299.91122524
 Au     2   1   3     5.230703111869    38.77962198   312.31302068
 Cr    11   8   7     5.072008638419    67.91729823     0.07687618

---------------------
BASIS SET INFORMATION
---------------------
There are 2 groups of distinct atoms

 Group   1 Type Au  : 8s7p6d1f contracted to 6s4p3d1f pattern {311111/4111/411/1}
 Group   2 Type Cr  : 17s11p7d1f contracted to 6s4p4d1f pattern {842111/6311/4111/1}

Atom   0Au   basis set group =>   1
Atom   1Au   basis set group =>   1
Atom   2Au   basis set group =>   1
Atom   3Au   basis set group =>   1
Atom   4Au   basis set group =>   1
Atom   5Au   basis set group =>   1
Atom   6Au   basis set group =>   1
Atom   7Au   basis set group =>   1
Atom   8Au   basis set group =>   1
Atom   9Au   basis set group =>   1
Atom  10Au   basis set group =>   1
Atom  11Au   basis set group =>   1
Atom  12Cr   basis set group =>   2
---------------------------------
AUXILIARY/J BASIS SET INFORMATION
---------------------------------
There are 2 groups of distinct atoms

 Group   1 Type Au  : 11s5p5d3f3g contracted to 8s5p5d2f3g pattern {41111111/11111/11111/21/111}
 Group   2 Type Cr  : 19s5p5d3f3g contracted to 8s5p5d2f3g pattern {121111111/11111/11111/21/111}

Atom   0Au   basis set group =>   1
Atom   1Au   basis set group =>   1
Atom   2Au   basis set group =>   1
Atom   3Au   basis set group =>   1
Atom   4Au   basis set group =>   1
Atom   5Au   basis set group =>   1
Atom   6Au   basis set group =>   1
Atom   7Au   basis set group =>   1
Atom   8Au   basis set group =>   1
Atom   9Au   basis set group =>   1
Atom  10Au   basis set group =>   1
Atom  11Au   basis set group =>   1
Atom  12Cr   basis set group =>   2
---------------------------------
AUXILIARY/C BASIS SET INFORMATION
---------------------------------
There are 2 groups of distinct atoms

 Group   1 Type Au  : 8s8p7d5f3g2h contracted to 8s8p7d5f3g2h pattern {11111111/11111111/1111111/11111/111/11}
 Group   2 Type Cr  : 11s9p8d6f5g2h contracted to 9s8p8d6f5g2h pattern {311111111/21111111/11111111/111111/11111/11}

Atom   0Au   basis set group =>   1
Atom   1Au   basis set group =>   1
Atom   2Au   basis set group =>   1
Atom   3Au   basis set group =>   1
Atom   4Au   basis set group =>   1
Atom   5Au   basis set group =>   1
Atom   6Au   basis set group =>   1
Atom   7Au   basis set group =>   1
Atom   8Au   basis set group =>   1
Atom   9Au   basis set group =>   1
Atom  10Au   basis set group =>   1
Atom  11Au   basis set group =>   1
Atom  12Cr   basis set group =>   2
-------------------------
ECP PARAMETER INFORMATION
-------------------------

 Group 1, Type Au ECP Def2-ECP (replacing 60 core electrons, lmax=3)

Atom   0Au   ECP group =>   1
Atom   1Au   ECP group =>   1
Atom   2Au   ECP group =>   1
Atom   3Au   ECP group =>   1
Atom   4Au   ECP group =>   1
Atom   5Au   ECP group =>   1
Atom   6Au   ECP group =>   1
Atom   7Au   ECP group =>   1
Atom   8Au   ECP group =>   1
Atom   9Au   ECP group =>   1
Atom  10Au   ECP group =>   1
Atom  11Au   ECP group =>   1



           ************************************************************
           *        Program running with 8 parallel MPI-processes     *
           *              working on a common directory               *
           ************************************************************
------------------------------------------------------------------------------
                           ORCA GTO INTEGRAL CALCULATION
                           -- RI-GTO INTEGRALS CHOSEN --
------------------------------------------------------------------------------
------------------------------------------------------------------------------
                   ___                                                        
                  /   \      - P O W E R E D   B Y -                         
                 /     \                                                     
                 |  |  |   _    _      __       _____    __    __             
                 |  |  |  | |  | |    /  \     |  _  \  |  |  /  |          
                  \  \/   | |  | |   /    \    | | | |  |  | /  /          
                 / \  \   | |__| |  /  /\  \   | |_| |  |  |/  /          
                |  |  |   |  __  | /  /__\  \  |    /   |      \           
                |  |  |   | |  | | |   __   |  |    \   |  |\   \          
                \     /   | |  | | |  |  |  |  | |\  \  |  | \   \       
                 \___/    |_|  |_| |__|  |__|  |_| \__\ |__|  \__/        
                                                                              
                      - O R C A' S   B I G   F R I E N D -                    
                                      &                                       
                       - I N T E G R A L  F E E D E R -                       
                                                                              
 v1 FN, 2020, v2 2021                                                         
------------------------------------------------------------------------------


Reading SHARK input file nevpt2.SHARKINP.tmp ... ok
----------------------
SHARK INTEGRAL PACKAGE
----------------------

Number of atoms                             ...     13
Number of basis functions                   ...    525
Number of shells                            ...    183
Maximum angular momentum                    ...      3
Integral batch strategy                     ... SHARK/LIBINT Hybrid
RI-J (if used) integral strategy            ... SPLIT-RIJ (Revised 2003 algorithm where possible)
Printlevel                                  ...      1
Contraction scheme used                     ... SEGMENTED contraction
Coulomb Range Separation                    ... NOT USED
Exchange Range Separation                   ... NOT USED
Finite Nucleus Model                        ... NOT USED
Auxiliary Coulomb fitting basis             ... AVAILABLE
   # of basis functions in Aux-J            ...   1157
   # of shells in Aux-J                     ...    299
   Maximum angular momentum in Aux-J        ...      4
Auxiliary J/K fitting basis                 ... NOT available
Auxiliary Correlation fitting basis         ... AVAILABLE
   # of basis functions in Aux-C            ...   1994
   # of shells in Aux-C                     ...    434
   Maximum angular momentum in Aux-C        ...      5
Auxiliary 'external' fitting basis          ... NOT available
Integral threshold                          ...     1.000000e-10
Primitive cut-off                           ...     1.000000e-11
Primitive pair pre-selection threshold      ...     1.000000e-11

Calculating pre-screening integrals         ... done (  0.1 sec) Dimension = 183
Organizing shell pair data                  ... done (  0.2 sec)
Shell pair information
Total number of shell pairs                 ...     16836
Shell pairs after pre-screening             ...     13850
Total number of primitive shell pairs       ...     45389
Primitive shell pairs kept                  ...     27405
          la=0 lb=0:   2157 shell pairs
          la=1 lb=0:   3160 shell pairs
          la=1 lb=1:   1206 shell pairs
          la=2 lb=0:   2722 shell pairs
          la=2 lb=1:   1948 shell pairs
          la=2 lb=2:    794 shell pairs
          la=3 lb=0:    742 shell pairs
          la=3 lb=1:    560 shell pairs
          la=3 lb=2:    476 shell pairs
          la=3 lb=3:     85 shell pairs

Calculating one electron integrals          ... done (  0.0 sec)
Calculating ECP integrals                   ... done (  6.5 sec)
Calculating RI/J V-Matrix + Cholesky decomp.... done (  0.0 sec)
Calculating RI/C V-Matrix + Cholesky decomp.... done (  0.1 sec)
Calculating Nuclear repulsion               ... done (  0.0 sec) ENN=   4401.544229099097 Eh

SHARK setup successfully completed in   7.3 seconds

Maximum memory used throughout the entire GTOINT-calculation: 35.6 MB


           ************************************************************
           *        Program running with 8 parallel MPI-processes     *
           *              working on a common directory               *
           ************************************************************
-------------------------------------------------------------------------------
                                 ORCA SCF
-------------------------------------------------------------------------------

------------
SCF SETTINGS
------------
Hamiltonian:
 Ab initio Hamiltonian  Method          .... Hartree-Fock(GTOs)
 RI-approximation to the Coulomb term is turned on
   Number of AuxJ basis functions       .... 1157
   RIJ-COSX (HFX calculated with COS-X)).... on


General Settings:
 Integral files         IntName         .... nevpt2
 Hartree-Fock type      HFTyp           .... CASSCF
 Total Charge           Charge          ....    0
 Multiplicity           Mult            ....    5
 Number of Electrons    NEL             ....  252
 Basis Dimension        Dim             ....  525
 Nuclear Repulsion      ENuc            ....   4401.5442290991 Eh


Diagonalization of the overlap matrix:
Smallest eigenvalue                        ... 1.183e-04
Time for diagonalization                   ...    0.062 sec
Threshold for overlap eigenvalues          ... 1.000e-08
Number of eigenvalues below threshold      ... 0
Time for construction of square roots      ...    0.029 sec
Total time needed                          ...    0.093 sec

---------------------
INITIAL GUESS: MOREAD
---------------------
Guess MOs are being read from file: casscf.gbw
Input Geometry matches current geometry (good)
Input basis set matches current basis set (good)
MOs were renormalized
Gram-Schmidt orthogonalization of all MOs with pivot on actives
                      ------------------
                      INITIAL GUESS DONE (   1.3 sec)
                      ------------------
--------------------
COSX GRID GENERATION
--------------------

GRIDX 1
-------
General Integration Accuracy     IntAcc      ... 3.816
Radial Grid Type                 RadialGrid  ... OptM3 with GC (2021)
Angular Grid (max. ang.)         AngularGrid ... 1 (Lebedev-50)
Angular grid pruning method      GridPruning ... 4 (adaptive)
Weight generation scheme         WeightScheme... Becke
Basis function cutoff            BFCut       ... 1.0000e-10
Integration weight cutoff        WCut        ... 1.0000e-14
Angular grids for H and He will be reduced by one unit
Partially contracted basis set               ... on
Rotationally invariant grid construction     ... off

Total number of grid points                  ...    15176
Total number of batches                      ...      245
Average number of points per batch           ...       61
Average number of grid points per atom       ...     1167
UseSFitting                                  ... on

GRIDX 2
-------
General Integration Accuracy     IntAcc      ... 4.020
Radial Grid Type                 RadialGrid  ... OptM3 with GC (2021)
Angular Grid (max. ang.)         AngularGrid ... 2 (Lebedev-110)
Angular grid pruning method      GridPruning ... 4 (adaptive)
Weight generation scheme         WeightScheme... Becke
Basis function cutoff            BFCut       ... 1.0000e-10
Integration weight cutoff        WCut        ... 1.0000e-14
Angular grids for H and He will be reduced by one unit
Partially contracted basis set               ... on
Rotationally invariant grid construction     ... off

Total number of grid points                  ...    45930
Total number of batches                      ...      723
Average number of points per batch           ...       63
Average number of grid points per atom       ...     3533
UseSFitting                                  ... on

GRIDX 3
-------
General Integration Accuracy     IntAcc      ... 4.338
Radial Grid Type                 RadialGrid  ... OptM3 with GC (2021)
Angular Grid (max. ang.)         AngularGrid ... 3 (Lebedev-194)
Angular grid pruning method      GridPruning ... 4 (adaptive)
Weight generation scheme         WeightScheme... Becke
Basis function cutoff            BFCut       ... 1.0000e-10
Integration weight cutoff        WCut        ... 1.0000e-14
Angular grids for H and He will be reduced by one unit
Partially contracted basis set               ... on
Rotationally invariant grid construction     ... off

Total number of grid points                  ...    83987
Total number of batches                      ...     1318
Average number of points per batch           ...       63
Average number of grid points per atom       ...     6461
UseSFitting                                  ... on

Time for X-Grid setup             =    0.967 sec



 ... the calculation is a CASSCF calculation -I'm leaving here GOOD LUCK!!!



           ************************************************************
           *        Program running with 8 parallel MPI-processes     *
           *              working on a common directory               *
           ************************************************************
-------------------------------------------------------------------------------
                              ORCA-CASSCF
-------------------------------------------------------------------------------

Setting up the integral package       ... done
Setting up the integral package (RI)  ... done
Building the CAS space                ... done (5 configurations for Mult=5)
Building the CAS space                ... done (35 configurations for Mult=3)

 CASSCF (estimated) memory needed     ... 113.4 MB
 NEVPT2 (estimated) memory needed     ... 373.7 MB


SYSTEM-SPECIFIC SETTINGS:
Number of active electrons          ...    6
Number of active orbitals           ...    5
Total number of electrons           ...  252
Total number of orbitals            ...  525
Total number aux. functions         ... 1994

Determined orbital ranges:
   Internal       0 -  122 ( 123 orbitals)
   Active       123 -  127 (   5 orbitals)
   External     128 -  524 ( 397 orbitals)
Number of rotation parameters      ...  51431

CI-STEP:
CI strategy                         ... General CI
Number of multiplicity blocks       ...    2
BLOCK  1 WEIGHT=   0.5000
  Multiplicity                      ...    5
  #(Configurations)                 ...    5
  #(CSFs)                           ...    5
  #(Roots)                          ...    5
    ROOT=0 WEIGHT=    0.100000
    ROOT=1 WEIGHT=    0.100000
    ROOT=2 WEIGHT=    0.100000
    ROOT=3 WEIGHT=    0.100000
    ROOT=4 WEIGHT=    0.100000

BLOCK  2 WEIGHT=   0.5000
  Multiplicity                      ...    3
  #(Configurations)                 ...   35
  #(CSFs)                           ...   45
  #(Roots)                          ...   45
    ROOT=0 WEIGHT=    0.011111
    ROOT=1 WEIGHT=    0.011111
    ROOT=2 WEIGHT=    0.011111
    ROOT=3 WEIGHT=    0.011111
    ROOT=4 WEIGHT=    0.011111
    ROOT=5 WEIGHT=    0.011111
    ROOT=6 WEIGHT=    0.011111
    ROOT=7 WEIGHT=    0.011111
    ROOT=8 WEIGHT=    0.011111
    ROOT=9 WEIGHT=    0.011111
    ROOT=10 WEIGHT=    0.011111
    ROOT=11 WEIGHT=    0.011111
    ROOT=12 WEIGHT=    0.011111
    ROOT=13 WEIGHT=    0.011111
    ROOT=14 WEIGHT=    0.011111
    ROOT=15 WEIGHT=    0.011111
    ROOT=16 WEIGHT=    0.011111
    ROOT=17 WEIGHT=    0.011111
    ROOT=18 WEIGHT=    0.011111
    ROOT=19 WEIGHT=    0.011111
    ROOT=20 WEIGHT=    0.011111
    ROOT=21 WEIGHT=    0.011111
    ROOT=22 WEIGHT=    0.011111
    ROOT=23 WEIGHT=    0.011111
    ROOT=24 WEIGHT=    0.011111
    ROOT=25 WEIGHT=    0.011111
    ROOT=26 WEIGHT=    0.011111
    ROOT=27 WEIGHT=    0.011111
    ROOT=28 WEIGHT=    0.011111
    ROOT=29 WEIGHT=    0.011111
    ROOT=30 WEIGHT=    0.011111
    ROOT=31 WEIGHT=    0.011111
    ROOT=32 WEIGHT=    0.011111
    ROOT=33 WEIGHT=    0.011111
    ROOT=34 WEIGHT=    0.011111
    ROOT=35 WEIGHT=    0.011111
    ROOT=36 WEIGHT=    0.011111
    ROOT=37 WEIGHT=    0.011111
    ROOT=38 WEIGHT=    0.011111
    ROOT=39 WEIGHT=    0.011111
    ROOT=40 WEIGHT=    0.011111
    ROOT=41 WEIGHT=    0.011111
    ROOT=42 WEIGHT=    0.011111
    ROOT=43 WEIGHT=    0.011111
    ROOT=44 WEIGHT=    0.011111

  PrintLevel                        ...    1
  N(GuessMat)                       ...       512
  MaxDim(CI)                        ...        10
  MaxIter(CI)                       ...        64
  Energy Tolerance CI               ...  1.00e-08
  Residual Tolerance CI             ...  1.00e-08
  Shift(CI)                         ...  1.00e-04

INTEGRAL-TRANSFORMATION-STEP:
  Algorithm                         ... RI-MO

ORBITAL-IMPROVEMENT-STEP:
  Algorithm                         ... SuperCI(PT)
  Default Parametrization           ... CAYLEY
  Act-Act rotations                 ... depends on algorithm used

  Note: SuperCI(PT) will ignore FreezeIE, FreezeAct and FreezeGrad. In general Default settings are encouraged.
        In conjunction with ShiftUp, ShiftDn or GradScaling the performance of SuperCI(PT) is less optimal.  

  MaxRot                            ... 2.00e-01 
  Max. no of vectors (DIIS)         ... 15
  DThresh (cut-off) metric          ... 1.00e-06
  Switch step at gradient           ...  3.00e-02 
  Switch step at iteration          ...        50   
  Switch step to                    ... SuperCI(PT)    

SCF-SETTINGS:
  Incremental                       ... off
  RIJCOSX approximation             ... on
  UseFinalGrid                      ... on
  RI-JK approximation               ... off
  AO integral handling              ... DIRECT
  Integral Neglect Thresh           ...  1.00e-10
  Primitive cutoff TCut             ...  1.00e-11
  Energy convergence tolerance      ...  1.00e-07
  Orbital gradient convergence      ...  1.00e-03
  Max. number of iterations         ...        75  

PT2-SETTINGS:
  A PT2 calculation will be performed on top of the CASSCF wave function (PT2 = SC-NEVPT2)   
 CI step strategy                   ... General CI
  D4C handling                      ... on the fly 
  CI truncation for D4C at          ...  1.00e-14
  CI truncation for D3  at          ...  1.00e-14
  Orbitals                          ... canonical for each state 
  Last  frozen  orbital             ... 4
  First deleted orbital             ... 525
  RI Step                           ... store IJV(array) (MC_ONDISK during integral transformation) 

PROPERTIES-SETTINGS:
  Spin orbit coupling               ... true
  GTensor                           ... true
  QDPT diagonal energies            ... NEVPT2 energies 

FINAL ORBITALS:
  Active   Orbitals                 ... natural 
  Internal Orbitals                 ... canonical 
  External Orbitals                 ... canonical 

------------------
CAS-SCF ITERATIONS
------------------


MACRO-ITERATION   1: 
   --- Inactive Energy E0 = -2652.40842402 Eh
CI-ITERATION   0: 
 -2660.942745872   0.000000000000 (    0.00)
 -2660.923109825   0.000000000000
 -2660.899933353   0.000000000000
 -2660.872179003   0.000000000000
 -2660.870061698   0.000000000000
   CI-PROBLEM SOLVED
   DENSITIES MADE
CI-ITERATION   0: 
 -2660.916228044   0.000000000000 (    0.00)
 -2660.915718097   0.000000000000
 -2660.907304298   0.000000000000
 -2660.895641227   0.000000000000
 -2660.893509034   0.000000000000
 -2660.881266632   0.000000000000
 -2660.879585941   0.000000000000
 -2660.875648951   0.000000000000
 -2660.872702885   0.000000000000
 -2660.869389606   0.000000000000
 -2660.867565221   0.000000000000
 -2660.859876259   0.000000000000
 -2660.857607595   0.000000000000
 -2660.849309669   0.000000000000
 -2660.849137070   0.000000000000
 -2660.847781904   0.000000000000
 -2660.847469859   0.000000000000
 -2660.845174575   0.000000000000
 -2660.842497234   0.000000000000
 -2660.838568377   0.000000000000
 -2660.830125469   0.000000000000
 -2660.829327274   0.000000000000
 -2660.816080493   0.000000000000
 -2660.812959637   0.000000000000
 -2660.806748910   0.000000000000
 -2660.800012283   0.000000000000
 -2660.798393725   0.000000000000
 -2660.790697813   0.000000000000
 -2660.789840749   0.000000000000
 -2660.789489795   0.000000000000
 -2660.780422829   0.000000000000
 -2660.780281484   0.000000000000
 -2660.766361010   0.000000000000
 -2660.765870000   0.000000000000
 -2660.738732124   0.000000000000
 -2660.732806561   0.000000000000
 -2660.724000507   0.000000000000
 -2660.716407058   0.000000000000
 -2660.696415784   0.000000000000
 -2660.627797157   0.000000000000
 -2660.585586218   0.000000000000
 -2660.555718090   0.000000000000
 -2660.474009753   0.000000000000
 -2660.464122958   0.000000000000
 -2660.429088782   0.000000000000
   CI-PROBLEM SOLVED
   DENSITIES MADE

                 <<<<<<<<<<<<<<<<<<INITIAL CI STATE CHECK>>>>>>>>>>>>>>>>>>

BLOCK  1 MULT= 5 NROOTS= 5 
ROOT   0:  E=   -2660.9427458717 Eh
      0.96810 [     4]: 21111
      0.01220 [     3]: 12111
      0.00889 [     0]: 11112
      0.00643 [     2]: 11211
      0.00437 [     1]: 11121
ROOT   1:  E=   -2660.9231098250 Eh  0.534 eV   4309.6 cm**-1
      0.88477 [     0]: 11112
      0.11036 [     2]: 11211
      0.00421 [     4]: 21111
ROOT   2:  E=   -2660.8999333533 Eh  1.165 eV   9396.3 cm**-1
      0.70896 [     1]: 11121
      0.25655 [     2]: 11211
      0.02193 [     0]: 11112
      0.01256 [     4]: 21111
ROOT   3:  E=   -2660.8721790032 Eh  1.920 eV  15487.6 cm**-1
      0.62639 [     2]: 11211
      0.28599 [     1]: 11121
      0.08423 [     0]: 11112
      0.00330 [     4]: 21111
ROOT   4:  E=   -2660.8700616981 Eh  1.978 eV  15952.3 cm**-1
      0.98772 [     3]: 12111
      0.01184 [     4]: 21111

BLOCK  2 MULT= 3 NROOTS=45 
ROOT   0:  E=   -2660.9162280442 Eh
      0.81211 [    10]: 11112
      0.10117 [    13]: 11211
      0.02512 [    22]: 20112
      0.01448 [     1]: 01212
      0.01004 [    28]: 21111
      0.00756 [    34]: 22110
      0.00693 [    25]: 21012
      0.00582 [    23]: 20121
      0.00472 [    27]: 21102
      0.00433 [     0]: 01122
ROOT   1:  E=   -2660.9157180968 Eh  0.014 eV    111.9 cm**-1
      0.45752 [    31]: 21210
      0.37237 [    28]: 21111
      0.06119 [    30]: 21201
      0.03967 [    29]: 21120
      0.02468 [    25]: 21012
      0.01753 [    26]: 21021
      0.01438 [    27]: 21102
      0.00597 [    18]: 12111
ROOT   2:  E=   -2660.9073042979 Eh  0.243 eV   1958.5 cm**-1
      0.50038 [    29]: 21120
      0.20771 [    28]: 21111
      0.16342 [    31]: 21210
      0.06953 [    26]: 21021
      0.01620 [    25]: 21012
      0.01162 [    30]: 21201
      0.00703 [    14]: 11220
      0.00647 [    18]: 12111
      0.00521 [    13]: 11211
      0.00450 [    11]: 11121
ROOT   3:  E=   -2660.8956412275 Eh  0.560 eV   4518.3 cm**-1
      0.35368 [    11]: 11121
      0.19951 [    34]: 22110
      0.11971 [    13]: 11211
      0.11034 [    23]: 20121
      0.10570 [    33]: 22101
      0.05483 [    32]: 22011
      0.01906 [    10]: 11112
      0.01031 [    24]: 20211
      0.00423 [    29]: 21120
      0.00333 [     0]: 01122
      0.00322 [    26]: 21021
      0.00269 [    18]: 12111
ROOT   4:  E=   -2660.8935090340 Eh  0.618 eV   4986.2 cm**-1
      0.40813 [    34]: 22110
      0.24731 [    11]: 11121
      0.09589 [    33]: 22101
      0.07423 [    23]: 20121
      0.07263 [    32]: 22011
      0.03044 [    13]: 11211
      0.02752 [    22]: 20112
      0.01269 [    10]: 11112
      0.00524 [    18]: 12111
      0.00438 [     0]: 01122
      0.00293 [    29]: 21120
      0.00256 [    21]: 12210
      0.00250 [    26]: 21021
ROOT   5:  E=   -2660.8812666321 Eh  0.951 eV   7673.1 cm**-1
      0.63585 [     6]: 10122
      0.10198 [     7]: 10212
      0.08747 [     8]: 10221
      0.05866 [    28]: 21111
      0.02635 [    25]: 21012
      0.02049 [    31]: 21210
      0.01747 [    17]: 12102
      0.01038 [    18]: 12111
      0.00635 [    29]: 21120
      0.00607 [    22]: 20112
      0.00587 [    19]: 12120
      0.00495 [    21]: 12210
      0.00458 [    30]: 21201
      0.00305 [    23]: 20121
      0.00282 [    20]: 12201
      0.00258 [    24]: 20211
ROOT   6:  E=   -2660.8795859407 Eh  0.997 eV   8042.0 cm**-1
      0.39460 [    28]: 21111
      0.11954 [    25]: 21012
      0.10721 [    31]: 21210
      0.07668 [     6]: 10122
      0.06080 [    29]: 21120
      0.04734 [    18]: 12111
      0.04655 [    30]: 21201
      0.03530 [    27]: 21102
      0.03297 [    26]: 21021
      0.02563 [     7]: 10212
      0.01188 [    17]: 12102
      0.00942 [    15]: 12012
      0.00717 [     8]: 10221
      0.00704 [    13]: 11211
      0.00459 [    11]: 11121
      0.00257 [    20]: 12201
ROOT   7:  E=   -2660.8756489511 Eh  1.104 eV   8906.1 cm**-1
      0.58832 [    10]: 11112
      0.16392 [    11]: 11121
      0.12352 [    13]: 11211
      0.07124 [     9]: 11022
      0.01761 [    12]: 11202
      0.01079 [    14]: 11220
      0.00532 [    28]: 21111
      0.00501 [    23]: 20121
      0.00324 [    27]: 21102
      0.00305 [    22]: 20112
ROOT   8:  E=   -2660.8727028847 Eh  1.184 eV   9552.7 cm**-1
      0.43577 [    13]: 11211
      0.26223 [    23]: 20121
      0.08842 [    10]: 11112
      0.08470 [    24]: 20211
      0.04875 [    33]: 22101
      0.02027 [    11]: 11121
      0.01751 [     9]: 11022
      0.01141 [    32]: 22011
      0.00489 [    31]: 21210
      0.00453 [    34]: 22110
      0.00353 [     8]: 10221
      0.00298 [     6]: 10122
      0.00283 [    30]: 21201
      0.00263 [     2]: 01221
ROOT   9:  E=   -2660.8693896062 Eh  1.275 eV  10279.8 cm**-1
      0.44546 [    18]: 12111
      0.25765 [    28]: 21111
      0.07910 [    26]: 21021
      0.06425 [    29]: 21120
      0.03696 [    27]: 21102
      0.02728 [    17]: 12102
      0.01984 [    30]: 21201
      0.01188 [     7]: 10212
      0.00567 [    16]: 12021
      0.00544 [    20]: 12201
      0.00468 [     3]: 02112
      0.00449 [    34]: 22110
      0.00446 [    15]: 12012
      0.00422 [    31]: 21210
      0.00410 [     5]: 02211
      0.00409 [    33]: 22101
      0.00307 [    11]: 11121
      0.00301 [    32]: 22011
      0.00273 [     8]: 10221
      0.00268 [     4]: 02121
ROOT  10:  E=   -2660.8675652210 Eh  1.324 eV  10680.3 cm**-1
      0.21782 [    24]: 20211
      0.21385 [    11]: 11121
      0.15175 [    10]: 11112
      0.12221 [     9]: 11022
      0.11112 [    23]: 20121
      0.10706 [    22]: 20112
      0.02122 [    13]: 11211
      0.01750 [    32]: 22011
      0.00906 [    33]: 22101
      0.00741 [    34]: 22110
      0.00487 [    28]: 21111
      0.00334 [     2]: 01221
      0.00260 [    29]: 21120
ROOT  11:  E=   -2660.8598762587 Eh  1.533 eV  12367.8 cm**-1
      0.22023 [    15]: 12012
      0.21275 [    17]: 12102
      0.19643 [    18]: 12111
      0.12305 [    28]: 21111
      0.06454 [    25]: 21012
      0.06363 [     7]: 10212
      0.02602 [    27]: 21102
      0.01717 [    16]: 12021
      0.01556 [     8]: 10221
      0.01346 [    20]: 12201
      0.01021 [    26]: 21021
      0.00674 [    32]: 22011
      0.00470 [     6]: 10122
      0.00468 [     3]: 02112
      0.00442 [    31]: 21210
      0.00407 [    21]: 12210
      0.00374 [    30]: 21201
      0.00323 [    34]: 22110
ROOT  12:  E=   -2660.8576075951 Eh  1.595 eV  12865.7 cm**-1
      0.36901 [     9]: 11022
      0.17552 [    10]: 11112
      0.12304 [    23]: 20121
      0.08511 [    24]: 20211
      0.07282 [    11]: 11121
      0.04373 [    14]: 11220
      0.03888 [    13]: 11211
      0.02482 [    22]: 20112
      0.01832 [    12]: 11202
      0.01420 [    34]: 22110
      0.00774 [    33]: 22101
      0.00735 [    32]: 22011
      0.00620 [    26]: 21021
      0.00401 [    25]: 21012
ROOT  13:  E=   -2660.8493096694 Eh  1.821 eV  14686.9 cm**-1
      0.23140 [    10]: 11112
      0.19015 [    13]: 11211
      0.17731 [    11]: 11121
      0.15969 [    24]: 20211
      0.08289 [    32]: 22011
      0.03594 [     9]: 11022
      0.03180 [    14]: 11220
      0.01774 [    33]: 22101
      0.01479 [    28]: 21111
      0.01124 [     8]: 10221
      0.01064 [    12]: 11202
      0.00744 [    18]: 12111
      0.00622 [    26]: 21021
      0.00475 [     2]: 01221
      0.00415 [    31]: 21210
      0.00349 [     1]: 01212
ROOT  14:  E=   -2660.8491370703 Eh  1.826 eV  14724.8 cm**-1
      0.29848 [    28]: 21111
      0.18163 [     8]: 10221
      0.11609 [    18]: 12111
      0.07950 [    15]: 12012
      0.07483 [     7]: 10212
      0.06248 [    17]: 12102
      0.05382 [    27]: 21102
      0.03269 [    29]: 21120
      0.01579 [    26]: 21021
      0.01386 [    20]: 12201
      0.01166 [    10]: 11112
      0.00974 [    30]: 21201
      0.00688 [    25]: 21012
      0.00645 [    11]: 11121
      0.00641 [    13]: 11211
      0.00627 [    21]: 12210
      0.00512 [    24]: 20211
      0.00407 [    32]: 22011
ROOT  15:  E=   -2660.8477819035 Eh  1.863 eV  15022.2 cm**-1
      0.29289 [    28]: 21111
      0.21357 [    18]: 12111
      0.16525 [    30]: 21201
      0.12644 [    26]: 21021
      0.08259 [     8]: 10221
      0.04472 [    27]: 21102
      0.01966 [    17]: 12102
      0.01578 [     7]: 10212
      0.00503 [    11]: 11121
      0.00469 [    20]: 12201
      0.00399 [     3]: 02112
      0.00339 [    32]: 22011
      0.00289 [    29]: 21120
      0.00262 [    13]: 11211
      0.00256 [    33]: 22101
ROOT  16:  E=   -2660.8474698588 Eh  1.871 eV  15090.7 cm**-1
      0.21777 [    13]: 11211
      0.20699 [    10]: 11112
      0.17714 [    11]: 11121
      0.12571 [    24]: 20211
      0.11352 [    23]: 20121
      0.06030 [    32]: 22011
      0.03185 [    33]: 22101
      0.02555 [    14]: 11220
      0.00829 [     9]: 11022
      0.00625 [    22]: 20112
      0.00519 [    28]: 21111
      0.00505 [     0]: 01122
      0.00433 [    34]: 22110
ROOT  17:  E=   -2660.8451745748 Eh  1.933 eV  15594.4 cm**-1
      0.43842 [     8]: 10221
      0.10668 [    28]: 21111
      0.08504 [    27]: 21102
      0.07777 [    30]: 21201
      0.06251 [    29]: 21120
      0.05688 [     6]: 10122
      0.04842 [    16]: 12021
      0.03142 [    26]: 21021
      0.02436 [    15]: 12012
      0.01522 [    18]: 12111
      0.01197 [    20]: 12201
      0.01103 [    19]: 12120
      0.00738 [    31]: 21210
      0.00626 [    23]: 20121
      0.00442 [    11]: 11121
      0.00262 [     7]: 10212
ROOT  18:  E=   -2660.8424972345 Eh  2.006 eV  16182.0 cm**-1
      0.34690 [    28]: 21111
      0.13827 [    26]: 21021
      0.10569 [    25]: 21012
      0.07673 [    17]: 12102
      0.06832 [     8]: 10221
      0.06441 [    18]: 12111
      0.05938 [    31]: 21210
      0.05699 [    30]: 21201
      0.03141 [    29]: 21120
      0.02085 [     6]: 10122
      0.00643 [     7]: 10212
      0.00604 [    13]: 11211
      0.00441 [    10]: 11112
      0.00279 [    21]: 12210
      0.00251 [    11]: 11121
ROOT  19:  E=   -2660.8385683774 Eh  2.113 eV  17044.3 cm**-1
      0.31861 [    12]: 11202
      0.20820 [    10]: 11112
      0.16072 [    11]: 11121
      0.11712 [    13]: 11211
      0.08918 [     9]: 11022
      0.06365 [    14]: 11220
      0.00733 [    22]: 20112
      0.00606 [    33]: 22101
      0.00586 [    24]: 20211
      0.00504 [    32]: 22011
      0.00448 [    23]: 20121
      0.00382 [    27]: 21102
      0.00269 [     0]: 01122
ROOT  20:  E=   -2660.8301254686 Eh  2.343 eV  18897.3 cm**-1
      0.60059 [    13]: 11211
      0.27741 [    11]: 11121
      0.03701 [    12]: 11202
      0.03184 [     9]: 11022
      0.02690 [    10]: 11112
      0.00955 [    28]: 21111
      0.00418 [    22]: 20112
      0.00297 [     0]: 01122
ROOT  21:  E=   -2660.8293272744 Eh  2.365 eV  19072.5 cm**-1
      0.36697 [    15]: 12012
      0.24200 [    18]: 12111
      0.07552 [    21]: 12210
      0.07418 [    17]: 12102
      0.05582 [    20]: 12201
      0.04912 [     7]: 10212
      0.02361 [    28]: 21111
      0.02244 [     6]: 10122
      0.01615 [    27]: 21102
      0.01372 [    31]: 21210
      0.01233 [    30]: 21201
      0.01141 [    29]: 21120
      0.00903 [    25]: 21012
      0.00878 [    26]: 21021
      0.00553 [     8]: 10221
      0.00466 [    32]: 22011
ROOT  22:  E=   -2660.8160804928 Eh  2.725 eV  21979.8 cm**-1
      0.33348 [    11]: 11121
      0.23623 [    33]: 22101
      0.16142 [    13]: 11211
      0.07578 [    32]: 22011
      0.07390 [    14]: 11220
      0.03999 [    10]: 11112
      0.03611 [    12]: 11202
      0.01440 [    23]: 20121
      0.00750 [    34]: 22110
      0.00688 [    22]: 20112
      0.00499 [    24]: 20211
ROOT  23:  E=   -2660.8129596369 Eh  2.810 eV  22664.8 cm**-1
      0.28909 [    18]: 12111
      0.22395 [    17]: 12102
      0.11515 [    20]: 12201
      0.09031 [    21]: 12210
      0.08403 [     7]: 10212
      0.05399 [     6]: 10122
      0.04715 [    30]: 21201
      0.02530 [    19]: 12120
      0.01794 [    16]: 12021
      0.01191 [    27]: 21102
      0.01051 [     8]: 10221
      0.00752 [    33]: 22101
      0.00718 [    31]: 21210
      0.00439 [    25]: 21012
ROOT  24:  E=   -2660.8067489098 Eh  2.979 eV  24027.9 cm**-1
      0.21481 [    13]: 11211
      0.18464 [    14]: 11220
      0.17037 [    33]: 22101
      0.16471 [    10]: 11112
      0.06673 [     9]: 11022
      0.04982 [    23]: 20121
      0.04480 [    22]: 20112
      0.03069 [    34]: 22110
      0.02554 [    32]: 22011
      0.01903 [    12]: 11202
      0.00470 [     2]: 01221
      0.00455 [    28]: 21111
      0.00441 [    24]: 20211
ROOT  25:  E=   -2660.8000122831 Eh  3.162 eV  25506.4 cm**-1
      0.39702 [    11]: 11121
      0.27219 [    13]: 11211
      0.12484 [    33]: 22101
      0.07357 [    23]: 20121
      0.03983 [    10]: 11112
      0.02252 [     9]: 11022
      0.01658 [    22]: 20112
      0.01619 [    34]: 22110
      0.01069 [    24]: 20211
      0.00953 [    32]: 22011
      0.00285 [     2]: 01221
      0.00273 [    28]: 21111
ROOT  26:  E=   -2660.7983937248 Eh  3.206 eV  25861.6 cm**-1
      0.36967 [     7]: 10212
      0.22639 [    20]: 12201
      0.10208 [    15]: 12012
      0.08494 [    16]: 12021
      0.07367 [     6]: 10122
      0.05558 [    21]: 12210
      0.02482 [    18]: 12111
      0.02367 [    28]: 21111
      0.00898 [    31]: 21210
      0.00849 [    30]: 21201
      0.00327 [    24]: 20211
      0.00266 [    33]: 22101
ROOT  27:  E=   -2660.7906978133 Eh  3.416 eV  27550.7 cm**-1
      0.50965 [    18]: 12111
      0.12701 [    20]: 12201
      0.11311 [    17]: 12102
      0.09605 [    19]: 12120
      0.06189 [    21]: 12210
      0.01926 [    15]: 12012
      0.01806 [     7]: 10212
      0.01041 [     8]: 10221
      0.00921 [    34]: 22110
      0.00785 [     3]: 02112
      0.00571 [    29]: 21120
      0.00416 [    26]: 21021
      0.00325 [    16]: 12021
      0.00318 [    31]: 21210
      0.00280 [    30]: 21201
      0.00261 [    25]: 21012
      0.00252 [    28]: 21111
ROOT  28:  E=   -2660.7898407487 Eh  3.439 eV  27738.8 cm**-1
      0.31487 [    14]: 11220
      0.29723 [    11]: 11121
      0.18456 [    13]: 11211
      0.05742 [    22]: 20112
      0.05024 [    12]: 11202
      0.03136 [    10]: 11112
      0.02658 [    23]: 20121
      0.00969 [    33]: 22101
      0.00726 [    29]: 21120
      0.00657 [    32]: 22011
      0.00487 [    31]: 21210
ROOT  29:  E=   -2660.7894897952 Eh  3.449 eV  27815.8 cm**-1
      0.43651 [    18]: 12111
      0.15775 [    20]: 12201
      0.10128 [    16]: 12021
      0.05231 [    17]: 12102
      0.04672 [    25]: 21012
      0.03443 [    19]: 12120
      0.02932 [    26]: 21021
      0.02189 [    28]: 21111
      0.02178 [    21]: 12210
      0.02080 [     7]: 10212
      0.01503 [    31]: 21210
      0.01458 [    29]: 21120
      0.01319 [    27]: 21102
      0.01014 [     8]: 10221
      0.01006 [    30]: 21201
      0.00347 [    32]: 22011
      0.00276 [     6]: 10122
ROOT  30:  E=   -2660.7804228293 Eh  3.695 eV  29805.8 cm**-1
      0.24865 [    32]: 22011
      0.24455 [    22]: 20112
      0.21526 [    24]: 20211
      0.04743 [    18]: 12111
      0.02827 [    28]: 21111
      0.02597 [    30]: 21201
      0.02474 [    27]: 21102
      0.02461 [    25]: 21012
      0.02209 [    13]: 11211
      0.01923 [    34]: 22110
      0.01917 [    26]: 21021
      0.01347 [    29]: 21120
      0.01267 [    31]: 21210
      0.01181 [    10]: 11112
      0.01072 [    11]: 11121
      0.01036 [    16]: 12021
      0.00694 [    23]: 20121
      0.00484 [     8]: 10221
      0.00308 [     7]: 10212
ROOT  31:  E=   -2660.7802814843 Eh  3.699 eV  29836.8 cm**-1
      0.12298 [    28]: 21111
      0.11011 [    18]: 12111
      0.10970 [    30]: 21201
      0.10442 [    25]: 21012
      0.09123 [    27]: 21102
      0.08314 [    26]: 21021
      0.07641 [    32]: 22011
      0.05801 [    22]: 20112
      0.05453 [    24]: 20211
      0.04815 [    29]: 21120
      0.04587 [    31]: 21210
      0.02433 [    15]: 12012
      0.01422 [    16]: 12021
      0.00980 [     7]: 10212
      0.00977 [    11]: 11121
      0.00904 [    13]: 11211
      0.00589 [     8]: 10221
      0.00399 [    34]: 22110
      0.00347 [    19]: 12120
      0.00322 [    21]: 12210
      0.00313 [    10]: 11112
      0.00305 [     6]: 10122
ROOT  32:  E=   -2660.7663610102 Eh  4.078 eV  32892.0 cm**-1
      0.34648 [    22]: 20112
      0.24120 [    34]: 22110
      0.20944 [    32]: 22011
      0.10387 [    33]: 22101
      0.02287 [    14]: 11220
      0.01566 [    18]: 12111
      0.01394 [    13]: 11211
      0.01201 [    10]: 11112
      0.00796 [    11]: 11121
      0.00486 [    12]: 11202
      0.00447 [     9]: 11022
ROOT  33:  E=   -2660.7658700004 Eh  4.091 eV  32999.8 cm**-1
      0.25366 [    26]: 21021
      0.25059 [    30]: 21201
      0.22609 [    25]: 21012
      0.15316 [    27]: 21102
      0.04670 [    28]: 21111
      0.01188 [    16]: 12021
      0.01072 [    29]: 21120
      0.00698 [     9]: 11022
      0.00697 [    12]: 11202
      0.00664 [    21]: 12210
      0.00469 [    10]: 11112
      0.00359 [    17]: 12102
      0.00343 [    18]: 12111
      0.00297 [     8]: 10221
      0.00293 [    11]: 11121
ROOT  34:  E=   -2660.7387321237 Eh  4.830 eV  38955.9 cm**-1
      0.49811 [    21]: 12210
      0.10149 [     7]: 10212
      0.08552 [    27]: 21102
      0.08082 [    15]: 12012
      0.07739 [    16]: 12021
      0.03429 [    28]: 21111
      0.02262 [    30]: 21201
      0.02156 [    25]: 21012
      0.02034 [    18]: 12111
      0.01425 [    29]: 21120
      0.01040 [    20]: 12201
      0.00961 [    31]: 21210
      0.00432 [     5]: 02211
      0.00382 [    34]: 22110
      0.00316 [    10]: 11112
      0.00307 [    17]: 12102
ROOT  35:  E=   -2660.7328065612 Eh  4.991 eV  40256.4 cm**-1
      0.46099 [    12]: 11202
      0.20662 [    14]: 11220
      0.13483 [     9]: 11022
      0.10410 [    10]: 11112
      0.05389 [    13]: 11211
      0.00652 [     1]: 01212
      0.00546 [    33]: 22101
      0.00432 [    34]: 22110
      0.00425 [    22]: 20112
      0.00361 [    32]: 22011
      0.00321 [    30]: 21201
      0.00300 [     2]: 01221
ROOT  36:  E=   -2660.7240005066 Eh  5.231 eV  42189.1 cm**-1
      0.25729 [    27]: 21102
      0.16065 [    25]: 21012
      0.15348 [    28]: 21111
      0.07001 [    16]: 12021
      0.06187 [    19]: 12120
      0.05831 [    21]: 12210
      0.04528 [    29]: 21120
      0.03848 [    26]: 21021
      0.03722 [    15]: 12012
      0.03028 [    31]: 21210
      0.02601 [    30]: 21201
      0.02323 [     7]: 10212
      0.01489 [    10]: 11112
      0.00469 [    11]: 11121
      0.00438 [     6]: 10122
      0.00346 [    13]: 11211
      0.00331 [    12]: 11202
ROOT  37:  E=   -2660.7164070583 Eh  5.437 eV  43855.6 cm**-1
      0.38033 [    16]: 12021
      0.22756 [    19]: 12120
      0.17492 [    20]: 12201
      0.07429 [    21]: 12210
      0.02706 [     8]: 10221
      0.02481 [    27]: 21102
      0.01376 [    17]: 12102
      0.01309 [    18]: 12111
      0.01210 [    28]: 21111
      0.01202 [    25]: 21012
      0.00910 [     7]: 10212
      0.00811 [    30]: 21201
      0.00373 [     5]: 02211
      0.00333 [    26]: 21021
      0.00268 [    15]: 12012
ROOT  38:  E=   -2660.6964157842 Eh  5.981 eV  48243.2 cm**-1
      0.51167 [    19]: 12120
      0.14145 [    16]: 12021
      0.10165 [    18]: 12111
      0.06937 [    17]: 12102
      0.06115 [    20]: 12201
      0.02552 [     6]: 10122
      0.01713 [     8]: 10221
      0.01441 [    21]: 12210
      0.01361 [     4]: 02121
      0.00958 [    26]: 21021
      0.00881 [    15]: 12012
      0.00679 [    29]: 21120
      0.00388 [    28]: 21111
      0.00315 [    27]: 21102
ROOT  39:  E=   -2660.6277971574 Eh  7.849 eV  63303.3 cm**-1
      0.71666 [     0]: 01122
      0.16224 [     1]: 01212
      0.08487 [     2]: 01221
      0.01166 [    10]: 11112
      0.01047 [    11]: 11121
      0.00518 [    13]: 11211
      0.00463 [     9]: 11022
ROOT  40:  E=   -2660.5855862182 Eh  8.997 eV  72567.5 cm**-1
      0.84385 [     3]: 02112
      0.12722 [     5]: 02211
      0.01168 [    18]: 12111
      0.00555 [    15]: 12012
      0.00479 [     4]: 02121
      0.00378 [    17]: 12102
ROOT  41:  E=   -2660.5557180903 Eh  9.810 eV  79122.8 cm**-1
      0.72783 [     1]: 01212
      0.17101 [     2]: 01221
      0.07449 [     0]: 01122
      0.01054 [    13]: 11211
      0.00744 [    10]: 11112
      0.00334 [    12]: 11202
ROOT  42:  E=   -2660.4740097527 Eh 12.033 eV  97055.7 cm**-1
      0.71320 [     2]: 01221
      0.17405 [     0]: 01122
      0.07377 [     1]: 01212
      0.01788 [    11]: 11121
      0.01062 [    13]: 11211
      0.00673 [    14]: 11220
ROOT  43:  E=   -2660.4641229584 Eh 12.302 eV  99225.6 cm**-1
      0.46719 [     4]: 02121
      0.41025 [     5]: 02211
      0.08591 [     3]: 02112
      0.02115 [    18]: 12111
      0.00444 [    19]: 12120
      0.00389 [    21]: 12210
      0.00300 [    16]: 12021
ROOT  44:  E=   -2660.4290887821 Eh 13.256 eV 106914.7 cm**-1
      0.50324 [     4]: 02121
      0.43520 [     5]: 02211
      0.04050 [     3]: 02112
      0.00601 [    18]: 12111
      0.00479 [    19]: 12120
      0.00411 [    21]: 12210
      0.00331 [    16]: 12021

                 <<<<<<<<<<<<<<<<<<INITIAL CI STATE CHECK>>>>>>>>>>>>>>>>>>

   E(CAS)= -2660.843172741 Eh DE=    0.000000e+00
   --- Energy gap subspaces: Ext-Act = 0.071   Act-Int = 0.062
   N(occ)=  1.20000 1.20000 1.20000 1.20000 1.20000
   ||g|| =     8.604899e-04 Max(G)=   -3.920603e-04 Rot=158,124
                     ---- THE CAS-SCF GRADIENT HAS CONVERGED ----
                            --- FINALIZING ORBITALS ---
                    ---- DOING ONE FINAL ITERATION FOR PRINTING ----
   --- Forming Natural Orbitals
   --- Canonicalize Internal Space
   --- Canonicalize External Space

MACRO-ITERATION   2: 
   --- Inactive Energy E0 = -2652.40842402 Eh
   --- All densities will be recomputed
CI-ITERATION   0: 
 -2660.942745873   0.000000000000 (    0.00)
 -2660.923109826   0.000000000000
 -2660.899933355   0.000000000000
 -2660.872179005   0.000000000000
 -2660.870061700   0.000000000000
   CI-PROBLEM SOLVED
   DENSITIES MADE
CI-ITERATION   0: 
 -2660.916228046   0.000000000000 (    0.00)
 -2660.915718098   0.000000000000
 -2660.907304299   0.000000000000
 -2660.895641229   0.000000000000
 -2660.893509035   0.000000000000
 -2660.881266633   0.000000000000
 -2660.879585942   0.000000000000
 -2660.875648952   0.000000000000
 -2660.872702886   0.000000000000
 -2660.869389608   0.000000000000
 -2660.867565222   0.000000000000
 -2660.859876260   0.000000000000
 -2660.857607596   0.000000000000
 -2660.849309671   0.000000000000
 -2660.849137072   0.000000000000
 -2660.847781905   0.000000000000
 -2660.847469860   0.000000000000
 -2660.845174576   0.000000000000
 -2660.842497235   0.000000000000
 -2660.838568379   0.000000000000
 -2660.830125470   0.000000000000
 -2660.829327276   0.000000000000
 -2660.816080494   0.000000000000
 -2660.812959638   0.000000000000
 -2660.806748911   0.000000000000
 -2660.800012284   0.000000000000
 -2660.798393726   0.000000000000
 -2660.790697815   0.000000000000
 -2660.789840750   0.000000000000
 -2660.789489797   0.000000000000
 -2660.780422830   0.000000000000
 -2660.780281485   0.000000000000
 -2660.766361011   0.000000000000
 -2660.765870001   0.000000000000
 -2660.738732125   0.000000000000
 -2660.732806563   0.000000000000
 -2660.724000508   0.000000000000
 -2660.716407060   0.000000000000
 -2660.696415786   0.000000000000
 -2660.627797159   0.000000000000
 -2660.585586220   0.000000000000
 -2660.555718093   0.000000000000
 -2660.474009755   0.000000000000
 -2660.464122961   0.000000000000
 -2660.429088785   0.000000000000
   CI-PROBLEM SOLVED
   DENSITIES MADE
   E(CAS)= -2660.843172742 Eh DE=   -1.479748e-09
   --- Energy gap subspaces: Ext-Act = 0.084   Act-Int = 0.086
   N(occ)=  1.20000 1.20000 1.20000 1.20000 1.20000
   ||g|| =     8.604900e-04 Max(G)=   -2.970318e-04 Rot=158,125
--------------
CASSCF RESULTS
--------------

Final CASSCF energy       : -2660.843172742 Eh  -72405.2237 eV

----------------
ORBITAL ENERGIES
----------------

  NO   OCC          E(Eh)            E(eV) 
   0   2.0000    -220.523611     -6000.7525 
   1   2.0000     -26.366255      -717.4623 
   2   2.0000     -22.300463      -606.8264 
   3   2.0000     -22.298040      -606.7605 
   4   2.0000     -22.286892      -606.4572 
   5   2.0000      -4.714546      -128.2893 
   6   2.0000      -4.714516      -128.2885 
   7   2.0000      -4.714504      -128.2882 
   8   2.0000      -4.714501      -128.2881 
   9   2.0000      -4.710543      -128.1804 
  10   2.0000      -4.710513      -128.1796 
  11   2.0000      -4.705741      -128.0497 
  12   2.0000      -4.705735      -128.0496 
  13   2.0000      -4.705691      -128.0484 
  14   2.0000      -4.705680      -128.0481 
  15   2.0000      -4.705187      -128.0346 
  16   2.0000      -4.705180      -128.0344 
  17   2.0000      -3.418104       -93.0113 
  18   2.0000      -2.753714       -74.9324 
  19   2.0000      -2.753621       -74.9298 
  20   2.0000      -2.753273       -74.9204 
  21   2.0000      -2.753234       -74.9193 
  22   2.0000      -2.752521       -74.8999 
  23   2.0000      -2.752381       -74.8961 
  24   2.0000      -2.752205       -74.8913 
  25   2.0000      -2.751883       -74.8825 
  26   2.0000      -2.750090       -74.8337 
  27   2.0000      -2.750050       -74.8327 
  28   2.0000      -2.749520       -74.8182 
  29   2.0000      -2.749267       -74.8114 
  30   2.0000      -2.747958       -74.7757 
  31   2.0000      -2.747793       -74.7712 
  32   2.0000      -2.746355       -74.7321 
  33   2.0000      -2.745516       -74.7093 
  34   2.0000      -2.745124       -74.6986 
  35   2.0000      -2.744921       -74.6931 
  36   2.0000      -2.744381       -74.6784 
  37   2.0000      -2.744269       -74.6754 
  38   2.0000      -2.743092       -74.6433 
  39   2.0000      -2.743067       -74.6427 
  40   2.0000      -2.742293       -74.6216 
  41   2.0000      -2.742094       -74.6162 
  42   2.0000      -2.741953       -74.6123 
  43   2.0000      -2.741700       -74.6054 
  44   2.0000      -2.740868       -74.5828 
  45   2.0000      -2.740587       -74.5752 
  46   2.0000      -2.739310       -74.5404 
  47   2.0000      -2.739118       -74.5352 
  48   2.0000      -2.739061       -74.5336 
  49   2.0000      -2.738965       -74.5310 
  50   2.0000      -2.737998       -74.5047 
  51   2.0000      -2.737890       -74.5018 
  52   2.0000      -2.737737       -74.4976 
  53   2.0000      -2.737611       -74.4942 
  54   2.0000      -2.181897       -59.3724 
  55   2.0000      -2.180495       -59.3343 
  56   2.0000      -2.171534       -59.0904 
  57   2.0000      -0.559844       -15.2341 
  58   2.0000      -0.547730       -14.9045 
  59   2.0000      -0.546049       -14.8587 
  60   2.0000      -0.538889       -14.6639 
  61   2.0000      -0.538808       -14.6617 
  62   2.0000      -0.536530       -14.5997 
  63   2.0000      -0.536125       -14.5887 
  64   2.0000      -0.535021       -14.5587 
  65   2.0000      -0.533009       -14.5039 
  66   2.0000      -0.531406       -14.4603 
  67   2.0000      -0.530983       -14.4488 
  68   2.0000      -0.525638       -14.3034 
  69   2.0000      -0.525302       -14.2942 
  70   2.0000      -0.525135       -14.2897 
  71   2.0000      -0.522306       -14.2127 
  72   2.0000      -0.519657       -14.1406 
  73   2.0000      -0.515516       -14.0279 
  74   2.0000      -0.515340       -14.0231 
  75   2.0000      -0.513318       -13.9681 
  76   2.0000      -0.513297       -13.9675 
  77   2.0000      -0.512705       -13.9514 
  78   2.0000      -0.509834       -13.8733 
  79   2.0000      -0.497516       -13.5381 
  80   2.0000      -0.496406       -13.5079 
  81   2.0000      -0.493544       -13.4300 
  82   2.0000      -0.493359       -13.4250 
  83   2.0000      -0.490619       -13.3504 
  84   2.0000      -0.488991       -13.3061 
  85   2.0000      -0.485670       -13.2158 
  86   2.0000      -0.481378       -13.0989 
  87   2.0000      -0.479016       -13.0347 
  88   2.0000      -0.470367       -12.7993 
  89   2.0000      -0.468621       -12.7518 
  90   2.0000      -0.466390       -12.6911 
  91   2.0000      -0.461684       -12.5631 
  92   2.0000      -0.458036       -12.4638 
  93   2.0000      -0.454114       -12.3571 
  94   2.0000      -0.452819       -12.3218 
  95   2.0000      -0.449974       -12.2444 
  96   2.0000      -0.449305       -12.2262 
  97   2.0000      -0.448433       -12.2025 
  98   2.0000      -0.447363       -12.1734 
  99   2.0000      -0.447229       -12.1697 
 100   2.0000      -0.446484       -12.1494 
 101   2.0000      -0.440148       -11.9770 
 102   2.0000      -0.436302       -11.8724 
 103   2.0000      -0.435729       -11.8568 
 104   2.0000      -0.431812       -11.7502 
 105   2.0000      -0.431178       -11.7330 
 106   2.0000      -0.425962       -11.5910 
 107   2.0000      -0.425478       -11.5779 
 108   2.0000      -0.424471       -11.5504 
 109   2.0000      -0.424015       -11.5380 
 110   2.0000      -0.422988       -11.5101 
 111   2.0000      -0.422070       -11.4851 
 112   2.0000      -0.420702       -11.4479 
 113   2.0000      -0.419532       -11.4160 
 114   2.0000      -0.416234       -11.3263 
 115   2.0000      -0.411734       -11.2038 
 116   2.0000      -0.407518       -11.0891 
 117   2.0000      -0.381531       -10.3820 
 118   2.0000      -0.344024        -9.3614 
 119   2.0000      -0.341600        -9.2954 
 120   2.0000      -0.310148        -8.4395 
 121   2.0000      -0.241434        -6.5697 
 122   2.0000      -0.222801        -6.0627 
 123   1.2000      -0.107135        -2.9153 
 124   1.2000      -0.137077        -3.7300 
 125   1.2000      -0.119894        -3.2625 
 126   1.2000      -0.110316        -3.0018 
 127   1.2000      -0.118785        -3.2323 
 128   0.0000      -0.023351        -0.6354 
 129   0.0000       0.000869         0.0237 
 130   0.0000       0.008305         0.2260 
 131   0.0000       0.012621         0.3434 
 132   0.0000       0.030282         0.8240 
 133   0.0000       0.034766         0.9460 
 134   0.0000       0.045752         1.2450 
 135   0.0000       0.051019         1.3883 
 136   0.0000       0.053613         1.4589 
 137   0.0000       0.054714         1.4888 
 138   0.0000       0.065298         1.7768 
 139   0.0000       0.069174         1.8823 
 140   0.0000       0.083602         2.2749 
 141   0.0000       0.089151         2.4259 
 142   0.0000       0.090315         2.4576 
 143   0.0000       0.110153         2.9974 
 144   0.0000       0.112183         3.0526 
 145   0.0000       0.125704         3.4206 
 146   0.0000       0.131704         3.5839 
 147   0.0000       0.136362         3.7106 
 148   0.0000       0.139437         3.7943 
 149   0.0000       0.143541         3.9059 
 150   0.0000       0.146243         3.9795 
 151   0.0000       0.146305         3.9812 
 152   0.0000       0.153165         4.1678 
 153   0.0000       0.153786         4.1847 
 154   0.0000       0.154465         4.2032 
 155   0.0000       0.155095         4.2203 
 156   0.0000       0.156922         4.2701 
 157   0.0000       0.158604         4.3158 
 158   0.0000       0.182714         4.9719 
 159   0.0000       0.185195         5.0394 
 160   0.0000       0.187106         5.0914 
 161   0.0000       0.187548         5.1034 
 162   0.0000       0.199039         5.4161 
 163   0.0000       0.200262         5.4494 
 164   0.0000       0.206750         5.6260 
 165   0.0000       0.207394         5.6435 
 166   0.0000       0.208300         5.6681 
 167   0.0000       0.238373         6.4865 
 168   0.0000       0.242453         6.5975 
 169   0.0000       0.244733         6.6595 
 170   0.0000       0.249696         6.7946 
 171   0.0000       0.250728         6.8226 
 172   0.0000       0.251773         6.8511 
 173   0.0000       0.264403         7.1948 
 174   0.0000       0.271338         7.3835 
 175   0.0000       0.273098         7.4314 
 176   0.0000       0.277304         7.5458 
 177   0.0000       0.281283         7.6541 
 178   0.0000       0.298517         8.1231 
 179   0.0000       0.371245        10.1021 
 180   0.0000       0.374448        10.1892 
 181   0.0000       0.384123        10.4525 
 182   0.0000       0.389609        10.6018 
 183   0.0000       0.394274        10.7287 
 184   0.0000       0.394992        10.7483 
 185   0.0000       0.398201        10.8356 
 186   0.0000       0.400537        10.8992 
 187   0.0000       0.406274        11.0553 
 188   0.0000       0.411882        11.2079 
 189   0.0000       0.415023        11.2933 
 190   0.0000       0.416673        11.3382 
 191   0.0000       0.416892        11.3442 
 192   0.0000       0.431510        11.7420 
 193   0.0000       0.433665        11.8006 
 194   0.0000       0.466311        12.6890 
 195   0.0000       0.472511        12.8577 
 196   0.0000       0.473824        12.8934 
 197   0.0000       0.475004        12.9255 
 198   0.0000       0.477321        12.9886 
 199   0.0000       0.480011        13.0618 
 200   0.0000       0.481327        13.0976 
 201   0.0000       0.502194        13.6654 
 202   0.0000       0.502427        13.6717 
 203   0.0000       0.506654        13.7868 
 204   0.0000       0.517486        14.0815 
 205   0.0000       0.521447        14.1893 
 206   0.0000       0.521566        14.1925 
 207   0.0000       0.529063        14.3965 
 208   0.0000       0.531966        14.4755 
 209   0.0000       0.542763        14.7693 
 210   0.0000       0.543665        14.7939 
 211   0.0000       0.545120        14.8335 
 212   0.0000       0.545217        14.8361 
 213   0.0000       0.546625        14.8744 
 214   0.0000       0.548053        14.9133 
 215   0.0000       0.552747        15.0410 
 216   0.0000       0.553383        15.0583 
 217   0.0000       0.558862        15.2074 
 218   0.0000       0.572983        15.5916 
 219   0.0000       0.574515        15.6333 
 220   0.0000       0.575537        15.6612 
 221   0.0000       0.579638        15.7727 
 222   0.0000       0.608040        16.5456 
 223   0.0000       0.610594        16.6151 
 224   0.0000       0.614112        16.7109 
 225   0.0000       0.623958        16.9787 
 226   0.0000       0.639743        17.4083 
 227   0.0000       0.645550        17.5663 
 228   0.0000       0.645586        17.5673 
 229   0.0000       0.646176        17.5833 
 230   0.0000       0.658491        17.9185 
 231   0.0000       0.662105        18.0168 
 232   0.0000       0.662562        18.0292 
 233   0.0000       0.662617        18.0307 
 234   0.0000       0.686028        18.6678 
 235   0.0000       0.694775        18.9058 
 236   0.0000       0.695300        18.9201 
 237   0.0000       0.698914        19.0184 
 238   0.0000       0.700088        19.0504 
 239   0.0000       0.701339        19.0844 
 240   0.0000       0.704094        19.1594 
 241   0.0000       0.705814        19.2062 
 242   0.0000       0.718696        19.5567 
 243   0.0000       0.720663        19.6102 
 244   0.0000       0.721862        19.6429 
 245   0.0000       0.723409        19.6850 
 246   0.0000       0.727533        19.7972 
 247   0.0000       0.736583        20.0434 
 248   0.0000       0.748232        20.3604 
 249   0.0000       0.750294        20.4165 
 250   0.0000       0.754007        20.5176 
 251   0.0000       0.779159        21.2020 
 252   0.0000       0.809225        22.0201 
 253   0.0000       0.811941        22.0940 
 254   0.0000       0.825223        22.4554 
 255   0.0000       0.827515        22.5178 
 256   0.0000       0.837680        22.7944 
 257   0.0000       0.877362        23.8742 
 258   0.0000       0.894967        24.3533 
 259   0.0000       0.895939        24.3797 
 260   0.0000       0.949913        25.8484 
 261   0.0000       0.976445        26.5704 
 262   0.0000       0.979398        26.6508 
 263   0.0000       1.003434        27.3048 
 264   0.0000       1.005313        27.3560 
 265   0.0000       1.013838        27.5879 
 266   0.0000       1.028752        27.9938 
 267   0.0000       1.046222        28.4691 
 268   0.0000       1.079531        29.3755 
 269   0.0000       1.082595        29.4589 
 270   0.0000       1.122481        30.5443 
 271   0.0000       1.125619        30.6297 
 272   0.0000       1.128528        30.7088 
 273   0.0000       1.142660        31.0933 
 274   0.0000       1.148662        31.2567 
 275   0.0000       1.152050        31.3489 
 276   0.0000       1.158669        31.5290 
 277   0.0000       1.173383        31.9294 
 278   0.0000       1.175456        31.9858 
 279   0.0000       1.183964        32.2173 
 280   0.0000       1.187045        32.3011 
 281   0.0000       1.187539        32.3146 
 282   0.0000       1.203890        32.7595 
 283   0.0000       1.206717        32.8365 
 284   0.0000       1.234366        33.5888 
 285   0.0000       1.259591        34.2752 
 286   0.0000       1.303226        35.4626 
 287   0.0000       1.305345        35.5203 
 288   0.0000       1.361137        37.0384 
 289   0.0000       1.415453        38.5164 
 290   0.0000       1.546280        42.0764 
 291   0.0000       1.548227        42.1294 
 292   0.0000       1.549464        42.1631 
 293   0.0000       1.597010        43.4568 
 294   0.0000       1.620230        44.0887 
 295   0.0000       1.625606        44.2350 
 296   0.0000       1.627950        44.2988 
 297   0.0000       1.631765        44.4026 
 298   0.0000       1.633808        44.4582 
 299   0.0000       1.634849        44.4865 
 300   0.0000       1.668636        45.4059 
 301   0.0000       1.673627        45.5417 
 302   0.0000       1.682315        45.7781 
 303   0.0000       1.683421        45.8082 
 304   0.0000       1.684828        45.8465 
 305   0.0000       1.686879        45.9023 
 306   0.0000       1.688435        45.9446 
 307   0.0000       1.694008        46.0963 
 308   0.0000       1.709342        46.5136 
 309   0.0000       1.721511        46.8447 
 310   0.0000       1.730851        47.0989 
 311   0.0000       1.741020        47.3756 
 312   0.0000       1.748558        47.5807 
 313   0.0000       1.748986        47.5923 
 314   0.0000       1.749299        47.6008 
 315   0.0000       1.750765        47.6408 
 316   0.0000       1.760404        47.9030 
 317   0.0000       1.783884        48.5420 
 318   0.0000       1.788705        48.6731 
 319   0.0000       1.798034        48.9270 
 320   0.0000       1.802151        49.0390 
 321   0.0000       1.803575        49.0778 
 322   0.0000       1.807342        49.1803 
 323   0.0000       1.809130        49.2289 
 324   0.0000       1.809452        49.2377 
 325   0.0000       1.811917        49.3048 
 326   0.0000       1.814920        49.3865 
 327   0.0000       1.815966        49.4150 
 328   0.0000       1.830907        49.8215 
 329   0.0000       1.836143        49.9640 
 330   0.0000       1.838593        50.0307 
 331   0.0000       1.841564        50.1115 
 332   0.0000       1.847174        50.2642 
 333   0.0000       1.848363        50.2965 
 334   0.0000       1.848634        50.3039 
 335   0.0000       1.853573        50.4383 
 336   0.0000       1.855443        50.4892 
 337   0.0000       1.857799        50.5533 
 338   0.0000       1.860362        50.6230 
 339   0.0000       1.863179        50.6997 
 340   0.0000       1.863967        50.7211 
 341   0.0000       1.864494        50.7355 
 342   0.0000       1.864563        50.7373 
 343   0.0000       1.867741        50.8238 
 344   0.0000       1.874425        51.0057 
 345   0.0000       1.876995        51.0756 
 346   0.0000       1.877987        51.1026 
 347   0.0000       1.878460        51.1155 
 348   0.0000       1.881948        51.2104 
 349   0.0000       1.884791        51.2878 
 350   0.0000       1.887819        51.3702 
 351   0.0000       1.888068        51.3770 
 352   0.0000       1.890990        51.4565 
 353   0.0000       1.892314        51.4925 
 354   0.0000       1.893175        51.5159 
 355   0.0000       1.893336        51.5203 
 356   0.0000       1.897261        51.6271 
 357   0.0000       1.899459        51.6869 
 358   0.0000       1.901185        51.7339 
 359   0.0000       1.901234        51.7352 
 360   0.0000       1.905853        51.8609 
 361   0.0000       1.907721        51.9117 
 362   0.0000       1.908676        51.9377 
 363   0.0000       1.909972        51.9730 
 364   0.0000       1.910788        51.9952 
 365   0.0000       1.910998        52.0009 
 366   0.0000       1.912464        52.0408 
 367   0.0000       1.914151        52.0867 
 368   0.0000       1.915942        52.1354 
 369   0.0000       1.917231        52.1705 
 370   0.0000       1.917806        52.1861 
 371   0.0000       1.921473        52.2860 
 372   0.0000       1.922342        52.3096 
 373   0.0000       1.929392        52.5014 
 374   0.0000       1.930244        52.5246 
 375   0.0000       1.931094        52.5477 
 376   0.0000       1.936075        52.6833 
 377   0.0000       1.940606        52.8066 
 378   0.0000       1.942693        52.8634 
 379   0.0000       1.944459        52.9114 
 380   0.0000       1.944769        52.9199 
 381   0.0000       1.945075        52.9282 
 382   0.0000       1.945808        52.9481 
 383   0.0000       1.947709        52.9999 
 384   0.0000       1.950267        53.0695 
 385   0.0000       1.950893        53.0865 
 386   0.0000       1.951830        53.1120 
 387   0.0000       1.954939        53.1966 
 388   0.0000       1.955600        53.2146 
 389   0.0000       1.957088        53.2551 
 390   0.0000       1.963852        53.4391 
 391   0.0000       1.966973        53.5241 
 392   0.0000       1.967444        53.5369 
 393   0.0000       1.969201        53.5847 
 394   0.0000       1.974827        53.7378 
 395   0.0000       1.975405        53.7535 
 396   0.0000       1.988197        54.1016 
 397   0.0000       1.988971        54.1227 
 398   0.0000       1.991717        54.1974 
 399   0.0000       1.993891        54.2565 
 400   0.0000       1.994623        54.2765 
 401   0.0000       1.997009        54.3414 
 402   0.0000       2.006062        54.5877 
 403   0.0000       2.007134        54.6169 
 404   0.0000       2.012440        54.7613 
 405   0.0000       2.013746        54.7968 
 406   0.0000       2.014974        54.8302 
 407   0.0000       2.026118        55.1335 
 408   0.0000       2.027590        55.1735 
 409   0.0000       2.050955        55.8093 
 410   0.0000       2.055168        55.9240 
 411   0.0000       2.074476        56.4494 
 412   0.0000       2.095625        57.0248 
 413   0.0000       2.105267        57.2872 
 414   0.0000       2.144936        58.3667 
 415   0.0000       2.145395        58.3792 
 416   0.0000       2.148370        58.4601 
 417   0.0000       2.165344        58.9220 
 418   0.0000       2.166143        58.9437 
 419   0.0000       2.168265        59.0015 
 420   0.0000       2.176181        59.2169 
 421   0.0000       2.178598        59.2827 
 422   0.0000       2.197639        59.8008 
 423   0.0000       2.202200        59.9249 
 424   0.0000       2.206213        60.0341 
 425   0.0000       2.206844        60.0513 
 426   0.0000       2.223255        60.4978 
 427   0.0000       2.225644        60.5629 
 428   0.0000       2.232509        60.7497 
 429   0.0000       2.265340        61.6430 
 430   0.0000       2.295000        62.4501 
 431   0.0000       2.296132        62.4809 
 432   0.0000       2.314974        62.9937 
 433   0.0000       2.318176        63.0808 
 434   0.0000       2.333904        63.5088 
 435   0.0000       2.363246        64.3072 
 436   0.0000       2.365316        64.3635 
 437   0.0000       2.494712        67.8846 
 438   0.0000       2.607416        70.9514 
[...]
 3 117  110538.9     90.5   0.000000000   0.00000   0.00003   0.00001   0.00004
 3 118  110558.7     90.4   0.000000000   0.00000   0.00005   0.00003   0.00004
 3 119  110567.3     90.4   0.000000000   0.00000   0.00002   0.00001   0.00000
 3 120  110571.7     90.4   0.000000000   0.00000   0.00004   0.00001   0.00004
 3 121  110846.2     90.2   0.000000000   0.00000   0.00007   0.00009   0.00002
 3 122  110847.3     90.2   0.000000000   0.00000   0.00011   0.00018   0.00004
 3 123  110848.9     90.2   0.000000000   0.00000   0.00000   0.00000   0.00001
 3 124  110883.0     90.2   0.000000000   0.00000   0.00004   0.00005   0.00002
 3 125  110889.6     90.2   0.000000000   0.00000   0.00009   0.00005   0.00003
 3 126  110903.2     90.2   0.000000000   0.00000   0.00002   0.00002   0.00003
 3 127  113017.0     88.5   0.000000000   0.00000   0.00006   0.00008   0.00002
 3 128  113021.1     88.5   0.000000000   0.00000   0.00026   0.00003   0.00004
 3 129  113034.9     88.5   0.000000000   0.00000   0.00003   0.00000   0.00002
 3 130  113838.0     87.8   0.000000000   0.00000   0.00000   0.00001   0.00002
 3 131  113841.2     87.8   0.000000000   0.00000   0.00014   0.00016   0.00008
 3 132  113842.0     87.8   0.000000000   0.00000   0.00019   0.00025   0.00013
 3 133  114049.5     87.7   0.000000000   0.00000   0.00003   0.00001   0.00001
 3 134  114049.8     87.7   0.000000000   0.00000   0.00002   0.00009   0.00003
 3 135  114050.3     87.7   0.000000000   0.00000   0.00031   0.00090   0.00025
 3 136  115190.6     86.8   0.000000000   0.00000   0.00004   0.00002   0.00001
 3 137  115194.9     86.8   0.000000000   0.00000   0.00023   0.00020   0.00013
 3 138  115196.1     86.8   0.000000000   0.00000   0.00016   0.00010   0.00009
 3 139  118086.4     84.7   0.000000000   0.00000   0.00001   0.00003   0.00000
 3 140  118088.2     84.7   0.000000000   0.00000   0.00015   0.00051   0.00011
 3 141  118089.0     84.7   0.000000000   0.00000   0.00000   0.00002   0.00001
 3 142  120646.5     82.9   0.000000000   0.00000   0.00063   0.00018   0.00057
 3 143  120647.5     82.9   0.000000000   0.00000   0.00009   0.00001   0.00004
 3 144  120648.5     82.9   0.000000000   0.00000   0.00094   0.00026   0.00084
 3 145  122185.3     81.8   0.000000000   0.00000   0.00008   0.00000   0.00002
 3 146  122185.4     81.8   0.000000000   0.00000   0.00001   0.00000   0.00001
 3 147  122188.1     81.8   0.000000000   0.00000   0.00060   0.00024   0.00033
 3 148  131298.9     76.2   0.000000000   0.00000   0.00002   0.00000   0.00000
 3 149  131299.6     76.2   0.000000000   0.00000   0.00024   0.00006   0.00001
 3 150  131300.2     76.2   0.000000000   0.00000   0.00007   0.00002   0.00000
 3 151  271617.6     36.8   0.000000000   0.00000   0.00002   0.00005   0.00002
 3 152  271617.7     36.8   0.000000000   0.00000   0.00000   0.00000   0.00000
 3 153  271617.7     36.8   0.000000000   0.00000   0.00001   0.00004   0.00001
 3 154  527443.7     19.0   0.000000000   0.00000   0.00000   0.00000   0.00000
 3 155  527443.7     19.0   0.000000000   0.00000   0.00005   0.00004   0.00007
 3 156  527443.7     19.0   0.000000000   0.00000   0.00004   0.00004   0.00006
 3 157 1267522.8      7.9   0.000000000   0.00000   0.00000   0.00005   0.00000
 3 158 1267522.8      7.9   0.000000000   0.00000   0.00000   0.00001   0.00000
 3 159 1267522.9      7.9   0.000000000   0.00000   0.00000   0.00011   0.00000
 4  5       0.2   64497461.8   0.000000000   0.00000   0.00000   0.00000   0.00000
 4  6   35426.8    282.3   0.000000000   0.00000   0.00003   0.00014   0.00019
 4  7   35427.3    282.3   0.000000000   0.00000   0.00003   0.00016   0.00023
 4  8   35428.4    282.3   0.000000000   0.00000   0.00003   0.00011   0.00017
 4  9   46763.2    213.8   0.000000000   0.00000   0.00000   0.00001   0.00001
 4 10   46763.2    213.8   0.000000000   0.00000   0.00001   0.00001   0.00001
 4 11   46765.3    213.8   0.000000000   0.00000   0.00001   0.00000   0.00000
 4 12   46765.9    213.8   0.000000000   0.00000   0.00000   0.00000   0.00000
 4 13   46766.4    213.8   0.000000000   0.00000   0.00000   0.00001   0.00000
 4 14   50056.9    199.8   0.000000000   0.00000   0.00021   0.00039   0.00014
 4 15   50057.2    199.8   0.000000000   0.00000   0.00004   0.00009   0.00005
 4 16   50058.5    199.8   0.000000000   0.00000   0.00040   0.00075   0.00028
 4 17   53118.6    188.3   0.000000000   0.00000   0.00002   0.00000   0.00003
 4 18   53118.6    188.3   0.000000000   0.00000   0.00009   0.00001   0.00010
 4 19   53119.0    188.3   0.000000000   0.00000   0.00063   0.00009   0.00062
 4 20   67570.5    148.0   0.000000000   0.00000   0.00010   0.00027   0.00008
 4 21   67570.9    148.0   0.000000000   0.00000   0.00032   0.00104   0.00026
 4 22   67571.1    148.0   0.000000000   0.00000   0.00013   0.00039   0.00010
 4 23   71264.6    140.3   0.000000000   0.00000   0.00016   0.00005   0.00012
 4 24   71264.9    140.3   0.000000000   0.00000   0.00009   0.00004   0.00008
 4 25   71265.1    140.3   0.000000000   0.00000   0.00142   0.00055   0.00109
 4 26   76595.0    130.6   0.000000000   0.00000   0.00000   0.00002   0.00000
 4 27   76595.6    130.6   0.000000000   0.00000   0.00003   0.00080   0.00013
 4 28   76596.1    130.6   0.000000000   0.00000   0.00000   0.00020   0.00003
 4 29   84588.5    118.2   0.000000000   0.00000   0.00005   0.00005   0.00003
 4 30   84589.6    118.2   0.000000000   0.00000   0.00091   0.00046   0.00067
 4 31   84599.0    118.2   0.000000000   0.00000   0.00014   0.00007   0.00010
 4 32   85274.6    117.3   0.000000000   0.00000   0.00004   0.00004   0.00007
 4 33   85284.4    117.3   0.000000000   0.00000   0.00014   0.00007   0.00005
 4 34   85285.5    117.3   0.000000000   0.00000   0.00024   0.00024   0.00045
 4 35   85424.3    117.1   0.000000000   0.00000   0.00019   0.00014   0.00018
 4 36   85424.5    117.1   0.000000000   0.00000   0.00003   0.00002   0.00002
 4 37   85425.5    117.1   0.000000000   0.00000   0.00001   0.00001   0.00002
 4 38   90043.5    111.1   0.000000000   0.00000   0.00063   0.00020   0.00042
 4 39   90046.0    111.1   0.000000000   0.00000   0.00024   0.00012   0.00018
 4 40   90075.6    111.0   0.000000000   0.00000   0.00010   0.00002   0.00005
 4 41   90184.7    110.9   0.000000000   0.00000   0.00010   0.00007   0.00002
 4 42   90226.4    110.8   0.000000000   0.00000   0.00043   0.00020   0.00020
 4 43   90235.4    110.8   0.000000000   0.00000   0.00070   0.00028   0.00028
 4 44   90473.7    110.5   0.000000000   0.00000   0.00036   0.00083   0.00022
 4 45   90476.7    110.5   0.000000000   0.00000   0.00015   0.00011   0.00004
 4 46   90484.0    110.5   0.000000000   0.00000   0.00004   0.00007   0.00000
 4 47   90660.2    110.3   0.000000000   0.00000   0.00009   0.00002   0.00017
 4 48   90666.0    110.3   0.000000000   0.00000   0.00002   0.00002   0.00001
 4 49   90675.6    110.3   0.000000000   0.00000   0.00001   0.00002   0.00001
 4 50   90834.3    110.1   0.000000000   0.00000   0.00016   0.00009   0.00029
 4 51   90838.3    110.1   0.000000000   0.00000   0.00003   0.00008   0.00011
 4 52   90848.2    110.1   0.000000000   0.00000   0.00011   0.00011   0.00002
 4 53   91017.8    109.9   0.000000000   0.00000   0.00003   0.00001   0.00004
 4 54   91018.1    109.9   0.000000000   0.00000   0.00001   0.00001   0.00000
 4 55   91035.0    109.8   0.000000000   0.00000   0.00001   0.00000   0.00001
 4 56   91038.2    109.8   0.000000000   0.00000   0.00008   0.00003   0.00008
 4 57   91042.3    109.8   0.000000000   0.00000   0.00003   0.00000   0.00001
 4 58   92533.5    108.1   0.000000000   0.00000   0.00018   0.00003   0.00011
 4 59   92533.5    108.1   0.000000000   0.00000   0.00075   0.00009   0.00046
 4 60   92538.4    108.1   0.000000000   0.00000   0.00006   0.00000   0.00003
 4 61   93792.7    106.6   0.000000000   0.00000   0.00001   0.00046   0.00000
 4 62   93796.3    106.6   0.000000000   0.00000   0.00006   0.00004   0.00006
 4 63   93812.0    106.6   0.000000000   0.00000   0.00000   0.00004   0.00000
 4 64   94011.3    106.4   0.000000000   0.00000   0.00003   0.00000   0.00001
 4 65   94023.7    106.4   0.000000000   0.00000   0.00003   0.00010   0.00005
 4 66   94026.6    106.4   0.000000000   0.00000   0.00030   0.00004   0.00028
 4 67   94594.7    105.7   0.000000000   0.00000   0.00057   0.00016   0.00031
 4 68   94594.9    105.7   0.000000000   0.00000   0.00022   0.00008   0.00007
 4 69   94596.3    105.7   0.000000000   0.00000   0.00014   0.00006   0.00008
 4 70   94781.3    105.5   0.000000000   0.00000   0.00002   0.00001   0.00001
 4 71   94791.5    105.5   0.000000000   0.00000   0.00007   0.00001   0.00000
 4 72   94793.4    105.5   0.000000000   0.00000   0.00018   0.00019   0.00015
 4 73   95814.6    104.4   0.000000000   0.00000   0.00003   0.00001   0.00001
 4 74   95814.7    104.4   0.000000000   0.00000   0.00026   0.00005   0.00004
 4 75   95817.2    104.4   0.000000000   0.00000   0.00006   0.00001   0.00002
 4 76   96037.2    104.1   0.000000000   0.00000   0.00006   0.00002   0.00002
 4 77   96037.9    104.1   0.000000000   0.00000   0.00048   0.00023   0.00031
 4 78   96040.2    104.1   0.000000000   0.00000   0.00004   0.00000   0.00001
 4 79   97777.8    102.3   0.000000000   0.00000   0.00003   0.00001   0.00002
 4 80   97777.9    102.3   0.000000000   0.00000   0.00013   0.00008   0.00006
 4 81   97779.0    102.3   0.000000000   0.00000   0.00001   0.00000   0.00001
 4 82   98873.8    101.1   0.000000000   0.00000   0.00001   0.00007   0.00012
 4 83   98874.1    101.1   0.000000000   0.00000   0.00069   0.00046   0.00044
 4 84   98897.6    101.1   0.000000000   0.00000   0.00006   0.00005   0.00004
 4 85   99200.2    100.8   0.000000000   0.00000   0.00001   0.00001   0.00004
 4 86   99223.8    100.8   0.000000000   0.00000   0.00007   0.00019   0.00039
 4 87   99225.1    100.8   0.000000000   0.00000   0.00019   0.00011   0.00008
 4 88   99381.6    100.6   0.000000000   0.00000   0.00000   0.00000   0.00000
 4 89   99382.8    100.6   0.000000000   0.00000   0.00005   0.00002   0.00002
 4 90   99382.8    100.6   0.000000000   0.00000   0.00000   0.00000   0.00001
 4 91  101068.8     98.9   0.000000000   0.00000   0.00001   0.00000   0.00001
 4 92  101069.0     98.9   0.000000000   0.00000   0.00000   0.00000   0.00000
 4 93  101070.6     98.9   0.000000000   0.00000   0.00001   0.00000   0.00001
 4 94  101072.2     98.9   0.000000000   0.00000   0.00000   0.00000   0.00000
 4 95  101072.5     98.9   0.000000000   0.00000   0.00002   0.00002   0.00004
 4 96  102880.8     97.2   0.000000000   0.00000   0.00001   0.00000   0.00001
 4 97  102881.4     97.2   0.000000000   0.00000   0.00005   0.00004   0.00010
 4 98  102882.5     97.2   0.000000000   0.00000   0.00001   0.00000   0.00001
 4 99  103605.9     96.5   0.000000000   0.00000   0.00001   0.00002   0.00001
 4 100  103606.7     96.5   0.000000000   0.00000   0.00000   0.00001   0.00000
 4 101  103608.4     96.5   0.000000000   0.00000   0.00006   0.00019   0.00007
 4 102  105414.5     94.9   0.000000000   0.00000   0.00049   0.00034   0.00029
 4 103  105419.1     94.9   0.000000000   0.00000   0.00005   0.00002   0.00002
 4 104  105419.9     94.9   0.000000000   0.00000   0.00006   0.00004   0.00003
 4 105  107114.5     93.4   0.000000000   0.00000   0.00019   0.00004   0.00015
 4 106  107115.1     93.4   0.000000000   0.00000   0.00000   0.00000   0.00000
 4 107  107116.1     93.4   0.000000000   0.00000   0.00002   0.00001   0.00002
 4 108  108460.7     92.2   0.000000000   0.00000   0.00001   0.00001   0.00001
 4 109  108462.0     92.2   0.000000000   0.00000   0.00000   0.00000   0.00000
 4 110  108463.4     92.2   0.000000000   0.00000   0.00000   0.00002   0.00000
 4 111  108468.5     92.2   0.000000000   0.00000   0.00000   0.00001   0.00000
 4 112  108468.6     92.2   0.000000000   0.00000   0.00002   0.00001   0.00001
 4 113  110027.4     90.9   0.000000000   0.00000   0.00004   0.00001   0.00003
 4 114  110029.9     90.9   0.000000000   0.00000   0.00007   0.00002   0.00005
 4 115  110039.0     90.9   0.000000000   0.00000   0.00053   0.00022   0.00045
 4 116  110537.3     90.5   0.000000000   0.00000   0.00000   0.00001   0.00002
 4 117  110538.8     90.5   0.000000000   0.00000   0.00002   0.00001   0.00001
 4 118  110558.6     90.4   0.000000000   0.00000   0.00001   0.00000   0.00001
 4 119  110567.2     90.4   0.000000000   0.00000   0.00004   0.00001   0.00004
 4 120  110571.6     90.4   0.000000000   0.00000   0.00003   0.00001   0.00000
 4 121  110846.1     90.2   0.000000000   0.00000   0.00002   0.00003   0.00000
 4 122  110847.2     90.2   0.000000000   0.00000   0.00001   0.00001   0.00000
 4 123  110848.8     90.2   0.000000000   0.00000   0.00012   0.00019   0.00005
 4 124  110882.9     90.2   0.000000000   0.00000   0.00008   0.00004   0.00001
 4 125  110889.5     90.2   0.000000000   0.00000   0.00000   0.00001   0.00000
 4 126  110903.1     90.2   0.000000000   0.00000   0.00006   0.00007   0.00001
 4 127  113016.9     88.5   0.000000000   0.00000   0.00003   0.00000   0.00001
 4 128  113021.0     88.5   0.000000000   0.00000   0.00004   0.00001   0.00002
 4 129  113034.8     88.5   0.000000000   0.00000   0.00027   0.00005   0.00003
 4 130  113837.9     87.8   0.000000000   0.00000   0.00024   0.00031   0.00016
 4 131  113841.1     87.8   0.000000000   0.00000   0.00002   0.00004   0.00004
 4 132  113841.9     87.8   0.000000000   0.00000   0.00002   0.00002   0.00000
 4 133  114049.4     87.7   0.000000000   0.00000   0.00007   0.00020   0.00006
 4 134  114049.7     87.7   0.000000000   0.00000   0.00030   0.00087   0.00024
 4 135  114050.2     87.7   0.000000000   0.00000   0.00002   0.00008   0.00003
 4 136  115190.4     86.8   0.000000000   0.00000   0.00028   0.00021   0.00016
 4 137  115194.8     86.8   0.000000000   0.00000   0.00000   0.00000   0.00002
 4 138  115196.0     86.8   0.000000000   0.00000   0.00006   0.00003   0.00000
 4 139  118086.3     84.7   0.000000000   0.00000   0.00001   0.00007   0.00002
 4 140  118088.1     84.7   0.000000000   0.00000   0.00001   0.00002   0.00001
 4 141  118088.9     84.7   0.000000000   0.00000   0.00015   0.00051   0.00011
 4 142  120646.4     82.9   0.000000000   0.00000   0.00008   0.00003   0.00009
 4 143  120647.4     82.9   0.000000000   0.00000   0.00112   0.00031   0.00100
 4 144  120648.4     82.9   0.000000000   0.00000   0.00016   0.00003   0.00011
 4 145  122185.2     81.8   0.000000000   0.00000   0.00060   0.00024   0.00033
 4 146  122185.3     81.8   0.000000000   0.00000   0.00002   0.00001   0.00001
 4 147  122188.0     81.8   0.000000000   0.00000   0.00008   0.00000   0.00003
 4 148  131298.8     76.2   0.000000000   0.00000   0.00025   0.00006   0.00001
 4 149  131299.5     76.2   0.000000000   0.00000   0.00000   0.00000   0.00000
 4 150  131300.1     76.2   0.000000000   0.00000   0.00004   0.00001   0.00000
 4 151  271617.5     36.8   0.000000000   0.00000   0.00000   0.00000   0.00000
 4 152  271617.6     36.8   0.000000000   0.00000   0.00002   0.00006   0.00002
 4 153  271617.6     36.8   0.000000000   0.00000   0.00000   0.00001   0.00000
 4 154  527443.6     19.0   0.000000000   0.00000   0.00006   0.00006   0.00009
 4 155  527443.6     19.0   0.000000000   0.00000   0.00001   0.00001   0.00001
 4 156  527443.6     19.0   0.000000000   0.00000   0.00001   0.00000   0.00001
 4 157 1267522.7      7.9   0.000000000   0.00000   0.00000   0.00001   0.00000
 4 158 1267522.7      7.9   0.000000000   0.00000   0.00000   0.00012   0.00000
 4 159 1267522.8      7.9   0.000000000   0.00000   0.00000   0.00001   0.00000

------------------------------------------------------------------------------
                           SOC CORRECTED DIPOLE MOMENTS
------------------------------------------------------------------------------
      TX        TY        TZ           |T|
   (Debye)   (Debye)   (Debye)      (Debye)
------------------------------------------------------------------------------
  -0.08237   0.26190   0.03715      0.27705

--------------
CASSCF TIMINGS
--------------

Total time                       ...     7610.0 sec
Sum of individual times          ...     7624.4 sec (100.2%)

Calculation of AO operators
   F(Core) operator              ...       23.1 sec (  0.3%)
   G(Act) operator               ...       22.2 sec (  0.3%)
   J(AO) operators               ...        0.0 sec (  0.0%)
Calculation of MO transformed quantities
   J(MO) operators               ...        2.5 sec (  0.0%)
   (pq|rs) integrals             ...        0.0 sec (  0.0%)
   AO->MO one electron integrals ...        0.1 sec (  0.0%)
Configuration interaction steps
   CI-setup phase                ...        0.0 sec (  0.0%)
   CI-solution phase             ...        0.1 sec (  0.0%)
   Generation of densities       ...        0.0 sec (  0.0%)
Orbital improvement steps
   Orbital gradient              ...        0.0 sec (  0.0%)
PT2 
   NEVPT2 time                   ...     7488.0 sec ( 98.4%)
Properties                       ...       68.2 sec (  0.9%)
   SOC integral calculation      ...       19.7 sec (  0.3%)
   SSC RMEs (incl. integrals)    ...        0.0 sec (  0.0%)
   SOC RMEs                      ...        0.6 sec (  0.0%)

Maximum memory used throughout the entire CASSCF-calculation: 1127.3 MB

-------------------------   --------------------
FINAL SINGLE POINT ENERGY     -2666.911597384637
-------------------------   --------------------


                            ***************************************
                            *     ORCA property calculations      *
                            ***************************************

                                    ---------------------
                                    Active property flags
                                    ---------------------
   (+) Dipole Moment


------------------------------------------------------------------------------
                       ORCA ELECTRIC PROPERTIES CALCULATION
------------------------------------------------------------------------------

Dipole Moment Calculation                       ... on
Quadrupole Moment Calculation                   ... off
Polarizability Calculation                      ... off
GBWName                                         ... nevpt2.gbw
Electron density                                ... nevpt2.scfp
The origin for moment calculation is the CENTER OF MASS  = (16.430052, 12.343233 14.883587)

-------------
DIPOLE MOMENT
-------------
                                X             Y             Z
Electronic contribution:      0.03132      -0.10179      -0.01375
Nuclear contribution   :     -0.03240       0.10304       0.01462
                        -----------------------------------------
Total Dipole Moment    :     -0.00108       0.00125       0.00086
                        -----------------------------------------
Magnitude (a.u.)       :      0.00186
Magnitude (Debye)      :      0.00474



--------------------
Rotational spectrum 
--------------------
 
Rotational constants in cm-1:     0.001440     0.001439     0.001210 
Rotational constants in MHz :    43.175280    43.133640    36.285925 

 Dipole components along the rotational axes: 
x,y,z [a.u.] :     0.001639     0.000881    -0.000099 
x,y,z [Debye]:     0.004165     0.002238    -0.000251 

 

Timings for individual modules:

Sum of individual times         ...     7624.770 sec (= 127.080 min)
GTO integral calculation        ...        7.380 sec (=   0.123 min)   0.1 %
SCF iterations                  ...        2.819 sec (=   0.047 min)   0.0 %
CASSCF iterations               ...     7614.571 sec (= 126.910 min)  99.9 %
                             ****ORCA TERMINATED NORMALLY****
TOTAL RUN TIME: 0 days 2 hours 7 minutes 5 seconds 981 msec
