
                                 *****************
                                 * O   R   C   A *
                                 *****************

                                            #,                                       
                                            ###                                      
                                            ####                                     
                                            #####                                    
                                            ######                                   
                                           ########,                                 
                                     ,,################,,,,,                         
                               ,,#################################,,                 
                          ,,##########################################,,             
                       ,#########################################, ''#####,          
                    ,#############################################,,   '####,        
                  ,##################################################,,,,####,       
                ,###########''''           ''''###############################       
              ,#####''   ,,,,##########,,,,          '''####'''          '####       
            ,##' ,,,,###########################,,,                        '##       
           ' ,,###''''                  '''############,,,                           
         ,,##''                                '''############,,,,        ,,,,,,###''
      ,#''                                            '''#######################'''  
     '                                                          ''''####''''         
             ,#######,   #######,   ,#######,      ##                                
            ,#'     '#,  ##    ##  ,#'     '#,    #''#        ######   ,####,        
            ##       ##  ##   ,#'  ##            #'  '#       #        #'  '#        
            ##       ##  #######   ##           ,######,      #####,   #    #        
            '#,     ,#'  ##    ##  '#,     ,#' ,#      #,         ##   #,  ,#        
             '#######'   ##     ##  '#######'  #'      '#     #####' # '####'        



                  #######################################################
                  #                        -***-                        #
                  #          Department of theory and spectroscopy      #
                  #    Directorship and core code : Frank Neese         #
                  #        Max Planck Institute fuer Kohlenforschung    #
                  #                Kaiser Wilhelm Platz 1               #
                  #                 D-45470 Muelheim/Ruhr               #
                  #                      Germany                        #
                  #                                                     #
                  #                  All rights reserved                #
                  #                        -***-                        #
                  #######################################################


                         Program Version 5.0.3 -  RELEASE  -


 With contributions from (in alphabetic order):
   Daniel Aravena         : Magnetic Suceptibility
   Michael Atanasov       : Ab Initio Ligand Field Theory (pilot matlab implementation)
   Alexander A. Auer      : GIAO ZORA, VPT2 properties, NMR spectrum
   Ute Becker             : Parallelization
   Giovanni Bistoni       : ED, misc. LED, open-shell LED, HFLD
   Martin Brehm           : Molecular dynamics
   Dmytro Bykov           : SCF Hessian
   Vijay G. Chilkuri      : MRCI spin determinant printing, contributions to CSF-ICE
   Dipayan Datta          : RHF DLPNO-CCSD density
   Achintya Kumar Dutta   : EOM-CC, STEOM-CC
   Dmitry Ganyushin       : Spin-Orbit,Spin-Spin,Magnetic field MRCI
   Miquel Garcia          : C-PCM and meta-GGA Hessian, CC/C-PCM, Gaussian charge scheme
   Yang Guo               : DLPNO-NEVPT2, F12-NEVPT2, CIM, IAO-localization
   Andreas Hansen         : Spin unrestricted coupled pair/coupled cluster methods
   Benjamin Helmich-Paris : MC-RPA, TRAH-SCF, COSX integrals
   Lee Huntington         : MR-EOM, pCC
   Robert Izsak           : Overlap fitted RIJCOSX, COSX-SCS-MP3, EOM
   Marcus Kettner         : VPT2
   Christian Kollmar      : KDIIS, OOCD, Brueckner-CCSD(T), CCSD density, CASPT2, CASPT2-K
   Simone Kossmann        : Meta GGA functionals, TD-DFT gradient, OOMP2, MP2 Hessian
   Martin Krupicka        : Initial AUTO-CI
   Lucas Lang             : DCDCAS
   Marvin Lechner         : AUTO-CI (C++ implementation), FIC-MRCC
   Dagmar Lenk            : GEPOL surface, SMD
   Dimitrios Liakos       : Extrapolation schemes; Compound Job, initial MDCI parallelization
   Dimitrios Manganas     : Further ROCIS development; embedding schemes
   Dimitrios Pantazis     : SARC Basis sets
   Anastasios Papadopoulos: AUTO-CI, single reference methods and gradients
   Taras Petrenko         : DFT Hessian,TD-DFT gradient, ASA, ECA, R-Raman, ABS, FL, XAS/XES, NRVS
   Peter Pinski           : DLPNO-MP2, DLPNO-MP2 Gradient
   Christoph Reimann      : Effective Core Potentials
   Marius Retegan         : Local ZFS, SOC
   Christoph Riplinger    : Optimizer, TS searches, QM/MM, DLPNO-CCSD(T), (RO)-DLPNO pert. Triples
   Tobias Risthaus        : Range-separated hybrids, TD-DFT gradient, RPA, STAB
   Michael Roemelt        : Original ROCIS implementation
   Masaaki Saitow         : Open-shell DLPNO-CCSD energy and density
   Barbara Sandhoefer     : DKH picture change effects
   Avijit Sen             : IP-ROCIS
   Kantharuban Sivalingam : CASSCF convergence, NEVPT2, FIC-MRCI
   Bernardo de Souza      : ESD, SOC TD-DFT
   Georgi Stoychev        : AutoAux, RI-MP2 NMR, DLPNO-MP2 response
   Willem Van den Heuvel  : Paramagnetic NMR
   Boris Wezisla          : Elementary symmetry handling
   Frank Wennmohs         : Technical directorship


 We gratefully acknowledge several colleagues who have allowed us to
 interface, adapt or use parts of their codes:
   Stefan Grimme, W. Hujo, H. Kruse, P. Pracht,  : VdW corrections, initial TS optimization,
                  C. Bannwarth, S. Ehlert          DFT functionals, gCP, sTDA/sTD-DF
   Ed Valeev, F. Pavosevic, A. Kumar             : LibInt (2-el integral package), F12 methods
   Garnet Chan, S. Sharma, J. Yang, R. Olivares  : DMRG
   Ulf Ekstrom                                   : XCFun DFT Library
   Mihaly Kallay                                 : mrcc  (arbitrary order and MRCC methods)
   Jiri Pittner, Ondrej Demel                    : Mk-CCSD
   Frank Weinhold                                : gennbo (NPA and NBO analysis)
   Christopher J. Cramer and Donald G. Truhlar   : smd solvation model
   Lars Goerigk                                  : TD-DFT with DH, B97 family of functionals
   V. Asgeirsson, H. Jonsson                     : NEB implementation
   FAccTs GmbH                                   : IRC, NEB, NEB-TS, DLPNO-Multilevel, CI-OPT
                                                   MM, QMMM, 2- and 3-layer-ONIOM, Crystal-QMMM,
                                                   LR-CPCM, SF, NACMEs, symmetry and pop. for TD-DFT,
                                                   nearIR, NL-DFT gradient (VV10), updates on ESD,
                                                   ML-optimized integration grids
   S Lehtola, MJT Oliveira, MAL Marques          : LibXC Library
   Liviu Ungur et al                             : ANISO software


 Your calculation uses the libint2 library for the computation of 2-el integrals
 For citations please refer to: http://libint.valeyev.net

 Your ORCA version has been built with support for libXC version: 5.1.0
 For citations please refer to: https://tddft.org/programs/libxc/

 This ORCA versions uses:
   CBLAS   interface :  Fast vector & matrix operations
   LAPACKE interface :  Fast linear algebra routines
   SCALAPACK package :  Parallel linear algebra routines
   Shared memory     :  Shared parallel matrices
   BLAS/LAPACK       :  OpenBLAS 0.3.15  USE64BITINT DYNAMIC_ARCH NO_AFFINITY Haswell SINGLE_THREADED
        Core in use  :  Haswell
   Copyright (c) 2011-2014, The OpenBLAS Project




***************************************
The coordinates will be read from file: 3.xyz
***************************************


================================================================================

cite the ECPs for Au [Def2-ECP] as follows:
Ce-Yb(ecp-28): M. Dolg, H. Stoll, H.Preuss, J. Chem. Phys., 1989, 90, 1730-1734.
Y-Cd(ecp-28), Hf-Hg(ecp-46): D. Andrae,U. Haeussermann, M. Dolg, H. Stoll, H. Preuss, Theor. Chim. Acta, 1990, 77, 123-141.
In-Sb(ecp-28), Tl-Bi(ecp-46): B. Metz, H. Stoll, M. Dolg, J. Chem. Phys., 2000, 113, 2563-2569.
Te-Xe(ecp-28), Po-Rn(ecp-46): K. A. Peterson, D. Figgen, E. Goll, H. Stoll, M. Dolg, J. Chem. Phys., 2003, 119, 11113-11123.
Rb(ecp-28), Cs(ecp-46): T. Leininger, A. Nicklass, W. Kuechle, H. Stoll, M. Dolg, A. Bergner, Chem. Phys. Lett., 1996, 255, 274-280.
Sr(ecp-28), Ba(ecp-46): M. Kaupp, P. V. Schleyer, H. Stoll and H. Preuss, J. Chem. Phys., 1991, 94, 1360-1366.
La(ecp-46): M. Dolg, H. Stoll, A. Savin, H. Preuss, Theor. Chim. Acta, 1989, 75, 173-194.
Lu(ecp-28): X. Cao, M. Dolg, J. Chem. Phys., 2001, 115, 7348-7355.

ECP parameters for Au [Def2-ECP] have been obtained from:
TURBOMOLE (7.0.2)

----- Orbital basis set information -----
Your calculation utilizes the basis: def2-TZVP
   F. Weigend and R. Ahlrichs, Phys. Chem. Chem. Phys. 7, 3297 (2005).

----- AuxJ basis set information -----
Your calculation utilizes the auxiliary basis: def2/J
   F. Weigend, Phys. Chem. Chem. Phys. 8, 1057 (2006).

================================================================================
                                        WARNINGS
                       Please study these warnings very carefully!
================================================================================


WARNING: your system is open-shell and RHF/RKS was chosen
  ===> : WILL SWITCH to UHF/UKS


WARNING: Geometry Optimization
  ===> : Switching off AutoStart
         For restart on a previous wavefunction, please use MOREAD

INFO   : the flag for use of the SHARK integral package has been found!

================================================================================
                                       INPUT FILE
================================================================================
NAME = pbe.inp
|  1> %pal nprocs 1 end 
|  2> 
|  3> !PBE def2-TZVP OPT UNO
|  4> !SLOWCONV KDIIS 
|  5> 
|  6> %geom maxiter 300 end
|  7> 
|  8> *xyzfile 0 3 3.xyz                           ****END OF INPUT****
================================================================================

                       *****************************
                       * Geometry Optimization Run *
                       *****************************

Geometry optimization settings:
Update method            Update   .... BFGS
Choice of coordinates    CoordSys .... Z-matrix Internals
Initial Hessian          InHess   .... Almoef's Model

Convergence Tolerances:
Energy Change            TolE     ....  5.0000e-06 Eh
Max. Gradient            TolMAXG  ....  3.0000e-04 Eh/bohr
RMS Gradient             TolRMSG  ....  1.0000e-04 Eh/bohr
Max. Displacement        TolMAXD  ....  4.0000e-03 bohr
RMS Displacement         TolRMSD  ....  2.0000e-03 bohr
Strict Convergence                ....  False
------------------------------------------------------------------------------
                        ORCA OPTIMIZATION COORDINATE SETUP
------------------------------------------------------------------------------

The optimization will be done in new redundant internal coordinates
Making redundant internal coordinates   ...  (new redundants) done
Evaluating the initial hessian          ...  (Almloef) done
Evaluating the coordinates              ...  done
Calculating the B-matrix                .... done
Calculating the G-matrix                .... done
Diagonalizing the G-matrix              .... done
The first mode is                       ....  221
The number of degrees of freedom        ....   33

    -----------------------------------------------------------------
                    Redundant Internal Coordinates


    -----------------------------------------------------------------
         Definition                    Initial Value    Approx d2E/dq
    -----------------------------------------------------------------
      1. B(Au  3,Au  0)                  2.9010         0.004701   
      2. B(Au  4,Au  0)                  2.6941         0.010054   
      3. B(Au  5,Au  0)                  2.8173         0.006394   
      4. B(Au  5,Au  3)                  2.8310         0.006079   
      5. B(Au  6,Au  5)                  2.8311         0.006077   
      6. B(Au 10,Au  1)                  2.8070         0.006639   
      7. B(Au 10,Au  9)                  2.8603         0.005460   
      8. B(Au 10,Au  8)                  2.8072         0.006635   
      9. B(Au 10,Au  2)                  2.8601         0.005463   
     10. B(Au 11,Au  7)                  2.6943         0.010047   
     11. B(Au 11,Au  6)                  2.9011         0.004699   
     12. B(Au 11,Au  0)                  2.8593         0.005479   
     13. B(Au 11,Au  5)                  2.8174         0.006390   
     14. B(Cr 12,Au  8)                  2.5402         0.128648   
     15. B(Cr 12,Au  7)                  2.5512         0.123563   
     16. B(Cr 12,Au  3)                  2.6074         0.100493   
     17. B(Cr 12,Au  6)                  2.6071         0.100622   
     18. B(Cr 12,Au 10)                  3.1542         0.013481   
     19. B(Cr 12,Au  9)                  2.5669         0.116636   
     20. B(Cr 12,Au  4)                  2.5511         0.123572   
     21. B(Cr 12,Au  2)                  2.5672         0.116511   
     22. B(Cr 12,Au  1)                  2.5398         0.128813   
     23. A(Au  3,Au  0,Au 11)           92.0341         0.132005   
     24. A(Au  5,Au  0,Au 11)           59.5087         0.135106   
     25. A(Au  4,Au  0,Au  5)          116.6777         0.141895   
     26. A(Au  4,Au  0,Au 11)           94.0177         0.140079   
     27. A(Au  3,Au  0,Au  4)           66.4950         0.138338   
     28. A(Au  3,Au  0,Au  5)           59.3287         0.133534   
     29. A(Au 10,Au  1,Cr 12)           72.1062         0.195568   
     30. A(Au 10,Au  2,Cr 12)           70.8324         0.188675   
     31. A(Au  0,Au  3,Au  5)           58.8632         0.133029   
     32. A(Au  0,Au  3,Cr 12)           91.2088         0.182172   
     33. A(Au  5,Au  3,Cr 12)          104.5023         0.187755   
     34. A(Au  0,Au  4,Cr 12)           97.3866         0.204965   
     35. A(Au  6,Au  5,Au 11)           61.8079         0.136193   
     36. A(Au  0,Au  5,Au  3)           61.8082         0.136203   
     37. A(Au  3,Au  5,Au  6)           65.5159         0.135663   
     38. A(Au  0,Au  5,Au  6)           94.3862         0.136199   
     39. A(Au  3,Au  5,Au 11)           94.4139         0.136197   
     40. A(Au  0,Au  5,Au 11)           60.9874         0.136739   
     41. A(Au 11,Au  6,Cr 12)           91.2383         0.182190   
     42. A(Au  5,Au  6,Cr 12)          104.5088         0.187775   
     43. A(Au  5,Au  6,Au 11)           58.8641         0.133021   
     44. A(Au 11,Au  7,Cr 12)           97.4094         0.204947   
     45. A(Au 10,Au  8,Cr 12)           72.0980         0.195520   
     46. A(Au 10,Au  9,Cr 12)           70.8338         0.188687   
     47. A(Au  9,Au 10,Cr 12)           50.2353         0.150170   
     48. A(Au  2,Au 10,Cr 12)           50.2426         0.150178   
     49. A(Au  1,Au 10,Cr 12)           50.0197         0.152939   
     50. A(Au  8,Au 10,Au  9)           65.8968         0.135456   
     51. A(Au  2,Au 10,Au  9)           62.9023         0.133457   
     52. A(Au  1,Au 10,Au  9)          100.1587         0.135463   
     53. A(Au  2,Au 10,Au  8)          100.1739         0.135462   
     54. A(Au  1,Au 10,Au  8)           68.2035         0.137559   
     55. A(Au  1,Au 10,Au  2)           65.8729         0.135469   
     56. A(Au  8,Au 10,Cr 12)           50.0260         0.152929   
     57. A(Au  0,Au 11,Au  6)           92.0043         0.132001   
     58. A(Au  5,Au 11,Au  7)          116.6551         0.141882   
     59. A(Au  5,Au 11,Au  6)           59.3280         0.133525   
     60. A(Au  6,Au 11,Au  7)           66.4930         0.138327   
     61. A(Au  0,Au 11,Au  5)           59.5038         0.135100   
     62. A(Au  0,Au 11,Au  7)           93.9528         0.140072   
     63. A(Au  2,Cr 12,Au  8)          116.6724         0.317519   
     64. A(Au  1,Cr 12,Au  8)           76.5779         0.322771   
     65. A(Au  1,Cr 12,Au  6)          105.9217         0.310125   
     66. A(Au  9,Cr 12,Au 10)           58.9309         0.226181   
     67. A(Au  6,Cr 12,Au  7)           73.1090         0.308052   
     68. A(Au  7,Cr 12,Au 10)          122.0256         0.227984   
     69. A(Au  6,Cr 12,Au 10)          120.7786         0.221671   
     70. A(Au  4,Cr 12,Au 10)          122.0083         0.227986   
     71. A(Au  8,Cr 12,Au  9)           74.2590         0.317575   
     72. A(Au  8,Cr 12,Au 10)           57.8760         0.229258   
     73. A(Au  4,Cr 12,Au  7)           78.6608         0.318479   
     74. A(Au  3,Cr 12,Au  4)           73.1015         0.307992   
     75. A(Au  2,Cr 12,Au  3)          108.4581         0.305095   
     76. A(Au  3,Cr 12,Au 10)          120.7774         0.221633   
     77. A(Au  2,Cr 12,Au 10)           58.9250         0.226147   
     78. A(Au  7,Cr 12,Au  9)           63.3198         0.315498   
     79. A(Au  1,Cr 12,Au 10)           57.8741         0.229299   
     80. A(Au  6,Cr 12,Au  9)          108.4823         0.305210   
     81. A(Au  3,Cr 12,Au  7)          117.0028         0.307988   
     82. A(Au  4,Cr 12,Au  9)          106.7174         0.315502   
     83. A(Au  2,Cr 12,Au  9)           71.0934         0.312505   
     84. A(Au  2,Cr 12,Au  7)          106.7380         0.315443   
     85. A(Au  2,Cr 12,Au  4)           63.3075         0.315447   
     86. A(Au  1,Cr 12,Au  9)          116.6741         0.317642   
     87. A(Au  7,Cr 12,Au  8)          102.3915         0.320579   
     88. A(Au  4,Cr 12,Au  6)          117.0173         0.308056   
     89. A(Au  6,Cr 12,Au  8)           63.0097         0.310061   
     90. A(Au  3,Cr 12,Au  8)          105.9173         0.309997   
     91. A(Au  3,Cr 12,Au  6)           71.9660         0.298042   
     92. A(Au  1,Cr 12,Au  4)          102.3657         0.320650   
     93. A(Au  1,Cr 12,Au  3)           63.0107         0.310061   
     94. A(Au  1,Cr 12,Au  2)           74.2268         0.317586   
     95. D(Au  5,Au  3,Au  0,Au  4)   -145.8088         0.001501   
     96. D(Cr 12,Au  3,Au  0,Au  5)    106.2533         0.001501   
     97. D(Cr 12,Au  3,Au  0,Au  4)    -39.5555         0.001501   
     98. D(Cr 12,Au  3,Au  0,Au 11)     53.9420         0.001501   
     99. D(Au  5,Au  3,Au  0,Au 11)    -52.3113         0.001501   
    100. D(Cr 12,Au  4,Au  0,Au  5)      8.2619         0.001503   
    101. D(Cr 12,Au  4,Au  0,Au  3)     41.0086         0.001503   
    102. D(Cr 12,Au  4,Au  0,Au 11)    -49.4643         0.001503   
    103. D(Au 11,Au  5,Au  3,Au  0)     53.6090         0.001501   
    104. D(Au  3,Au  5,Au  0,Au 11)    113.3983         0.001501   
    105. D(Au  6,Au  5,Au  3,Au  0)    109.8428         0.001501   
    106. D(Au  3,Au  5,Au  0,Au  4)     35.2203         0.001501   
    107. D(Au  6,Au  5,Au  0,Au  3)    -59.1550         0.001501   
    108. D(Au  6,Au  5,Au  3,Cr 12)     27.3588         0.001501   
    109. D(Au 11,Au  5,Au  3,Cr 12)    -28.8751         0.001501   
    110. D(Au 11,Au  5,Au  0,Au  3)   -113.3983         0.001501   
    111. D(Au  6,Au  5,Au  0,Au 11)     54.2432         0.001501   
    112. D(Au  0,Au  5,Au  3,Cr 12)    -82.4840         0.001501   
    113. D(Au 11,Au  5,Au  0,Au  4)    -78.1779         0.001501   
    114. D(Au  6,Au  5,Au  0,Au  4)    -23.9347         0.001501   
    115. D(Cr 12,Au  6,Au  5,Au  3)    -27.3636         0.001501   
    116. D(Au  5,Au  6,Au  2,Au 10)    143.9118         0.001500   
    117. D(Cr 12,Au  6,Au  5,Au  0)     28.8872         0.001501   
    118. D(Au 11,Au  6,Au  2,Au 10)   -158.0088         0.001500   
    119. D(Cr 12,Au  6,Au  5,Au 11)     82.5160         0.001501   
    120. D(Au 11,Au  6,Au  5,Au  3)   -109.8796         0.001501   
    121. D(Au 11,Au  6,Au  5,Au  0)    -53.6289         0.001501   
    122. D(Au 11,Au  7,Au  1,Au 10)    161.3487         0.001500   
    123. D(Au 10,Au  8,Au  4,Au  0)   -161.3938         0.001500   
    124. D(Au 10,Au  9,Au  3,Au  0)    158.0382         0.001500   
    125. D(Au 10,Au  9,Au  3,Au  5)   -143.8942         0.001500   
    126. D(Au  8,Au 10,Au  9,Cr 12)     57.0901         0.001501   
    127. D(Au  2,Au 10,Au  9,Cr 12)    -59.4155         0.001501   
    128. D(Au  1,Au 10,Au  9,Cr 12)     -3.3442         0.001501   
    129. D(Au  9,Au 10,Au  8,Cr 12)    -57.3617         0.001501   
    130. D(Au  9,Au 10,Au  2,Cr 12)     59.4053         0.001501   
    131. D(Au  8,Au 10,Au  2,Cr 12)      3.3152         0.001501   
    132. D(Au  1,Au 10,Au  2,Cr 12)    -57.0988         0.001501   
    133. D(Au  9,Au 10,Au  1,Cr 12)      3.3547         0.001501   
    134. D(Au  1,Au 10,Au  8,Cr 12)     55.4069         0.001501   
    135. D(Au  2,Au 10,Au  1,Cr 12)     57.3881         0.001501   
    136. D(Au  8,Au 10,Au  1,Cr 12)    -55.4145         0.001501   
    137. D(Au  2,Au 10,Au  8,Cr 12)     -3.3257         0.001501   
    138. D(Au  0,Au 11,Au  6,Au  5)     52.3280         0.001501   
    139. D(Au  7,Au 11,Au  5,Au  0)     78.1049         0.001501   
    140. D(Au  0,Au 11,Au  5,Au  3)    -54.2230         0.001501   
    141. D(Au  7,Au 11,Au  0,Au  5)   -118.7630         0.001501   
    142. D(Au  7,Au 11,Au  0,Au  4)     -0.0155         0.001501   
    143. D(Au  7,Au 11,Au  0,Au  3)    -66.5891         0.001501   
    144. D(Au  6,Au 11,Au  0,Au  5)    -52.1937         0.001501   
    145. D(Au  5,Au 11,Au  0,Au  3)     52.1739         0.001501   
    146. D(Au  6,Au 11,Au  0,Au  4)     66.5539         0.001501   
    147. D(Au  5,Au 11,Au  0,Au  4)    118.7476         0.001501   
    148. D(Au  6,Au 11,Au  0,Au  3)     -0.0198         0.001501   
    149. D(Au  6,Au 11,Au  5,Au  0)    113.3594         0.001501   
    150. D(Au  6,Au 11,Au  5,Au  3)     59.1363         0.001501   
    151. D(Au  0,Au 11,Au  5,Au  6)   -113.3594         0.001501   
    152. D(Au  7,Au 11,Au  5,Au  3)     23.8818         0.001501   
    153. D(Au  0,Au 11,Au  6,Cr 12)    -53.9146         0.001501   
    154. D(Au  7,Au 11,Au  6,Au  5)    145.7676         0.001501   
    155. D(Au  7,Au 11,Au  6,Cr 12)     39.5251         0.001501   
    156. D(Au  5,Au 11,Au  6,Cr 12)   -106.2426         0.001501   
    157. D(Au  7,Au 11,Au  5,Au  6)    -35.2545         0.001501   
    158. D(Au  5,Au 11,Au  7,Cr 12)     -8.1935         0.001503   
    159. D(Au  6,Au 11,Au  7,Cr 12)    -40.9717         0.001503   
    160. D(Au  0,Au 11,Au  7,Cr 12)     49.4967         0.001503   
    161. D(Au  9,Cr 12,Au  8,Au 10)     62.8621         0.001569   
    162. D(Au  7,Cr 12,Au  8,Au 10)    120.2085         0.001569   
    163. D(Au  6,Cr 12,Au  8,Au 10)   -176.2624         0.001569   
    164. D(Au  2,Cr 12,Au  8,Au 10)      4.0825         0.001569   
    165. D(Au  1,Cr 12,Au  8,Au 10)    -60.2835         0.001569   
    166. D(Au 10,Cr 12,Au  7,Au 11)    160.5263         0.001564   
    167. D(Au  8,Cr 12,Au  7,Au 11)    100.8405         0.001564   
    168. D(Au  6,Cr 12,Au  7,Au 11)     44.3674         0.001564   
    169. D(Au  4,Cr 12,Au  7,Au 11)    -78.6629         0.001564   
    170. D(Au  3,Cr 12,Au  7,Au 11)    -14.4435         0.001564   
    171. D(Au  2,Cr 12,Au  7,Au 11)   -136.0662         0.001564   
    172. D(Au 10,Cr 12,Au  6,Au  5)    144.1545         0.001545   
    173. D(Au 10,Cr 12,Au  6,Au 11)   -157.7587         0.001545   
    174. D(Au  9,Cr 12,Au  6,Au 11)    -93.4968         0.001545   
    175. D(Au  8,Cr 12,Au  6,Au  5)    147.8387         0.001545   
    176. D(Au  8,Cr 12,Au  6,Au 11)   -154.0745         0.001545   
    177. D(Au  7,Cr 12,Au  6,Au 11)    -40.1000         0.001545   
    178. D(Au  4,Cr 12,Au  6,Au  5)    -30.8608         0.001545   
    179. D(Au  4,Cr 12,Au  6,Au 11)     27.2260         0.001545   
    180. D(Au  3,Cr 12,Au  6,Au 11)     86.6183         0.001545   
    181. D(Au  1,Cr 12,Au  6,Au  5)     82.4322         0.001545   
    182. D(Au  1,Cr 12,Au  6,Au 11)    140.5190         0.001545   
    183. D(Au 10,Cr 12,Au  4,Au  0)   -160.5564         0.001564   
    184. D(Au  9,Cr 12,Au  4,Au  0)    136.0408         0.001564   
    185. D(Au  7,Cr 12,Au  4,Au  0)     78.6147         0.001564   
    186. D(Au  6,Cr 12,Au  4,Au  0)     14.3930         0.001564   
    187. D(Au  3,Cr 12,Au  4,Au  0)    -44.4025         0.001564   
    188. D(Au  2,Cr 12,Au  4,Au  0)   -165.9438         0.001564   
    189. D(Au  1,Cr 12,Au  4,Au  0)   -100.8863         0.001564   
    190. D(Au 10,Cr 12,Au  3,Au  5)   -144.1561         0.001545   
    191. D(Au 10,Cr 12,Au  3,Au  0)    157.7658         0.001545   
    192. D(Au  8,Cr 12,Au  3,Au  5)    -82.4339         0.001545   
    193. D(Au  8,Cr 12,Au  3,Au  0)   -140.5120         0.001545   
    194. D(Au  7,Cr 12,Au  3,Au  5)     30.8803         0.001545   
    195. D(Au  7,Cr 12,Au  3,Au  0)    -27.1978         0.001545   
    196. D(Au  3,Cr 12,Au  6,Au  5)     28.5316         0.001545   
    197. D(Au  6,Cr 12,Au  3,Au  5)    -28.5317         0.001545   
    198. D(Au  6,Cr 12,Au  3,Au  0)    -86.6098         0.001545   
    199. D(Au  4,Cr 12,Au  3,Au  5)     98.2091         0.001545   
    200. D(Au  7,Cr 12,Au  6,Au  5)    -98.1868         0.001545   
    201. D(Au  4,Cr 12,Au  3,Au  0)     40.1310         0.001545   
    202. D(Au  2,Cr 12,Au  3,Au  5)    151.6011         0.001545   
    203. D(Au  2,Cr 12,Au  3,Au  0)     93.5230         0.001545   
    204. D(Au  9,Cr 12,Au  6,Au  5)   -151.5836         0.001545   
    205. D(Au  9,Cr 12,Au 10,Au  8)    -90.2476         0.001501   
    206. D(Au  1,Cr 12,Au  3,Au  5)   -147.8440         0.001545   
    207. D(Au  1,Cr 12,Au  3,Au  0)    154.0779         0.001545   
    208. D(Au  8,Cr 12,Au 10,Au  2)    175.7404         0.001501   
    209. D(Au  9,Cr 12,Au  2,Au 10)    -64.5011         0.001557   
    210. D(Au  8,Cr 12,Au  2,Au 10)     -4.0366         0.001557   
    211. D(Au  7,Cr 12,Au 10,Au  8)    -84.6138         0.001501   
    212. D(Au  9,Cr 12,Au  7,Au 11)    165.9262         0.001564   
    213. D(Au  7,Cr 12,Au 10,Au  2)     91.1266         0.001501   
    214. D(Au  7,Cr 12,Au  2,Au 10)   -117.7300         0.001557   
    215. D(Au  4,Cr 12,Au  2,Au 10)    174.6664         0.001557   
    216. D(Au  3,Cr 12,Au  8,Au 10)   -116.6948         0.001569   
    217. D(Au  6,Cr 12,Au 10,Au  2)    179.6171         0.001501   
    218. D(Au  3,Cr 12,Au  2,Au 10)    115.3846         0.001557   
    219. D(Au  1,Cr 12,Au  2,Au 10)     61.6439         0.001557   
    220. D(Au  1,Cr 12,Au  9,Au 10)      4.0725         0.001557   
    221. D(Au  4,Cr 12,Au 10,Au  8)    178.6392         0.001501   
    222. D(Au  4,Cr 12,Au 10,Au  2)     -5.6204         0.001501   
    223. D(Au  9,Cr 12,Au  1,Au 10)     -4.1191         0.001569   
    224. D(Au  8,Cr 12,Au  1,Au 10)     60.2855         0.001569   
    225. D(Au  3,Cr 12,Au 10,Au  2)    -94.0904         0.001501   
    226. D(Au  6,Cr 12,Au  1,Au 10)    116.6937         0.001569   
    227. D(Au  3,Cr 12,Au 10,Au  1)     -3.8807         0.001501   
    228. D(Au  2,Cr 12,Au 10,Au  9)    -85.4928         0.001501   
    229. D(Au  4,Cr 12,Au  1,Au 10)   -120.2036         0.001569   
    230. D(Au  2,Cr 12,Au 10,Au  8)   -175.7404         0.001501   
    231. D(Au  2,Cr 12,Au 10,Au  1)     90.2097         0.001501   
    232. D(Au  3,Cr 12,Au  1,Au 10)    176.2586         0.001569   
    233. D(Au  1,Cr 12,Au 10,Au  9)   -175.7025         0.001501   
    234. D(Au  3,Cr 12,Au 10,Au  8)     90.1692         0.001501   
    235. D(Au  3,Cr 12,Au 10,Au  9)   -179.5832         0.001501   
    236. D(Au  4,Cr 12,Au 10,Au  1)     84.5893         0.001501   
    237. D(Au  1,Cr 12,Au 10,Au  8)     94.0499         0.001501   
    238. D(Au  2,Cr 12,Au  1,Au 10)    -62.8731         0.001569   
    239. D(Au  4,Cr 12,Au 10,Au  9)    -91.1132         0.001501   
    240. D(Au  6,Cr 12,Au 10,Au  1)    -90.1732         0.001501   
    241. D(Au  1,Cr 12,Au 10,Au  2)    -90.2097         0.001501   
    242. D(Au  6,Cr 12,Au 10,Au  8)      3.8767         0.001501   
    243. D(Au  6,Cr 12,Au 10,Au  9)     94.1243         0.001501   
    244. D(Au  7,Cr 12,Au 10,Au  1)   -178.6637         0.001501   
    245. D(Au  8,Cr 12,Au  9,Au 10)    -61.6289         0.001557   
    246. D(Au  7,Cr 12,Au  9,Au 10)   -174.6553         0.001557   
    247. D(Au  7,Cr 12,Au 10,Au  9)      5.6338         0.001501   
    248. D(Au  8,Cr 12,Au 10,Au  1)    -94.0499         0.001501   
    249. D(Au  6,Cr 12,Au  9,Au 10)   -115.3742         0.001557   
    250. D(Au  8,Cr 12,Au 10,Au  9)     90.2476         0.001501   
    251. D(Au  9,Cr 12,Au 10,Au  1)    175.7025         0.001501   
    252. D(Au  9,Cr 12,Au 10,Au  2)     85.4928         0.001501   
    253. D(Au  4,Cr 12,Au  9,Au 10)    117.7208         0.001557   
    254. D(Au  2,Cr 12,Au  9,Au 10)     64.4936         0.001557   
    -----------------------------------------------------------------

Number of atoms                         .... 13
Number of degrees of freedom            .... 254

         *************************************************************
         *                GEOMETRY OPTIMIZATION CYCLE   1            *
         *************************************************************
---------------------------------
CARTESIAN COORDINATES (ANGSTROEM)
---------------------------------
  Au     5.859597    9.986106    7.932658
  Au    10.318353    7.472369    6.732348
  Au     8.001488    5.465706    6.413322
  Au     8.677071    9.472498    7.470085
  Au     6.360344    7.512118    6.990972
  Au     7.821258   11.124414    9.603980
  Au     8.894185    8.630873   10.407956
  Au     6.588928    6.624303   10.092100
  Au    10.541843    6.608072    9.750826
  Au     8.212243    4.645774    9.275496
  Au    10.521616    4.809174    7.595810
  Au     6.062274    9.201552   10.674750
  Cr     8.441955    7.043932    8.389558

----------------------------
CARTESIAN COORDINATES (A.U.)
----------------------------
  NO LB      ZA    FRAG     MASS         X           Y           Z
   0 Au   19.0000*   0   196.966   11.073034   18.871006   14.990551
   1 Au   19.0000*   0   196.966   19.498861   14.120731   12.722295
   2 Au   19.0000*   0   196.966   15.120620   10.328687   12.119423
   3 Au   19.0000*   0   196.966   16.397288   17.900426   14.116415
   4 Au   19.0000*   0   196.966   12.019309   14.195845   13.211023
   5 Au   19.0000*   0   196.966   14.780035   21.022097   18.148892
   6 Au   19.0000*   0   196.966   16.807573   16.309986   19.668187
   7 Au   19.0000*   0   196.966   12.451270   12.518119   19.071306
   8 Au   19.0000*   0   196.966   19.921197   12.487447   18.426390
   9 Au   19.0000*   0   196.966   15.518891    8.779240   17.528148
  10 Au   19.0000*   0   196.966   19.882972    9.088021   14.354001
  11 Au   19.0000*   0   196.966   11.456037   17.388414   20.172354
  12 Cr   24.0000    0    52.000   15.952983   13.311103   15.853968
* core charge reduced due to ECP

--------------------------------
INTERNAL COORDINATES (ANGSTROEM)
--------------------------------
 Au     0   0   0     0.000000000000     0.00000000     0.00000000
 Au     1   0   0     5.257387251004     0.00000000     0.00000000
 Au     2   1   0     3.081612854836    72.38360957     0.00000000
 Au     2   1   3     2.690460395197    20.70315462   179.42613891
 Au     3   2   1     2.686043795748    86.61708227     3.74742008
 Au     1   2   3     2.817299087238    74.81762269   146.69382867
 Au     6   1   2     2.831130592389    94.38617944   313.11377026
 Au     7   6   1     3.072506185331   105.16898421   334.32035280
 Au     7   6   1     2.690412725066   145.58164986    81.28975331
 Au     8   7   6     2.686367945221    93.37441845   143.64639729
 Au     2   1   3     2.807042890682   116.41149876   321.29403373
 Au     8   7   6     2.694263870836    59.98147421   330.07319353
 Cr     2   1   3     2.539836840869    45.98282031   304.42128096

---------------------------
INTERNAL COORDINATES (A.U.)
---------------------------
 Au     0   0   0     0.000000000000     0.00000000     0.00000000
 Au     1   0   0     9.935022084366     0.00000000     0.00000000
 Au     2   1   0     5.823404346411    72.38360957     0.00000000
 Au     2   1   3     5.084233321083    20.70315462   179.42613891
 Au     3   2   1     5.075887157682    86.61708227     3.74742008
 Au     1   2   3     5.323923712227    74.81762269   146.69382867
 Au     6   1   2     5.350061468982    94.38617944   313.11377026
 Au     7   6   1     5.806195235055   105.16898421   334.32035280
 Au     7   6   1     5.084143237592   145.58164986    81.28975331
 Au     8   7   6     5.076499711413    93.37441845   143.64639729
 Au     2   1   3     5.304542309559   116.41149876   321.29403373
 Au     8   7   6     5.091420848399    59.98147421   330.07319353
 Cr     2   1   3     4.799596054087    45.98282031   304.42128096

---------------------
BASIS SET INFORMATION
---------------------
There are 2 groups of distinct atoms

 Group   1 Type Au  : 8s7p6d1f contracted to 6s4p3d1f pattern {311111/4111/411/1}
 Group   2 Type Cr  : 17s11p7d1f contracted to 6s4p4d1f pattern {842111/6311/4111/1}

Atom   0Au   basis set group =>   1
Atom   1Au   basis set group =>   1
Atom   2Au   basis set group =>   1
Atom   3Au   basis set group =>   1
Atom   4Au   basis set group =>   1
Atom   5Au   basis set group =>   1
Atom   6Au   basis set group =>   1
Atom   7Au   basis set group =>   1
Atom   8Au   basis set group =>   1
Atom   9Au   basis set group =>   1
Atom  10Au   basis set group =>   1
Atom  11Au   basis set group =>   1
Atom  12Cr   basis set group =>   2
---------------------------------
AUXILIARY/J BASIS SET INFORMATION
---------------------------------
There are 2 groups of distinct atoms

 Group   1 Type Au  : 11s5p5d3f3g contracted to 8s5p5d2f3g pattern {41111111/11111/11111/21/111}
 Group   2 Type Cr  : 19s5p5d3f3g contracted to 8s5p5d2f3g pattern {121111111/11111/11111/21/111}

Atom   0Au   basis set group =>   1
Atom   1Au   basis set group =>   1
Atom   2Au   basis set group =>   1
Atom   3Au   basis set group =>   1
Atom   4Au   basis set group =>   1
Atom   5Au   basis set group =>   1
Atom   6Au   basis set group =>   1
Atom   7Au   basis set group =>   1
Atom   8Au   basis set group =>   1
Atom   9Au   basis set group =>   1
Atom  10Au   basis set group =>   1
Atom  11Au   basis set group =>   1
Atom  12Cr   basis set group =>   2
-------------------------
ECP PARAMETER INFORMATION
-------------------------

 Group 1, Type Au ECP Def2-ECP (replacing 60 core electrons, lmax=3)

Atom   0Au   ECP group =>   1
Atom   1Au   ECP group =>   1
Atom   2Au   ECP group =>   1
Atom   3Au   ECP group =>   1
Atom   4Au   ECP group =>   1
Atom   5Au   ECP group =>   1
Atom   6Au   ECP group =>   1
Atom   7Au   ECP group =>   1
Atom   8Au   ECP group =>   1
Atom   9Au   ECP group =>   1
Atom  10Au   ECP group =>   1
Atom  11Au   ECP group =>   1

------------------------------------------------------------------------------
                           ORCA GTO INTEGRAL CALCULATION
                           -- RI-GTO INTEGRALS CHOSEN --
------------------------------------------------------------------------------
------------------------------------------------------------------------------
                   ___                                                        
                  /   \      - P O W E R E D   B Y -                         
                 /     \                                                     
                 |  |  |   _    _      __       _____    __    __             
                 |  |  |  | |  | |    /  \     |  _  \  |  |  /  |          
                  \  \/   | |  | |   /    \    | | | |  |  | /  /          
                 / \  \   | |__| |  /  /\  \   | |_| |  |  |/  /          
                |  |  |   |  __  | /  /__\  \  |    /   |      \           
                |  |  |   | |  | | |   __   |  |    \   |  |\   \          
                \     /   | |  | | |  |  |  |  | |\  \  |  | \   \       
                 \___/    |_|  |_| |__|  |__|  |_| \__\ |__|  \__/        
                                                                              
                      - O R C A' S   B I G   F R I E N D -                    
                                      &                                       
                       - I N T E G R A L  F E E D E R -                       
                                                                              
 v1 FN, 2020, v2 2021                                                         
------------------------------------------------------------------------------


Reading SHARK input file pbe.SHARKINP.tmp ... ok
----------------------
SHARK INTEGRAL PACKAGE
----------------------

Number of atoms                             ...     13
Number of basis functions                   ...    525
Number of shells                            ...    183
Maximum angular momentum                    ...      3
Integral batch strategy                     ... SHARK/LIBINT Hybrid
RI-J (if used) integral strategy            ... SPLIT-RIJ (Revised 2003 algorithm where possible)
Printlevel                                  ...      1
Contraction scheme used                     ... SEGMENTED contraction
Coulomb Range Separation                    ... NOT USED
Exchange Range Separation                   ... NOT USED
Finite Nucleus Model                        ... NOT USED
Auxiliary Coulomb fitting basis             ... AVAILABLE
   # of basis functions in Aux-J            ...   1157
   # of shells in Aux-J                     ...    299
   Maximum angular momentum in Aux-J        ...      4
Auxiliary J/K fitting basis                 ... NOT available
Auxiliary Correlation fitting basis         ... NOT available
Auxiliary 'external' fitting basis          ... NOT available
Integral threshold                          ...     2.500000e-11
Primitive cut-off                           ...     2.500000e-12
Primitive pair pre-selection threshold      ...     2.500000e-12

Calculating pre-screening integrals         ... done (  0.2 sec) Dimension = 183
Organizing shell pair data                  ... done (  0.2 sec)
Shell pair information
Total number of shell pairs                 ...     16836
Shell pairs after pre-screening             ...     13721
Total number of primitive shell pairs       ...     45389
Primitive shell pairs kept                  ...     27107
          la=0 lb=0:   2158 shell pairs
          la=1 lb=0:   3152 shell pairs
          la=1 lb=1:   1176 shell pairs
          la=2 lb=0:   2703 shell pairs
          la=2 lb=1:   1906 shell pairs
          la=2 lb=2:    786 shell pairs
          la=3 lb=0:    737 shell pairs
          la=3 lb=1:    556 shell pairs
          la=3 lb=2:    466 shell pairs
          la=3 lb=3:     81 shell pairs

Calculating one electron integrals          ... done (  0.1 sec)
Calculating ECP integrals                   ... done (  5.8 sec)
Calculating RI/J V-Matrix + Cholesky decomp.... done (  0.0 sec)
Calculating Nuclear repulsion               ... done (  0.0 sec) ENN=   4269.135836832756 Eh

SHARK setup successfully completed in   6.8 seconds

Maximum memory used throughout the entire GTOINT-calculation: 401.5 MB
-------------------------------------------------------------------------------
                                 ORCA SCF
-------------------------------------------------------------------------------

------------
SCF SETTINGS
------------
Hamiltonian:
 Density Functional     Method          .... DFT(GTOs)
 Exchange Functional    Exchange        .... PBE
   PBE kappa parameter   XKappa         ....  0.804000
   PBE mue parameter    XMuePBE         ....  0.219520
 Correlation Functional Correlation     .... PBE
   PBE beta parameter  CBetaPBE         ....  0.066725
 LDA part of GGA corr.  LDAOpt          .... PW91-LDA
 Gradients option       PostSCFGGA      .... off
   Density functional embedding theory  .... OFF
   NL short-range parameter             ....  6.400000
 RI-approximation to the Coulomb term is turned on
   Number of AuxJ basis functions       .... 1157


General Settings:
 Integral files         IntName         .... pbe
 Hartree-Fock type      HFTyp           .... UHF
 Total Charge           Charge          ....    0
 Multiplicity           Mult            ....    3
 Number of Electrons    NEL             ....  252
 Basis Dimension        Dim             ....  525
 Nuclear Repulsion      ENuc            ....   4269.1358368328 Eh

Convergence Acceleration:
 DIIS                   CNVDIIS         .... off
 Trust-Rad. Augm. Hess. CNVTRAH         .... auto
   Auto Start mean grad. ratio tolernc. ....  1.125000
   Auto Start start iteration           ....    20
   Auto Start num. interpolation iter.  ....    10
   Max. Number of Micro iterations      ....    16
   Max. Number of Macro iterations      .... Maxiter - #DIIS iter
   Number of Davidson start vectors     ....     2
   Converg. threshold I  (grad. norm)   ....   1.000e-05
   Converg. threshold II (energy diff.) ....   1.000e-08
   Grad. Scal. Fac. for Micro threshold ....   0.100
   Minimum threshold for Micro iter.    ....   0.010
   NR start threshold (gradient norm)   ....   0.001
   Initial trust radius                 ....   0.400
   Minimum AH scaling param. (alpha)    ....   1.000
   Maximum AH scaling param. (alpha)    .... 1000.000
   Orbital update algorithm             .... Taylor
   White noise on init. David. guess    .... on
   Maximum white noise                  ....   0.010
   Quad. conv. algorithm                .... NR
 SOSCF                  CNVSOSCF        .... off
 Level Shifting         CNVShift        .... off
 Zerner damping         CNVZerner       .... off
 Static damping         CNVDamp         .... off
 Fernandez-Rico         CNVRico         .... off

SCF Procedure:
 Maximum # iterations   MaxIter         ....   125
 SCF integral mode      SCFMode         .... Direct
   Integral package                     .... SHARK and LIBINT hybrid scheme
 Reset frequency        DirectResetFreq ....    20
 Integral Threshold     Thresh          ....  2.500e-11 Eh
 Primitive CutOff       TCut            ....  2.500e-12 Eh

Convergence Tolerance:
 Convergence Check Mode ConvCheckMode   .... Total+1el-Energy
 Convergence forced     ConvForced      .... 0
 Energy Change          TolE            ....  1.000e-08 Eh
 1-El. energy change                    ....  1.000e-05 Eh


Diagonalization of the overlap matrix:
Smallest eigenvalue                        ... 1.409e-04
Time for diagonalization                   ...    0.029 sec
Threshold for overlap eigenvalues          ... 1.000e-08
Number of eigenvalues below threshold      ... 0
Time for construction of square roots      ...    0.014 sec
Total time needed                          ...    0.043 sec

Time for model grid setup =    0.847 sec

------------------------------
INITIAL GUESS: MODEL POTENTIAL
------------------------------
Loading Hartree-Fock densities                     ... done
  calling /media/Programs/ORCA501/orca pbe_atom79.inp > pbe_atom79.out in order to generate an atomic fitting density for atom 0 (Au with ECP) on-the-fly... 
    atom 0 (Au), assumed electronic state with S=2: 1s2 2s2 2p6 3s2 3p6 4s2 3d10 4p6 5s2 4d10 5p6 6s1 4f14 5d10           ... done
Calculating cut-offs                               ... done
Initializing the effective Hamiltonian             ... done
Setting up the integral package (SHARK)            ... done
Starting the Coulomb interaction                   ... done (   1.3 sec)
Reading the grid                                   ... done
Mapping shells                                     ... done
Starting the XC term evaluation                    ... done (   1.6 sec)
  promolecular density results
     # of electrons  =    972.013183759
     EX              =  -4437.098016566
     EC              =    -59.135109589
     EX+EC           =  -4496.233126155
Transforming the Hamiltonian                       ... done (   0.0 sec)
Diagonalizing the Hamiltonian                      ... done (   0.0 sec)
Back transforming the eigenvectors                 ... done (   0.0 sec)
Now organizing SCF variables                       ... done
                      ------------------
                      INITIAL GUESS DONE (   4.3 sec)
                      ------------------
-------------------
DFT GRID GENERATION
-------------------

General Integration Accuracy     IntAcc      ... 4.388
Radial Grid Type                 RadialGrid  ... OptM3 with GC (2021)
Angular Grid (max. ang.)         AngularGrid ... 4 (Lebedev-302)
Angular grid pruning method      GridPruning ... 4 (adaptive)
Weight generation scheme         WeightScheme... Becke
Basis function cutoff            BFCut       ... 1.0000e-11
Integration weight cutoff        WCut        ... 1.0000e-14
Angular grids for H and He will be reduced by one unit
Partially contracted basis set               ... off
Rotationally invariant grid construction     ... off

Total number of grid points                  ...   144713
Total number of batches                      ...     2268
Average number of points per batch           ...       63
Average number of grid points per atom       ...    11132
Time for grid setup =    2.069 sec

--------------
SCF ITERATIONS
--------------
ITER       Energy         Delta-E        Max-DP      RMS-DP      [F,P]   Gradient Norm
               ***  Starting incremental Fock matrix formation  ***
                             ****Resetting KDIIS****
                             ****Turning on KDIIS(Cayley)****
  0  -2672.3078325845   0.000000000000 0.46923962  0.00239963  0.3663400   0.219241286
  1  -2673.3185453466  -1.010712762062 0.83759624  0.00230628  0.3276672   0.167782660
  2  -2673.7950786280  -0.476533281440 0.17477056  0.00127440  0.2588757   0.124498101
  3  -2673.9997212921  -0.204642664089 0.13783396  0.00160134  0.1505209   0.072278250
  4  -2674.0451130284  -0.045391736257 0.03672365  0.00060462  0.0395570   0.023928246
  5  -2674.0924938793  -0.047380850904 0.23564232  0.00100177  0.0213866   0.006542501
  6  -2674.1064961965  -0.014002317195 0.12513192  0.00066831  0.0257560   0.007416302
  7  -2674.1203884859  -0.013892289408 0.13430650  0.00047117  0.0153598   0.005388643
  8  -2674.1168633542   0.003525131654 0.12943100  0.00044840  0.0114944   0.008768131
  9  -2674.1285414866  -0.011678132410 0.03933676  0.00019151  0.0108136   0.002417732
 10  -2674.1310442908  -0.002502804142 0.02370926  0.00021518  0.0095121   0.003207596
 11  -2674.1350644829  -0.004020192143 0.08848894  0.00023991  0.0067864   0.002096149
 12  -2674.1339424093   0.001122073619 0.04001331  0.00013437  0.0136779   0.005409888
 13  -2674.1363403784  -0.002397969124 0.03622967  0.00022148  0.0057221   0.002564757
 14  -2674.1388578633  -0.002517484920 0.00926859  0.00008132  0.0036142   0.001601076
 15  -2674.1390836023  -0.000225738993 0.01828656  0.00008567  0.0037802   0.001549993
 16  -2674.1396532964  -0.000569694046 0.01981150  0.00006112  0.0023615   0.000826387
 17  -2674.1397360955  -0.000082799137 0.00756522  0.00005834  0.0035670   0.000877163
 18  -2674.1401027338  -0.000366638237 0.00988179  0.00009442  0.0020029   0.000656459
 19  -2674.1404614712  -0.000358737457 0.03378816  0.00009326  0.0018234   0.001050915
               *** Restarting incremental Fock matrix formation ***
                             ****Resetting KDIIS****
 20  -2674.1403475682   0.000113902991 0.00648745  0.00001635  0.0026605   0.001142407
 21  -2674.1404189234  -0.000071355159 0.00753780  0.00002001  0.0021012   0.000732339

 WARNING: the maximum gradient error descreased on average only by a factor   1.1
          during the last 20 iterations

                      *** Initiating the TRAH-SCF procedure ***

                    *** KDIIS BlockDiag ( 0.060 sec) ***

TRAH GRID
---------

General Integration Accuracy     IntAcc      ... 3.467
Radial Grid Type                 RadialGrid  ... OptM3 with GC (2021)
Angular Grid (max. ang.)         AngularGrid ... 1 (Lebedev-50)
Angular grid pruning method      GridPruning ... 4 (adaptive)
Weight generation scheme         WeightScheme... Becke
Basis function cutoff            BFCut       ... 1.0000e-11
Integration weight cutoff        WCut        ... 1.0000e-14
Angular grids for H and He will be reduced by one unit
Partially contracted basis set               ... off
Rotationally invariant grid construction     ... off

Total number of grid points                  ...    62453
Total number of batches                      ...      984
Average number of points per batch           ...       63
Average number of grid points per atom       ...     4804

 --------------------------------------------------------------------------------------------
   Iter.        energy            ||Error||_2        Shift      TRadius  Mac/Mic        Rej.
 --------------------------------------------------------------------------------------------
    0      -2674.140464321220     7.783362e-03                     0.400 (TRAH MAcro)   No
    0     dE    -1.366479e-05     1.284082e-02    -1.3665e-05      0.002 (TRAH MIcro)
    0     dE    -1.002930e-04     1.411726e-02    -1.0023e-04      0.025 (TRAH MIcro)
    0     dE    -3.782536e-04     1.668386e-02    -3.7424e-04      0.104 (TRAH MIcro)
    0     dE    -4.433233e-04     5.096151e-03    -4.3665e-04      0.124 (TRAH MIcro)
    0     dE    -4.611651e-04     4.481282e-03    -4.5361e-04      0.129 (TRAH MIcro)
    0     dE    -4.707506e-04     3.751943e-03    -4.6278e-04      0.131 (TRAH MIcro)
    0     dE    -4.753132e-04     1.231485e-03    -4.6720e-04      0.132 (TRAH MIcro)
    0     dE    -4.759158e-04     7.502861e-04    -4.6778e-04      0.132 (TRAH MIcro)
    1      -2674.140893293777     3.738379e-03                     0.480 (TRAH MAcro)   No
    1     dE    -2.732911e-06     8.168466e-03    -2.7329e-06      0.001 (TRAH MIcro)
    1     dE    -5.413363e-06     1.334881e-03    -5.4133e-06      0.003 (TRAH MIcro)
    1     dE    -7.796619e-06     2.203412e-03    -7.7963e-06      0.006 (TRAH MIcro)
    1     dE    -9.556372e-06     1.344925e-03    -9.5554e-06      0.010 (TRAH MIcro)
    1     dE    -1.000986e-05     4.637819e-04    -1.0009e-05      0.012 (TRAH MIcro)
    1     dE    -1.012676e-05     2.894058e-04    -1.0125e-05      0.012 (TRAH MIcro)
    2      -2674.140903579294     2.916238e-04                           (NR   MAcro)
    2     dE    -3.283294e-08     2.156778e-04                           (NR   MIcro)
    2     dE    -4.565811e-08     1.328669e-04                           (NR   MIcro)
    2     dE    -6.752042e-08     1.384669e-04                           (NR   MIcro)
    2     dE    -8.071052e-08     6.824586e-05                           (NR   MIcro)
    2     dE    -8.262386e-08     4.100676e-05                           (NR   MIcro)
    2     dE    -8.336314e-08     2.716861e-05                           (NR   MIcro)
    2     dE    -8.375505e-08     1.330842e-05                           (NR   MIcro)
    2     dE    -8.382670e-08     2.970070e-06                           (NR   MIcro)
    2     dE    -8.382981e-08     1.389214e-06                           (NR   MIcro)
    2     dE    -8.383076e-08     7.400263e-07                           (NR   MIcro)
    3      -2674.140903663197     8.269221e-07                           (NR   MAcro)
    3     dE    -2.452822e-13     8.148277e-07                           (NR   MIcro)
    4      -2674.140903663208     8.148910e-07                           (NR   MAcro)

               *****************************************************
               *                     SUCCESS                       *
               *           SCF CONVERGED AFTER  52 CYCLES          *
               *****************************************************


----------------
TOTAL SCF ENERGY
----------------

Total Energy       :        -2674.14090366 Eh          -72767.07340 eV

Components:
Nuclear Repulsion  :         4269.13583683 Eh          116169.09204 eV
Electronic Energy  :        -6943.27674050 Eh         -188936.16544 eV
One Electron Energy:       -12829.64775389 Eh         -349112.46392 eV
Two Electron Energy:         5886.37101339 Eh          160176.29848 eV

Virial components:
Potential Energy   :        -4266.31104903 Eh         -116092.22566 eV
Kinetic Energy     :         1592.17014537 Eh           43325.15226 eV
Virial Ratio       :            2.67955725


DFT components:
N(Alpha)           :      126.999941802008 electrons
N(Beta)            :      124.999936227064 electrons
N(Total)           :      251.999878029072 electrons
E(X)               :     -191.998139578079 Eh       
E(C)               :      -10.952206570912 Eh       
E(XC)              :     -202.950346148991 Eh       
DFET-embed. en.    :        0.000000000000 Eh       

---------------
SCF CONVERGENCE
---------------

  Last Energy change         ...   -1.0459e-11  Tolerance :   1.0000e-08
  Last Orbital Gradient      ...    8.1489e-07  Tolerance :   1.0000e-05
  Last Orbital Rotation      ...    8.1284e-07

             **** THE GBW FILE WAS UPDATED (pbe.gbw) ****
             **** DENSITY pbe.scfp WAS UPDATED ****
             **** ENERGY FILE WAS UPDATED (pbe.en.tmp) ****
----------------------
UHF SPIN CONTAMINATION
----------------------

Warning: in a DFT calculation there is little theoretical justification to 
         calculate <S**2> as in Hartree-Fock theory. We will do it anyways
         but you should keep in mind that the values have only limited relevance

Expectation value of <S**2>     :     2.652139
Ideal value S*(S+1) for S=1.0   :     2.000000
Deviation                       :     0.652139

             **** THE GBW FILE WAS UPDATED (pbe.gbw) ****
             **** DENSITY pbe.scfp WAS UPDATED ****
----------------
ORBITAL ENERGIES
----------------
                 SPIN UP ORBITALS
  NO   OCC          E(Eh)            E(eV) 
   0   1.0000    -214.514558     -5837.2379 
   1   1.0000     -24.321337      -661.8172 
   2   1.0000     -20.686864      -562.9182 
   3   1.0000     -20.684670      -562.8585 
   4   1.0000     -20.684339      -562.8495 
   5   1.0000      -4.028395      -109.6182 
   6   1.0000      -4.028362      -109.6173 
   7   1.0000      -4.026744      -109.5733 
   8   1.0000      -4.026728      -109.5728 
   9   1.0000      -4.022124      -109.4476 
  10   1.0000      -4.022091      -109.4467 
  11   1.0000      -4.021534      -109.4315 
  12   1.0000      -4.021491      -109.4303 
  13   1.0000      -4.018236      -109.3418 
  14   1.0000      -4.013648      -109.2169 
  15   1.0000      -4.013565      -109.2147 
  16   1.0000      -4.012390      -109.1827 
  17   1.0000      -2.812216       -76.5243 
  18   1.0000      -2.248014       -61.1716 
  19   1.0000      -2.247818       -61.1662 
  20   1.0000      -2.246905       -61.1414 
  21   1.0000      -2.246740       -61.1369 
  22   1.0000      -2.242024       -61.0086 
  23   1.0000      -2.241659       -60.9987 
  24   1.0000      -2.241461       -60.9932 
  25   1.0000      -2.241208       -60.9864 
  26   1.0000      -2.240654       -60.9713 
  27   1.0000      -2.240151       -60.9576 
  28   1.0000      -2.239906       -60.9509 
  29   1.0000      -2.239447       -60.9384 
  30   1.0000      -2.235860       -60.8408 
  31   1.0000      -2.235413       -60.8287 
  32   1.0000      -2.235375       -60.8277 
  33   1.0000      -2.234932       -60.8156 
  34   1.0000      -2.234928       -60.8155 
  35   1.0000      -2.234397       -60.8010 
  36   1.0000      -2.232626       -60.7528 
  37   1.0000      -2.231491       -60.7220 
  38   1.0000      -2.231460       -60.7211 
  39   1.0000      -2.231182       -60.7136 
  40   1.0000      -2.230861       -60.7048 
  41   1.0000      -2.229113       -60.6572 
  42   1.0000      -2.228968       -60.6533 
  43   1.0000      -2.228049       -60.6283 
  44   1.0000      -2.227437       -60.6117 
  45   1.0000      -2.227410       -60.6109 
  46   1.0000      -2.226918       -60.5975 
  47   1.0000      -2.225987       -60.5722 
  48   1.0000      -2.225845       -60.5683 
  49   1.0000      -2.225601       -60.5617 
  50   1.0000      -2.225028       -60.5461 
  51   1.0000      -2.225015       -60.5457 
  52   1.0000      -2.224890       -60.5423 
  53   1.0000      -2.223074       -60.4929 
  54   1.0000      -1.804066       -49.0911 
  55   1.0000      -1.800235       -48.9869 
  56   1.0000      -1.799782       -48.9746 
  57   1.0000      -0.412178       -11.2159 
  58   1.0000      -0.376567       -10.2469 
  59   1.0000      -0.371132       -10.0990 
  60   1.0000      -0.365867        -9.9558 
  61   1.0000      -0.363698        -9.8967 
  62   1.0000      -0.363154        -9.8819 
  63   1.0000      -0.353838        -9.6284 
  64   1.0000      -0.350642        -9.5415 
  65   1.0000      -0.345838        -9.4107 
  66   1.0000      -0.344881        -9.3847 
  67   1.0000      -0.344220        -9.3667 
  68   1.0000      -0.342770        -9.3273 
  69   1.0000      -0.339848        -9.2477 
  70   1.0000      -0.337042        -9.1714 
  71   1.0000      -0.333995        -9.0885 
  72   1.0000      -0.332834        -9.0569 
  73   1.0000      -0.327363        -8.9080 
  74   1.0000      -0.322477        -8.7751 
  75   1.0000      -0.319631        -8.6976 
  76   1.0000      -0.319457        -8.6929 
  77   1.0000      -0.317923        -8.6511 
  78   1.0000      -0.314853        -8.5676 
  79   1.0000      -0.314064        -8.5461 
  80   1.0000      -0.312377        -8.5002 
  81   1.0000      -0.308959        -8.4072 
  82   1.0000      -0.307509        -8.3678 
  83   1.0000      -0.303935        -8.2705 
  84   1.0000      -0.300657        -8.1813 
  85   1.0000      -0.297515        -8.0958 
  86   1.0000      -0.296302        -8.0628 
  87   1.0000      -0.294031        -8.0010 
  88   1.0000      -0.292442        -7.9578 
  89   1.0000      -0.287690        -7.8284 
  90   1.0000      -0.286944        -7.8081 
  91   1.0000      -0.285798        -7.7770 
  92   1.0000      -0.283176        -7.7056 
  93   1.0000      -0.280727        -7.6390 
  94   1.0000      -0.280164        -7.6237 
  95   1.0000      -0.272730        -7.4214 
  96   1.0000      -0.272029        -7.4023 
  97   1.0000      -0.270601        -7.3634 
  98   1.0000      -0.270328        -7.3560 
  99   1.0000      -0.270058        -7.3486 
 100   1.0000      -0.269274        -7.3273 
 101   1.0000      -0.267820        -7.2878 
 102   1.0000      -0.263675        -7.1750 
 103   1.0000      -0.263039        -7.1577 
 104   1.0000      -0.262766        -7.1502 
 105   1.0000      -0.257245        -7.0000 
 106   1.0000      -0.255856        -6.9622 
 107   1.0000      -0.255193        -6.9441 
 108   1.0000      -0.254644        -6.9292 
 109   1.0000      -0.253568        -6.8999 
 110   1.0000      -0.251845        -6.8530 
 111   1.0000      -0.251208        -6.8357 
 112   1.0000      -0.248014        -6.7488 
 113   1.0000      -0.247215        -6.7271 
 114   1.0000      -0.243606        -6.6289 
 115   1.0000      -0.243488        -6.6256 
 116   1.0000      -0.241264        -6.5651 
 117   1.0000      -0.240715        -6.5502 
 118   1.0000      -0.235414        -6.4060 
 119   1.0000      -0.233009        -6.3405 
 120   1.0000      -0.230393        -6.2693 
 121   1.0000      -0.225332        -6.1316 
 122   1.0000      -0.215854        -5.8737 
 123   1.0000      -0.211974        -5.7681 
 124   1.0000      -0.211553        -5.7566 
 125   1.0000      -0.206401        -5.6165 
 126   1.0000      -0.203229        -5.5301 
 127   0.0000      -0.178781        -4.8649 
 128   0.0000      -0.177795        -4.8380 
 129   0.0000      -0.157920        -4.2972 
 130   0.0000      -0.133949        -3.6449 
 131   0.0000      -0.127235        -3.4622 
 132   0.0000      -0.120920        -3.2904 
 133   0.0000      -0.115817        -3.1515 
 134   0.0000      -0.108708        -2.9581 
 135   0.0000      -0.082662        -2.2494 
 136   0.0000      -0.059859        -1.6288 
 137   0.0000      -0.049307        -1.3417 
 138   0.0000      -0.047224        -1.2850 
 139   0.0000      -0.044218        -1.2032 
 140   0.0000      -0.041627        -1.1327 
 141   0.0000      -0.026611        -0.7241 
 142   0.0000      -0.021863        -0.5949 
 143   0.0000      -0.012854        -0.3498 
 144   0.0000      -0.002560        -0.0697 
 145   0.0000       0.013272         0.3612 
 146   0.0000       0.016562         0.4507 
 147   0.0000       0.022849         0.6218 
 148   0.0000       0.023300         0.6340 
 149   0.0000       0.035773         0.9734 
 150   0.0000       0.045032         1.2254 
 151   0.0000       0.045319         1.2332 
 152   0.0000       0.053075         1.4442 
 153   0.0000       0.054398         1.4802 
 154   0.0000       0.056635         1.5411 
 155   0.0000       0.062020         1.6877 
 156   0.0000       0.062950         1.7130 
 157   0.0000       0.068726         1.8701 
 158   0.0000       0.069545         1.8924 
 159   0.0000       0.078540         2.1372 
 160   0.0000       0.083898         2.2830 
 161   0.0000       0.084145         2.2897 
 162   0.0000       0.094138         2.5616 
 163   0.0000       0.098760         2.6874 
 164   0.0000       0.104149         2.8340 
 165   0.0000       0.108981         2.9655 
 166   0.0000       0.111755         3.0410 
 167   0.0000       0.114670         3.1203 
 168   0.0000       0.129221         3.5163 
 169   0.0000       0.129623         3.5272 
 170   0.0000       0.133850         3.6422 
 171   0.0000       0.137288         3.7358 
 172   0.0000       0.149049         4.0558 
 173   0.0000       0.149680         4.0730 
 174   0.0000       0.159665         4.3447 
 175   0.0000       0.160189         4.3590 
 176   0.0000       0.170239         4.6324 
 177   0.0000       0.175906         4.7866 
 178   0.0000       0.183799         5.0014 
 179   0.0000       0.189071         5.1449 
 180   0.0000       0.205605         5.5948 
 181   0.0000       0.205934         5.6037 
 182   0.0000       0.217578         5.9206 
 183   0.0000       0.221266         6.0209 
 184   0.0000       0.225976         6.1491 
 185   0.0000       0.230175         6.2634 
 186   0.0000       0.237246         6.4558 
 187   0.0000       0.240631         6.5479 
 188   0.0000       0.240968         6.5571 
 189   0.0000       0.241995         6.5850 
 190   0.0000       0.250927         6.8281 
 191   0.0000       0.263758         7.1772 
 192   0.0000       0.264500         7.1974 
 193   0.0000       0.267583         7.2813 
 194   0.0000       0.268406         7.3037 
 195   0.0000       0.274393         7.4666 
 196   0.0000       0.274675         7.4743 
 197   0.0000       0.286448         7.7947 
 198   0.0000       0.290308         7.8997 
 199   0.0000       0.298021         8.1096 
 200   0.0000       0.298035         8.1100 
 201   0.0000       0.305462         8.3120 
 202   0.0000       0.307139         8.3577 
 203   0.0000       0.312060         8.4916 
 204   0.0000       0.314891         8.5686 
 205   0.0000       0.319037         8.6814 
 206   0.0000       0.328205         8.9309 
 207   0.0000       0.330073         8.9818 
 208   0.0000       0.336980         9.1697 
 209   0.0000       0.344332         9.3698 
 210   0.0000       0.349492         9.5102 
 211   0.0000       0.356201         9.6927 
 212   0.0000       0.363208         9.8834 
 213   0.0000       0.364473         9.9178 
 214   0.0000       0.371779        10.1166 
 215   0.0000       0.372974        10.1491 
 216   0.0000       0.378101        10.2886 
 217   0.0000       0.380773        10.3613 
 218   0.0000       0.382260        10.4018 
 219   0.0000       0.383974        10.4485 
 220   0.0000       0.389069        10.5871 
 221   0.0000       0.396912        10.8005 
 222   0.0000       0.397482        10.8160 
 223   0.0000       0.404663        11.0114 
 224   0.0000       0.412799        11.2328 
 225   0.0000       0.430161        11.7053 
 226   0.0000       0.431589        11.7441 
 227   0.0000       0.435208        11.8426 
 228   0.0000       0.435324        11.8458 
 229   0.0000       0.442153        12.0316 
 230   0.0000       0.448040        12.1918 
 231   0.0000       0.455195        12.3865 
 232   0.0000       0.466071        12.6824 
 233   0.0000       0.468605        12.7514 
 234   0.0000       0.471449        12.8288 
 235   0.0000       0.476606        12.9691 
 236   0.0000       0.478734        13.0270 
 237   0.0000       0.487141        13.2558 
 238   0.0000       0.491953        13.3867 
 239   0.0000       0.496285        13.5046 
 240   0.0000       0.500847        13.6288 
 241   0.0000       0.501938        13.6584 
 242   0.0000       0.509702        13.8697 
 243   0.0000       0.511757        13.9256 
 244   0.0000       0.518334        14.1046 
 245   0.0000       0.523461        14.2441 
 246   0.0000       0.526538        14.3278 
 247   0.0000       0.542000        14.7486 
 248   0.0000       0.542378        14.7589 
 249   0.0000       0.545528        14.8446 
 250   0.0000       0.549157        14.9433 
 251   0.0000       0.553604        15.0643 
 252   0.0000       0.568710        15.4754 
 253   0.0000       0.570426        15.5221 
 254   0.0000       0.588053        16.0017 
 255   0.0000       0.592456        16.1215 
 256   0.0000       0.592847        16.1322 
 257   0.0000       0.626379        17.0446 
 258   0.0000       0.656993        17.8777 
 259   0.0000       0.691304        18.8113 
 260   0.0000       0.707863        19.2619 
 261   0.0000       0.716754        19.5039 
 262   0.0000       0.722731        19.6665 
 263   0.0000       0.723640        19.6912 
 264   0.0000       0.743510        20.2319 
 265   0.0000       0.750284        20.4163 
 266   0.0000       0.750931        20.4339 
 267   0.0000       0.769547        20.9404 
 268   0.0000       0.784288        21.3416 
 269   0.0000       0.794631        21.6230 
 270   0.0000       0.801639        21.8137 
 271   0.0000       0.803166        21.8553 
 272   0.0000       0.819910        22.3109 
 273   0.0000       0.821807        22.3625 
 274   0.0000       0.825676        22.4678 
 275   0.0000       0.837551        22.7909 
 276   0.0000       0.839721        22.8500 
 277   0.0000       0.859807        23.3966 
 278   0.0000       0.875341        23.8192 
 279   0.0000       0.885971        24.1085 
 280   0.0000       0.892548        24.2875 
 281   0.0000       0.900318        24.4989 
 282   0.0000       0.914468        24.8839 
 283   0.0000       0.919879        25.0312 
 284   0.0000       0.923384        25.1265 
 285   0.0000       0.977033        26.5864 
 286   0.0000       0.990632        26.9565 
 287   0.0000       1.007803        27.4237 
 288   0.0000       1.036642        28.2085 
 289   0.0000       1.067947        29.0603 
 290   0.0000       1.129588        30.7377 
 291   0.0000       1.137869        30.9630 
 292   0.0000       1.149219        31.2718 
 293   0.0000       1.213764        33.0282 
 294   0.0000       1.238168        33.6923 
 295   0.0000       1.240454        33.7545 
 296   0.0000       1.246030        33.9062 
 297   0.0000       1.255306        34.1586 
 298   0.0000       1.259159        34.2635 
 299   0.0000       1.275698        34.7135 
 300   0.0000       1.291684        35.1485 
 301   0.0000       1.299689        35.3663 
 302   0.0000       1.303745        35.4767 
 303   0.0000       1.310419        35.6583 
 304   0.0000       1.315025        35.7836 
 305   0.0000       1.317388        35.8480 
 306   0.0000       1.322084        35.9757 
 307   0.0000       1.336111        36.3574 
 308   0.0000       1.355553        36.8865 
 309   0.0000       1.358507        36.9668 
 310   0.0000       1.373478        37.3742 
 311   0.0000       1.382280        37.6138 
 312   0.0000       1.384166        37.6651 
 313   0.0000       1.391593        37.8672 
 314   0.0000       1.398238        38.0480 
 315   0.0000       1.398361        38.0513 
 316   0.0000       1.402735        38.1704 
 317   0.0000       1.406561        38.2745 
 318   0.0000       1.415603        38.5205 
 319   0.0000       1.420519        38.6543 
 320   0.0000       1.421167        38.6719 
 321   0.0000       1.422566        38.7100 
 322   0.0000       1.432956        38.9927 
 323   0.0000       1.434553        39.0362 
 324   0.0000       1.436604        39.0920 
 325   0.0000       1.439800        39.1789 
 326   0.0000       1.446802        39.3695 
 327   0.0000       1.450339        39.4657 
 328   0.0000       1.451379        39.4940 
 329   0.0000       1.453551        39.5531 
 330   0.0000       1.458282        39.6819 
 331   0.0000       1.460435        39.7405 
 332   0.0000       1.463263        39.8174 
 333   0.0000       1.467805        39.9410 
 334   0.0000       1.469780        39.9947 
 335   0.0000       1.471680        40.0465 
 336   0.0000       1.472214        40.0610 
 337   0.0000       1.479333        40.2547 
 338   0.0000       1.482133        40.3309 
 339   0.0000       1.482566        40.3427 
 340   0.0000       1.483821        40.3768 
 341   0.0000       1.488794        40.5121 
 342   0.0000       1.488955        40.5165 
 343   0.0000       1.490138        40.5487 
 344   0.0000       1.490763        40.5657 
 345   0.0000       1.492096        40.6020 
 346   0.0000       1.495301        40.6892 
 347   0.0000       1.496416        40.7195 
 348   0.0000       1.499339        40.7991 
 349   0.0000       1.501440        40.8563 
 350   0.0000       1.502051        40.8729 
 351   0.0000       1.505258        40.9602 
 352   0.0000       1.505284        40.9609 
 353   0.0000       1.506332        40.9894 
 354   0.0000       1.510137        41.0929 
 355   0.0000       1.511051        41.1178 
 356   0.0000       1.512108        41.1465 
 357   0.0000       1.518311        41.3154 
 358   0.0000       1.519429        41.3458 
 359   0.0000       1.521965        41.4148 
 360   0.0000       1.524478        41.4832 
 361   0.0000       1.525422        41.5088 
 362   0.0000       1.526902        41.5491 
 363   0.0000       1.528797        41.6007 
 364   0.0000       1.529549        41.6211 
 365   0.0000       1.532538        41.7025 
 366   0.0000       1.534829        41.7648 
 367   0.0000       1.535802        41.7913 
 368   0.0000       1.536398        41.8075 
 369   0.0000       1.540217        41.9114 
 370   0.0000       1.540348        41.9150 
 371   0.0000       1.542501        41.9736 
 372   0.0000       1.546357        42.0785 
 373   0.0000       1.546995        42.0959 
 374   0.0000       1.550555        42.1927 
 375   0.0000       1.552074        42.2341 
 376   0.0000       1.552733        42.2520 
 377   0.0000       1.554727        42.3063 
 378   0.0000       1.557678        42.3866 
 379   0.0000       1.560516        42.4638 
 380   0.0000       1.562326        42.5130 
 381   0.0000       1.562602        42.5206 
 382   0.0000       1.564709        42.5779 
 383   0.0000       1.565595        42.6020 
 384   0.0000       1.570872        42.7456 
 385   0.0000       1.572242        42.7829 
 386   0.0000       1.581046        43.0224 
 387   0.0000       1.582507        43.0622 
 388   0.0000       1.583993        43.1026 
 389   0.0000       1.588680        43.2302 
 390   0.0000       1.590954        43.2921 
 391   0.0000       1.591521        43.3075 
 392   0.0000       1.593088        43.3501 
 393   0.0000       1.597395        43.4673 
 394   0.0000       1.598106        43.4867 
 395   0.0000       1.605094        43.6768 
 396   0.0000       1.607442        43.7407 
 397   0.0000       1.609926        43.8083 
 398   0.0000       1.610764        43.8311 
 399   0.0000       1.610982        43.8370 
 400   0.0000       1.619128        44.0587 
 401   0.0000       1.620027        44.0832 
 402   0.0000       1.627928        44.2982 
 403   0.0000       1.631989        44.4087 
 404   0.0000       1.635438        44.5025 
 405   0.0000       1.635882        44.5146 
 406   0.0000       1.641050        44.6552 
 407   0.0000       1.645217        44.7686 
 408   0.0000       1.652790        44.9747 
 409   0.0000       1.653639        44.9978 
 410   0.0000       1.665185        45.3120 
 411   0.0000       1.667677        45.3798 
 412   0.0000       1.668250        45.3954 
 413   0.0000       1.680447        45.7273 
 414   0.0000       1.686497        45.8919 
 415   0.0000       1.690118        45.9904 
 416   0.0000       1.700475        46.2723 
 417   0.0000       1.716518        46.7088 
 418   0.0000       1.727220        47.0001 
 419   0.0000       1.745084        47.4862 
 420   0.0000       1.745228        47.4901 
 421   0.0000       1.766056        48.0568 
 422   0.0000       1.771732        48.2113 
 423   0.0000       1.786360        48.6093 
 424   0.0000       1.790467        48.7211 
 425   0.0000       1.797560        48.9141 
 426   0.0000       1.804451        49.1016 
 427   0.0000       1.808554        49.2133 
 428   0.0000       1.816055        49.4174 
 429   0.0000       1.826416        49.6993 
 430   0.0000       1.850554        50.3561 
 431   0.0000       1.865202        50.7547 
 432   0.0000       1.881960        51.2107 
 433   0.0000       1.909253        51.9534 
 434   0.0000       1.912831        52.0508 
 435   0.0000       1.947080        52.9827 
 436   0.0000       1.966043        53.4988 
 437   0.0000       2.007005        54.6134 
 438   0.0000       2.033311        55.3292 
 439   0.0000       2.060199        56.0609 
 440   0.0000       2.135527        58.1106 
 441   0.0000       2.221377        60.4467 
 442   0.0000       2.251625        61.2698 
 443   0.0000       2.260826        61.5202 
 444   0.0000       2.262425        61.5637 
 445   0.0000       2.322465        63.1975 
 446   0.0000       2.355564        64.0982 
 447   0.0000       2.367436        64.4212 
 448   0.0000       2.394970        65.1705 
 449   0.0000       2.398868        65.2765 
 450   0.0000       2.435663        66.2778 
 451   0.0000       2.468332        67.1667 
 452   0.0000       2.470154        67.2163 
 453   0.0000       2.504503        68.1510 
 454   0.0000       2.580297        70.2135 
 455   0.0000       2.607917        70.9650 
 456   0.0000       2.783827        75.7518 
 457   0.0000       2.798335        76.1466 
 458   0.0000       2.820689        76.7548 
 459   0.0000       2.827510        76.9405 
 460   0.0000       2.831593        77.0516 
 461   0.0000       2.885776        78.5259 
 462   0.0000       2.887864        78.5828 
 463   0.0000       2.928201        79.6804 
 464   0.0000       2.985713        81.2454 
 465   0.0000      23.600550       642.2036 
 466   0.0000      23.821051       648.2038 
 467   0.0000      24.039180       654.1393 
 468   0.0000      24.416225       664.3993 
 469   0.0000      24.465027       665.7272 
 470   0.0000      24.508751       666.9170 
 471   0.0000      24.811452       675.1539 
 472   0.0000      24.916732       678.0187 
 473   0.0000      25.277491       687.8355 
 474   0.0000      25.310946       688.7458 
 475   0.0000      25.564759       695.6525 
 476   0.0000      25.585245       696.2099 
 477   0.0000      25.585956       696.2292 
 478   0.0000      25.748868       700.6623 
 479   0.0000      25.919111       705.2949 
 480   0.0000      26.021311       708.0759 
 481   0.0000      26.108040       710.4359 
 482   0.0000      26.203935       713.0453 
 483   0.0000      26.232639       713.8264 
 484   0.0000      26.328233       716.4276 
 485   0.0000      26.342938       716.8278 
 486   0.0000      26.445690       719.6238 
 487   0.0000      26.525254       721.7889 
 488   0.0000      26.696107       726.4380 
 489   0.0000      27.004266       734.8234 
 490   0.0000      27.144755       738.6463 
 491   0.0000      27.212991       740.5031 
 492   0.0000      27.349644       744.2217 
 493   0.0000      27.515675       748.7396 
 494   0.0000      27.568114       750.1665 
 495   0.0000      27.831859       757.3434 
 496   0.0000      27.910099       759.4724 
 497   0.0000      27.952767       760.6335 
 498   0.0000      29.469059       801.8939 
 499   0.0000      29.572385       804.7055 
 500   0.0000      29.998718       816.3066 
 501   0.0000      43.889753      1194.3009 
 502   0.0000      43.944779      1195.7982 
 503   0.0000      43.992611      1197.0998 
 504   0.0000      44.003067      1197.3843 
 505   0.0000      44.058433      1198.8909 
 506   0.0000      44.076586      1199.3849 
 507   0.0000      44.110210      1200.2998 
 508   0.0000      44.128248      1200.7907 
 509   0.0000      44.155386      1201.5291 
 510   0.0000      44.206751      1202.9268 
 511   0.0000      44.231696      1203.6056 
 512   0.0000      44.244747      1203.9608 
 513   0.0000     205.089325      5580.7643 
 514   0.0000     205.112677      5581.3997 
 515   0.0000     205.129504      5581.8576 
 516   0.0000     205.133566      5581.9681 
 517   0.0000     205.161598      5582.7309 
 518   0.0000     205.167756      5582.8985 
 519   0.0000     205.181550      5583.2738 
 520   0.0000     205.189590      5583.4926 
 521   0.0000     205.196625      5583.6840 
 522   0.0000     205.211845      5584.0982 
 523   0.0000     205.226004      5584.4835 
 524   0.0000     205.236274      5584.7629 

                 SPIN DOWN ORBITALS
  NO   OCC          E(Eh)            E(eV) 
   0   1.0000    -214.514153     -5837.2269 
   1   1.0000     -24.282715      -660.7663 
   2   1.0000     -20.656850      -562.1015 
   3   1.0000     -20.655593      -562.0673 
   4   1.0000     -20.654839      -562.0468 
   5   1.0000      -4.028117      -109.6106 
   6   1.0000      -4.028085      -109.6098 
   7   1.0000      -4.026110      -109.5560 
   8   1.0000      -4.026093      -109.5556 
   9   1.0000      -4.021568      -109.4324 
  10   1.0000      -4.021536      -109.4316 
  11   1.0000      -4.021102      -109.4198 
  12   1.0000      -4.021059      -109.4186 
  13   1.0000      -4.018723      -109.3550 
  14   1.0000      -4.014203      -109.2320 
  15   1.0000      -4.014120      -109.2298 
  16   1.0000      -4.012124      -109.1754 
  17   1.0000      -2.708919       -73.7134 
  18   1.0000      -2.247356       -61.1537 
  19   1.0000      -2.247186       -61.1490 
  20   1.0000      -2.246040       -61.1178 
  21   1.0000      -2.245895       -61.1139 
  22   1.0000      -2.241281       -60.9884 
  23   1.0000      -2.240919       -60.9785 
  24   1.0000      -2.240756       -60.9741 
[...]
 140( 0) :    -0.041684 a.u.    -1.134 eV
 141( 0) :    -0.027706 a.u.    -0.754 eV
 142( 0) :    -0.016163 a.u.    -0.440 eV
 143( 0) :    -0.005823 a.u.    -0.158 eV
 144( 0) :    -0.004035 a.u.    -0.110 eV
 145( 0) :     0.022134 a.u.     0.602 eV
 146( 0) :     0.026166 a.u.     0.712 eV
 147( 0) :     0.027792 a.u.     0.756 eV
 148( 0) :     0.028389 a.u.     0.773 eV
 149( 0) :     0.029221 a.u.     0.795 eV
 150( 0) :     0.043518 a.u.     1.184 eV
 151( 0) :     0.045457 a.u.     1.237 eV
 152( 0) :     0.052153 a.u.     1.419 eV
 153( 0) :     0.055219 a.u.     1.503 eV
 154( 0) :     0.059152 a.u.     1.610 eV
 155( 0) :     0.065070 a.u.     1.771 eV
 156( 0) :     0.066475 a.u.     1.809 eV
 157( 0) :     0.069070 a.u.     1.880 eV
 158( 0) :     0.072120 a.u.     1.962 eV
 159( 0) :     0.072146 a.u.     1.963 eV
 160( 0) :     0.082309 a.u.     2.240 eV
 161( 0) :     0.086525 a.u.     2.354 eV
 162( 0) :     0.092700 a.u.     2.523 eV
 163( 0) :     0.096655 a.u.     2.630 eV
 164( 0) :     0.105733 a.u.     2.877 eV
 165( 0) :     0.108345 a.u.     2.948 eV
 166( 0) :     0.111288 a.u.     3.028 eV
 167( 0) :     0.126980 a.u.     3.455 eV
 168( 0) :     0.128534 a.u.     3.498 eV
 169( 0) :     0.133670 a.u.     3.637 eV
 170( 0) :     0.135013 a.u.     3.674 eV
 171( 0) :     0.145158 a.u.     3.950 eV
 172( 0) :     0.146153 a.u.     3.977 eV
 173( 0) :     0.148792 a.u.     4.049 eV
 174( 0) :     0.156240 a.u.     4.252 eV
 175( 0) :     0.159485 a.u.     4.340 eV
 176( 0) :     0.166731 a.u.     4.537 eV
 177( 0) :     0.171568 a.u.     4.669 eV
 178( 0) :     0.177632 a.u.     4.834 eV
 179( 0) :     0.178668 a.u.     4.862 eV
 180( 0) :     0.202951 a.u.     5.523 eV
 181( 0) :     0.210410 a.u.     5.726 eV
 182( 0) :     0.211717 a.u.     5.761 eV
 183( 0) :     0.222157 a.u.     6.045 eV
 184( 0) :     0.229519 a.u.     6.246 eV
 185( 0) :     0.234638 a.u.     6.385 eV
 186( 0) :     0.234704 a.u.     6.387 eV
 187( 0) :     0.247288 a.u.     6.729 eV
 188( 0) :     0.248330 a.u.     6.757 eV
 189( 0) :     0.250442 a.u.     6.815 eV
 190( 0) :     0.257491 a.u.     7.007 eV
 191( 0) :     0.266231 a.u.     7.245 eV
 192( 0) :     0.267601 a.u.     7.282 eV
 193( 0) :     0.271391 a.u.     7.385 eV
 194( 0) :     0.276694 a.u.     7.529 eV
 195( 0) :     0.288032 a.u.     7.838 eV
 196( 0) :     0.288425 a.u.     7.848 eV
 197( 0) :     0.288760 a.u.     7.858 eV
 198( 0) :     0.295698 a.u.     8.046 eV
 199( 0) :     0.298998 a.u.     8.136 eV
 200( 0) :     0.304097 a.u.     8.275 eV
 201( 0) :     0.305557 a.u.     8.315 eV
 202( 0) :     0.306869 a.u.     8.350 eV
 203( 0) :     0.313487 a.u.     8.530 eV
 204( 0) :     0.315874 a.u.     8.595 eV
 205( 0) :     0.319866 a.u.     8.704 eV
 206( 0) :     0.326217 a.u.     8.877 eV
 207( 0) :     0.334309 a.u.     9.097 eV
 208( 0) :     0.342993 a.u.     9.333 eV
 209( 0) :     0.344236 a.u.     9.367 eV
 210( 0) :     0.351185 a.u.     9.556 eV
 211( 0) :     0.357201 a.u.     9.720 eV
 212( 0) :     0.361021 a.u.     9.824 eV
 213( 0) :     0.364348 a.u.     9.914 eV
 214( 0) :     0.368567 a.u.    10.029 eV
 215( 0) :     0.371003 a.u.    10.096 eV
 216( 0) :     0.375405 a.u.    10.215 eV
 217( 0) :     0.384256 a.u.    10.456 eV
 218( 0) :     0.389252 a.u.    10.592 eV
 219( 0) :     0.390362 a.u.    10.622 eV
 220( 0) :     0.390702 a.u.    10.632 eV
 221( 0) :     0.398939 a.u.    10.856 eV
 222( 0) :     0.403978 a.u.    10.993 eV
 223( 0) :     0.414932 a.u.    11.291 eV
 224( 0) :     0.419259 a.u.    11.409 eV
 225( 0) :     0.424502 a.u.    11.551 eV
 226( 0) :     0.424755 a.u.    11.558 eV
 227( 0) :     0.426230 a.u.    11.598 eV
 228( 0) :     0.438165 a.u.    11.923 eV
 229( 0) :     0.441657 a.u.    12.018 eV
 230( 0) :     0.442796 a.u.    12.049 eV
 231( 0) :     0.443801 a.u.    12.076 eV
 232( 0) :     0.451736 a.u.    12.292 eV
 233( 0) :     0.454514 a.u.    12.368 eV
 234( 0) :     0.465199 a.u.    12.659 eV
 235( 0) :     0.477583 a.u.    12.996 eV
 236( 0) :     0.485124 a.u.    13.201 eV
 237( 0) :     0.487508 a.u.    13.266 eV
 238( 0) :     0.489119 a.u.    13.310 eV
 239( 0) :     0.490617 a.u.    13.350 eV
 240( 0) :     0.492021 a.u.    13.389 eV
 241( 0) :     0.499293 a.u.    13.586 eV
 242( 0) :     0.509590 a.u.    13.867 eV
 243( 0) :     0.510590 a.u.    13.894 eV
 244( 0) :     0.517442 a.u.    14.080 eV
 245( 0) :     0.523268 a.u.    14.239 eV
 246( 0) :     0.529139 a.u.    14.399 eV
 247( 0) :     0.529483 a.u.    14.408 eV
 248( 0) :     0.545759 a.u.    14.851 eV
 249( 0) :     0.546882 a.u.    14.881 eV
 250( 0) :     0.551039 a.u.    14.995 eV
 251( 0) :     0.560411 a.u.    15.250 eV
 252( 0) :     0.566750 a.u.    15.422 eV
 253( 0) :     0.577058 a.u.    15.703 eV
 254( 0) :     0.588359 a.u.    16.010 eV
 255( 0) :     0.603461 a.u.    16.421 eV
 256( 0) :     0.608076 a.u.    16.547 eV
 257( 0) :     0.653286 a.u.    17.777 eV
 258( 0) :     0.673889 a.u.    18.337 eV
 259( 0) :     0.685245 a.u.    18.646 eV
 260( 0) :     0.691612 a.u.    18.820 eV
 261( 0) :     0.711768 a.u.    19.368 eV
 262( 0) :     0.730608 a.u.    19.881 eV
 263( 0) :     0.750519 a.u.    20.423 eV
 264( 0) :     0.752121 a.u.    20.466 eV
 265( 0) :     0.757646 a.u.    20.617 eV
 266( 0) :     0.762280 a.u.    20.743 eV
 267( 0) :     0.767960 a.u.    20.897 eV
 268( 0) :     0.777336 a.u.    21.152 eV
 269( 0) :     0.789186 a.u.    21.475 eV
 270( 0) :     0.808431 a.u.    21.999 eV
 271( 0) :     0.815438 a.u.    22.189 eV
 272( 0) :     0.817079 a.u.    22.234 eV
 273( 0) :     0.823331 a.u.    22.404 eV
 274( 0) :     0.827584 a.u.    22.520 eV
 275( 0) :     0.829492 a.u.    22.572 eV
 276( 0) :     0.839784 a.u.    22.852 eV
 277( 0) :     0.850261 a.u.    23.137 eV
 278( 0) :     0.866428 a.u.    23.577 eV
 279( 0) :     0.870222 a.u.    23.680 eV
 280( 0) :     0.874342 a.u.    23.792 eV
 281( 0) :     0.879904 a.u.    23.943 eV
 282( 0) :     0.892689 a.u.    24.291 eV
 283( 0) :     0.898956 a.u.    24.462 eV
 284( 0) :     0.918836 a.u.    25.003 eV
 285( 0) :     0.927996 a.u.    25.252 eV
 286( 0) :     0.928205 a.u.    25.258 eV
 287( 0) :     0.941684 a.u.    25.625 eV
 288( 0) :     0.985096 a.u.    26.806 eV
 289( 0) :     1.064477 a.u.    28.966 eV
 290( 0) :     1.073580 a.u.    29.214 eV
 291( 0) :     1.094697 a.u.    29.788 eV
 292( 0) :     1.149096 a.u.    31.268 eV
 293( 0) :     1.179915 a.u.    32.107 eV
 294( 0) :     1.207662 a.u.    32.862 eV
 295( 0) :     1.209390 a.u.    32.909 eV
 296( 0) :     1.237173 a.u.    33.665 eV
 297( 0) :     1.237357 a.u.    33.670 eV
 298( 0) :     1.258871 a.u.    34.256 eV
 299( 0) :     1.274772 a.u.    34.688 eV
 300( 0) :     1.290359 a.u.    35.112 eV
 301( 0) :     1.298888 a.u.    35.345 eV
 302( 0) :     1.313947 a.u.    35.754 eV
 303( 0) :     1.315174 a.u.    35.788 eV
 304( 0) :     1.329925 a.u.    36.189 eV
 305( 0) :     1.336510 a.u.    36.368 eV
 306( 0) :     1.345674 a.u.    36.618 eV
 307( 0) :     1.357865 a.u.    36.949 eV
 308( 0) :     1.365520 a.u.    37.158 eV
 309( 0) :     1.378501 a.u.    37.511 eV
 310( 0) :     1.381592 a.u.    37.595 eV
 311( 0) :     1.381713 a.u.    37.598 eV
 312( 0) :     1.382350 a.u.    37.616 eV
 313( 0) :     1.391212 a.u.    37.857 eV
 314( 0) :     1.393210 a.u.    37.911 eV
 315( 0) :     1.401378 a.u.    38.133 eV
 316( 0) :     1.402758 a.u.    38.171 eV
 317( 0) :     1.404308 a.u.    38.213 eV
 318( 0) :     1.408102 a.u.    38.316 eV
 319( 0) :     1.412732 a.u.    38.442 eV
 320( 0) :     1.414361 a.u.    38.487 eV
 321( 0) :     1.415799 a.u.    38.526 eV
 322( 0) :     1.418940 a.u.    38.611 eV
 323( 0) :     1.429230 a.u.    38.891 eV
 324( 0) :     1.433660 a.u.    39.012 eV
 325( 0) :     1.439564 a.u.    39.173 eV
 326( 0) :     1.440769 a.u.    39.205 eV
 327( 0) :     1.447448 a.u.    39.387 eV
 328( 0) :     1.452037 a.u.    39.512 eV
 329( 0) :     1.455456 a.u.    39.605 eV
 330( 0) :     1.458627 a.u.    39.691 eV
 331( 0) :     1.459483 a.u.    39.715 eV
 332( 0) :     1.469893 a.u.    39.998 eV
 333( 0) :     1.474813 a.u.    40.132 eV
 334( 0) :     1.477393 a.u.    40.202 eV
 335( 0) :     1.477632 a.u.    40.208 eV
 336( 0) :     1.477780 a.u.    40.212 eV
 337( 0) :     1.486205 a.u.    40.442 eV
 338( 0) :     1.488105 a.u.    40.493 eV
 339( 0) :     1.488733 a.u.    40.510 eV
 340( 0) :     1.488854 a.u.    40.514 eV
 341( 0) :     1.490397 a.u.    40.556 eV
 342( 0) :     1.494757 a.u.    40.674 eV
 343( 0) :     1.497092 a.u.    40.738 eV
 344( 0) :     1.498879 a.u.    40.787 eV
 345( 0) :     1.499207 a.u.    40.795 eV
 346( 0) :     1.500200 a.u.    40.823 eV
 347( 0) :     1.501238 a.u.    40.851 eV
 348( 0) :     1.502664 a.u.    40.890 eV
 349( 0) :     1.503036 a.u.    40.900 eV
 350( 0) :     1.504501 a.u.    40.940 eV
 351( 0) :     1.504649 a.u.    40.944 eV
 352( 0) :     1.505245 a.u.    40.960 eV
 353( 0) :     1.507210 a.u.    41.013 eV
 354( 0) :     1.508479 a.u.    41.048 eV
 355( 0) :     1.509784 a.u.    41.083 eV
 356( 0) :     1.513341 a.u.    41.180 eV
 357( 0) :     1.515333 a.u.    41.234 eV
 358( 0) :     1.518321 a.u.    41.316 eV
 359( 0) :     1.519800 a.u.    41.356 eV
 360( 0) :     1.522197 a.u.    41.421 eV
 361( 0) :     1.524647 a.u.    41.488 eV
 362( 0) :     1.526958 a.u.    41.551 eV
 363( 0) :     1.527159 a.u.    41.556 eV
 364( 0) :     1.528144 a.u.    41.583 eV
 365( 0) :     1.528265 a.u.    41.586 eV
 366( 0) :     1.532592 a.u.    41.704 eV
 367( 0) :     1.535596 a.u.    41.786 eV
 368( 0) :     1.537707 a.u.    41.843 eV
 369( 0) :     1.539835 a.u.    41.901 eV
 370( 0) :     1.541338 a.u.    41.942 eV
 371( 0) :     1.541532 a.u.    41.947 eV
 372( 0) :     1.546588 a.u.    42.085 eV
 373( 0) :     1.548189 a.u.    42.128 eV
 374( 0) :     1.550252 a.u.    42.184 eV
 375( 0) :     1.551082 a.u.    42.207 eV
 376( 0) :     1.552296 a.u.    42.240 eV
 377( 0) :     1.552687 a.u.    42.251 eV
 378( 0) :     1.554445 a.u.    42.299 eV
 379( 0) :     1.556053 a.u.    42.342 eV
 380( 0) :     1.556592 a.u.    42.357 eV
 381( 0) :     1.562328 a.u.    42.513 eV
 382( 0) :     1.568297 a.u.    42.676 eV
 383( 0) :     1.569917 a.u.    42.720 eV
 384( 0) :     1.571195 a.u.    42.754 eV
 385( 0) :     1.572411 a.u.    42.787 eV
 386( 0) :     1.574092 a.u.    42.833 eV
 387( 0) :     1.577051 a.u.    42.914 eV
 388( 0) :     1.579091 a.u.    42.969 eV
 389( 0) :     1.585304 a.u.    43.138 eV
 390( 0) :     1.587651 a.u.    43.202 eV
 391( 0) :     1.588335 a.u.    43.221 eV
 392( 0) :     1.589852 a.u.    43.262 eV
 393( 0) :     1.592918 a.u.    43.346 eV
 394( 0) :     1.595312 a.u.    43.411 eV
 395( 0) :     1.596310 a.u.    43.438 eV
 396( 0) :     1.600634 a.u.    43.555 eV
 397( 0) :     1.606156 a.u.    43.706 eV
 398( 0) :     1.606589 a.u.    43.718 eV
 399( 0) :     1.610496 a.u.    43.824 eV
 400( 0) :     1.615905 a.u.    43.971 eV
 401( 0) :     1.620646 a.u.    44.100 eV
 402( 0) :     1.627021 a.u.    44.273 eV
 403( 0) :     1.628263 a.u.    44.307 eV
 404( 0) :     1.629195 a.u.    44.333 eV
 405( 0) :     1.632068 a.u.    44.411 eV
 406( 0) :     1.632302 a.u.    44.417 eV
 407( 0) :     1.636813 a.u.    44.540 eV
 408( 0) :     1.637752 a.u.    44.566 eV
 409( 0) :     1.641532 a.u.    44.668 eV
 410( 0) :     1.651479 a.u.    44.939 eV
 411( 0) :     1.659274 a.u.    45.151 eV
 412( 0) :     1.664268 a.u.    45.287 eV
 413( 0) :     1.666519 a.u.    45.348 eV
 414( 0) :     1.669048 a.u.    45.417 eV
 415( 0) :     1.695492 a.u.    46.137 eV
 416( 0) :     1.696497 a.u.    46.164 eV
 417( 0) :     1.699975 a.u.    46.259 eV
 418( 0) :     1.725554 a.u.    46.955 eV
 419( 0) :     1.726909 a.u.    46.992 eV
 420( 0) :     1.742049 a.u.    47.404 eV
 421( 0) :     1.760236 a.u.    47.898 eV
 422( 0) :     1.776434 a.u.    48.339 eV
 423( 0) :     1.782059 a.u.    48.492 eV
 424( 0) :     1.782972 a.u.    48.517 eV
 425( 0) :     1.797064 a.u.    48.901 eV
 426( 0) :     1.807491 a.u.    49.184 eV
 427( 0) :     1.818679 a.u.    49.489 eV
 428( 0) :     1.827339 a.u.    49.724 eV
 429( 0) :     1.830237 a.u.    49.803 eV
 430( 0) :     1.836646 a.u.    49.978 eV
 431( 0) :     1.851746 a.u.    50.389 eV
 432( 0) :     1.864383 a.u.    50.732 eV
 433( 0) :     1.877503 a.u.    51.089 eV
 434( 0) :     1.932506 a.u.    52.586 eV
 435( 0) :     1.938046 a.u.    52.737 eV
 436( 0) :     1.950191 a.u.    53.067 eV
 437( 0) :     1.961133 a.u.    53.365 eV
 438( 0) :     2.068492 a.u.    56.287 eV
 439( 0) :     2.113087 a.u.    57.500 eV
 440( 0) :     2.176715 a.u.    59.231 eV
 441( 0) :     2.181376 a.u.    59.358 eV
 442( 0) :     2.255079 a.u.    61.364 eV
 443( 0) :     2.263907 a.u.    61.604 eV
 444( 0) :     2.267536 a.u.    61.703 eV
 445( 0) :     2.359726 a.u.    64.211 eV
 446( 0) :     2.361201 a.u.    64.252 eV
 447( 0) :     2.398797 a.u.    65.275 eV
 448( 0) :     2.409587 a.u.    65.568 eV
 449( 0) :     2.432145 a.u.    66.182 eV
 450( 0) :     2.450918 a.u.    66.693 eV
 451( 0) :     2.505041 a.u.    68.166 eV
 452( 0) :     2.512662 a.u.    68.373 eV
 453( 0) :     2.515718 a.u.    68.456 eV
 454( 0) :     2.527089 a.u.    68.766 eV
 455( 0) :     2.590450 a.u.    70.490 eV
 456( 0) :     2.683499 a.u.    73.022 eV
 457( 0) :     2.823888 a.u.    76.842 eV
 458( 0) :     2.829088 a.u.    76.983 eV
 459( 0) :     2.837879 a.u.    77.223 eV
 460( 0) :     2.838323 a.u.    77.235 eV
 461( 0) :     2.857076 a.u.    77.745 eV
 462( 0) :     2.864260 a.u.    77.940 eV
 463( 0) :     2.870711 a.u.    78.116 eV
 464( 0) :     2.886848 a.u.    78.555 eV
 465( 0) :    23.838604 a.u.   648.681 eV
 466( 0) :    23.843485 a.u.   648.814 eV
 467( 0) :    23.966755 a.u.   652.169 eV
 468( 0) :    24.006766 a.u.   653.257 eV
 469( 0) :    24.251719 a.u.   659.923 eV
 470( 0) :    24.581373 a.u.   668.893 eV
 471( 0) :    24.733873 a.u.   673.043 eV
 472( 0) :    24.752602 a.u.   673.553 eV
 473( 0) :    25.135939 a.u.   683.984 eV
 474( 0) :    25.368799 a.u.   690.320 eV
 475( 0) :    25.545457 a.u.   695.127 eV
 476( 0) :    25.693775 a.u.   699.163 eV
 477( 0) :    25.741604 a.u.   700.465 eV
 478( 0) :    26.024863 a.u.   708.173 eV
 479( 0) :    26.030470 a.u.   708.325 eV
 480( 0) :    26.123471 a.u.   710.856 eV
 481( 0) :    26.184655 a.u.   712.521 eV
 482( 0) :    26.212400 a.u.   713.276 eV
 483( 0) :    26.248967 a.u.   714.271 eV
 484( 0) :    26.271746 a.u.   714.891 eV
 485( 0) :    26.430829 a.u.   719.219 eV
 486( 0) :    26.462213 a.u.   720.073 eV
 487( 0) :    26.513444 a.u.   721.467 eV
 488( 0) :    26.606837 a.u.   724.009 eV
 489( 0) :    26.713317 a.u.   726.906 eV
 490( 0) :    26.781874 a.u.   728.772 eV
 491( 0) :    26.826246 a.u.   729.979 eV
 492( 0) :    27.012412 a.u.   735.045 eV
 493( 0) :    27.058720 a.u.   736.305 eV
 494( 0) :    27.132815 a.u.   738.321 eV
 495( 0) :    27.653065 a.u.   752.478 eV
 496( 0) :    27.799189 a.u.   756.454 eV
 497( 0) :    28.198767 a.u.   767.327 eV
 498( 0) :    28.440891 a.u.   773.916 eV
 499( 0) :    28.637545 a.u.   779.267 eV
 500( 0) :    28.924923 a.u.   787.087 eV
 501( 0) :    43.898032 a.u.  1194.526 eV
 502( 0) :    43.947805 a.u.  1195.881 eV
 503( 0) :    43.967565 a.u.  1196.418 eV
 504( 0) :    43.988286 a.u.  1196.982 eV
 505( 0) :    44.071335 a.u.  1199.242 eV
 506( 0) :    44.103130 a.u.  1200.107 eV
 507( 0) :    44.124091 a.u.  1200.678 eV
 508( 0) :    44.137790 a.u.  1201.050 eV
 509( 0) :    44.160533 a.u.  1201.669 eV
 510( 0) :    44.186503 a.u.  1202.376 eV
 511( 0) :    44.240281 a.u.  1203.839 eV
 512( 0) :    44.243632 a.u.  1203.930 eV
 513( 0) :   205.092910 a.u.  5580.862 eV
 514( 0) :   205.112788 a.u.  5581.403 eV
 515( 0) :   205.122533 a.u.  5581.668 eV
 516( 0) :   205.130297 a.u.  5581.879 eV
 517( 0) :   205.164644 a.u.  5582.814 eV
 518( 0) :   205.178104 a.u.  5583.180 eV
 519( 0) :   205.186877 a.u.  5583.419 eV
 520( 0) :   205.191180 a.u.  5583.536 eV
 521( 0) :   205.195138 a.u.  5583.644 eV
 522( 0) :   205.206008 a.u.  5583.939 eV
 523( 0) :   205.237762 a.u.  5584.803 eV
 524( 0) :   205.237842 a.u.  5584.806 eV
-------
TIMINGS
-------

Total SCF time: 0 days 0 hours 3 min 35 sec 

Total time                  ....     215.907 sec
Sum of individual times     ....     203.340 sec  ( 94.2%)

Fock matrix formation       ....     198.529 sec  ( 92.0%)
  Split-RI-J                ....      72.267 sec  ( 36.4% of F)
  XC integration            ....     126.048 sec  ( 63.5% of F)
    Basis function eval.    ....      20.945 sec  ( 16.6% of XC)
    Density eval.           ....      50.552 sec  ( 40.1% of XC)
    XC-Functional eval.     ....       2.849 sec  (  2.3% of XC)
    XC-Potential eval.      ....      46.957 sec  ( 37.3% of XC)
Diagonalization             ....       1.403 sec  (  0.7%)
Density matrix formation    ....       0.316 sec  (  0.1%)
Population analysis         ....       0.446 sec  (  0.2%)
Initial guess               ....       0.111 sec  (  0.1%)
Orbital Transformation      ....       0.376 sec  (  0.2%)
Orbital Orthonormalization  ....       0.092 sec  (  0.0%)
DIIS solution               ....       0.000 sec  (  0.0%)
Grid generation             ....       2.155 sec  (  1.0%)

Maximum memory used throughout the entire SCF-calculation: 476.7 MB

-------------------------   --------------------
FINAL SINGLE POINT ENERGY     -2674.158303532604
-------------------------   --------------------

                                *** OPTIMIZATION RUN DONE ***

                            ***************************************
                            *     ORCA property calculations      *
                            ***************************************

                                    ---------------------
                                    Active property flags
                                    ---------------------
   (+) Dipole Moment


------------------------------------------------------------------------------
                       ORCA ELECTRIC PROPERTIES CALCULATION
------------------------------------------------------------------------------

Dipole Moment Calculation                       ... on
Quadrupole Moment Calculation                   ... off
Polarizability Calculation                      ... off
GBWName                                         ... pbe.gbw
Electron density                                ... pbe.scfp
The origin for moment calculation is the CENTER OF MASS  = (15.465421, 14.338106 16.184059)

-------------
DIPOLE MOMENT
-------------
                                X             Y             Z
Electronic contribution:      4.51915       1.96886       0.25965
Nuclear contribution   :     -4.39517      -1.91518      -0.25305
                        -----------------------------------------
Total Dipole Moment    :      0.12398       0.05368       0.00659
                        -----------------------------------------
Magnitude (a.u.)       :      0.13527
Magnitude (Debye)      :      0.34382



--------------------
Rotational spectrum 
--------------------
 
Rotational constants in cm-1:     0.001699     0.001131     0.001034 
Rotational constants in MHz :    50.926379    33.916632    31.006987 

 Dipole components along the rotational axes: 
x,y,z [a.u.] :    -0.001432     0.135259    -0.000150 
x,y,z [Debye]:    -0.003640     0.343800    -0.000382 

 

Timings for individual modules:

Sum of individual times         ...    14540.407 sec (= 242.340 min)
GTO integral calculation        ...      295.425 sec (=   4.924 min)   2.0 %
SCF iterations                  ...    11310.682 sec (= 188.511 min)  77.8 %
SCF Gradient evaluation         ...     2932.707 sec (=  48.878 min)  20.2 %
Geometry relaxation             ...        1.593 sec (=   0.027 min)   0.0 %
                             ****ORCA TERMINATED NORMALLY****
TOTAL RUN TIME: 0 days 4 hours 2 minutes 22 seconds 271 msec
