
                                 *****************
                                 * O   R   C   A *
                                 *****************

                                            #,                                       
                                            ###                                      
                                            ####                                     
                                            #####                                    
                                            ######                                   
                                           ########,                                 
                                     ,,################,,,,,                         
                               ,,#################################,,                 
                          ,,##########################################,,             
                       ,#########################################, ''#####,          
                    ,#############################################,,   '####,        
                  ,##################################################,,,,####,       
                ,###########''''           ''''###############################       
              ,#####''   ,,,,##########,,,,          '''####'''          '####       
            ,##' ,,,,###########################,,,                        '##       
           ' ,,###''''                  '''############,,,                           
         ,,##''                                '''############,,,,        ,,,,,,###''
      ,#''                                            '''#######################'''  
     '                                                          ''''####''''         
             ,#######,   #######,   ,#######,      ##                                
            ,#'     '#,  ##    ##  ,#'     '#,    #''#        ######   ,####,        
            ##       ##  ##   ,#'  ##            #'  '#       #        #'  '#        
            ##       ##  #######   ##           ,######,      #####,   #    #        
            '#,     ,#'  ##    ##  '#,     ,#' ,#      #,         ##   #,  ,#        
             '#######'   ##     ##  '#######'  #'      '#     #####' # '####'        



                  #######################################################
                  #                        -***-                        #
                  #          Department of theory and spectroscopy      #
                  #    Directorship and core code : Frank Neese         #
                  #        Max Planck Institute fuer Kohlenforschung    #
                  #                Kaiser Wilhelm Platz 1               #
                  #                 D-45470 Muelheim/Ruhr               #
                  #                      Germany                        #
                  #                                                     #
                  #                  All rights reserved                #
                  #                        -***-                        #
                  #######################################################


                         Program Version 5.0.3 -  RELEASE  -


 With contributions from (in alphabetic order):
   Daniel Aravena         : Magnetic Suceptibility
   Michael Atanasov       : Ab Initio Ligand Field Theory (pilot matlab implementation)
   Alexander A. Auer      : GIAO ZORA, VPT2 properties, NMR spectrum
   Ute Becker             : Parallelization
   Giovanni Bistoni       : ED, misc. LED, open-shell LED, HFLD
   Martin Brehm           : Molecular dynamics
   Dmytro Bykov           : SCF Hessian
   Vijay G. Chilkuri      : MRCI spin determinant printing, contributions to CSF-ICE
   Dipayan Datta          : RHF DLPNO-CCSD density
   Achintya Kumar Dutta   : EOM-CC, STEOM-CC
   Dmitry Ganyushin       : Spin-Orbit,Spin-Spin,Magnetic field MRCI
   Miquel Garcia          : C-PCM and meta-GGA Hessian, CC/C-PCM, Gaussian charge scheme
   Yang Guo               : DLPNO-NEVPT2, F12-NEVPT2, CIM, IAO-localization
   Andreas Hansen         : Spin unrestricted coupled pair/coupled cluster methods
   Benjamin Helmich-Paris : MC-RPA, TRAH-SCF, COSX integrals
   Lee Huntington         : MR-EOM, pCC
   Robert Izsak           : Overlap fitted RIJCOSX, COSX-SCS-MP3, EOM
   Marcus Kettner         : VPT2
   Christian Kollmar      : KDIIS, OOCD, Brueckner-CCSD(T), CCSD density, CASPT2, CASPT2-K
   Simone Kossmann        : Meta GGA functionals, TD-DFT gradient, OOMP2, MP2 Hessian
   Martin Krupicka        : Initial AUTO-CI
   Lucas Lang             : DCDCAS
   Marvin Lechner         : AUTO-CI (C++ implementation), FIC-MRCC
   Dagmar Lenk            : GEPOL surface, SMD
   Dimitrios Liakos       : Extrapolation schemes; Compound Job, initial MDCI parallelization
   Dimitrios Manganas     : Further ROCIS development; embedding schemes
   Dimitrios Pantazis     : SARC Basis sets
   Anastasios Papadopoulos: AUTO-CI, single reference methods and gradients
   Taras Petrenko         : DFT Hessian,TD-DFT gradient, ASA, ECA, R-Raman, ABS, FL, XAS/XES, NRVS
   Peter Pinski           : DLPNO-MP2, DLPNO-MP2 Gradient
   Christoph Reimann      : Effective Core Potentials
   Marius Retegan         : Local ZFS, SOC
   Christoph Riplinger    : Optimizer, TS searches, QM/MM, DLPNO-CCSD(T), (RO)-DLPNO pert. Triples
   Tobias Risthaus        : Range-separated hybrids, TD-DFT gradient, RPA, STAB
   Michael Roemelt        : Original ROCIS implementation
   Masaaki Saitow         : Open-shell DLPNO-CCSD energy and density
   Barbara Sandhoefer     : DKH picture change effects
   Avijit Sen             : IP-ROCIS
   Kantharuban Sivalingam : CASSCF convergence, NEVPT2, FIC-MRCI
   Bernardo de Souza      : ESD, SOC TD-DFT
   Georgi Stoychev        : AutoAux, RI-MP2 NMR, DLPNO-MP2 response
   Willem Van den Heuvel  : Paramagnetic NMR
   Boris Wezisla          : Elementary symmetry handling
   Frank Wennmohs         : Technical directorship


 We gratefully acknowledge several colleagues who have allowed us to
 interface, adapt or use parts of their codes:
   Stefan Grimme, W. Hujo, H. Kruse, P. Pracht,  : VdW corrections, initial TS optimization,
                  C. Bannwarth, S. Ehlert          DFT functionals, gCP, sTDA/sTD-DF
   Ed Valeev, F. Pavosevic, A. Kumar             : LibInt (2-el integral package), F12 methods
   Garnet Chan, S. Sharma, J. Yang, R. Olivares  : DMRG
   Ulf Ekstrom                                   : XCFun DFT Library
   Mihaly Kallay                                 : mrcc  (arbitrary order and MRCC methods)
   Jiri Pittner, Ondrej Demel                    : Mk-CCSD
   Frank Weinhold                                : gennbo (NPA and NBO analysis)
   Christopher J. Cramer and Donald G. Truhlar   : smd solvation model
   Lars Goerigk                                  : TD-DFT with DH, B97 family of functionals
   V. Asgeirsson, H. Jonsson                     : NEB implementation
   FAccTs GmbH                                   : IRC, NEB, NEB-TS, DLPNO-Multilevel, CI-OPT
                                                   MM, QMMM, 2- and 3-layer-ONIOM, Crystal-QMMM,
                                                   LR-CPCM, SF, NACMEs, symmetry and pop. for TD-DFT,
                                                   nearIR, NL-DFT gradient (VV10), updates on ESD,
                                                   ML-optimized integration grids
   S Lehtola, MJT Oliveira, MAL Marques          : LibXC Library
   Liviu Ungur et al                             : ANISO software


 Your calculation uses the libint2 library for the computation of 2-el integrals
 For citations please refer to: http://libint.valeyev.net

 Your ORCA version has been built with support for libXC version: 5.1.0
 For citations please refer to: https://tddft.org/programs/libxc/

 This ORCA versions uses:
   CBLAS   interface :  Fast vector & matrix operations
   LAPACKE interface :  Fast linear algebra routines
   SCALAPACK package :  Parallel linear algebra routines
   Shared memory     :  Shared parallel matrices
   BLAS/LAPACK       :  OpenBLAS 0.3.15  USE64BITINT DYNAMIC_ARCH NO_AFFINITY Sandybridge SINGLE_THREADED
        Core in use  :  Sandybridge
   Copyright (c) 2011-2014, The OpenBLAS Project




***************************************
The coordinates will be read from file: pbe.xyz
***************************************


================================================================================

cite the ECPs for Au [Def2-ECP] as follows:
Ce-Yb(ecp-28): M. Dolg, H. Stoll, H.Preuss, J. Chem. Phys., 1989, 90, 1730-1734.
Y-Cd(ecp-28), Hf-Hg(ecp-46): D. Andrae,U. Haeussermann, M. Dolg, H. Stoll, H. Preuss, Theor. Chim. Acta, 1990, 77, 123-141.
In-Sb(ecp-28), Tl-Bi(ecp-46): B. Metz, H. Stoll, M. Dolg, J. Chem. Phys., 2000, 113, 2563-2569.
Te-Xe(ecp-28), Po-Rn(ecp-46): K. A. Peterson, D. Figgen, E. Goll, H. Stoll, M. Dolg, J. Chem. Phys., 2003, 119, 11113-11123.
Rb(ecp-28), Cs(ecp-46): T. Leininger, A. Nicklass, W. Kuechle, H. Stoll, M. Dolg, A. Bergner, Chem. Phys. Lett., 1996, 255, 274-280.
Sr(ecp-28), Ba(ecp-46): M. Kaupp, P. V. Schleyer, H. Stoll and H. Preuss, J. Chem. Phys., 1991, 94, 1360-1366.
La(ecp-46): M. Dolg, H. Stoll, A. Savin, H. Preuss, Theor. Chim. Acta, 1989, 75, 173-194.
Lu(ecp-28): X. Cao, M. Dolg, J. Chem. Phys., 2001, 115, 7348-7355.

ECP parameters for Au [Def2-ECP] have been obtained from:
TURBOMOLE (7.0.2)

----- Orbital basis set information -----
Your calculation utilizes the basis: def2-TZVP
   F. Weigend and R. Ahlrichs, Phys. Chem. Chem. Phys. 7, 3297 (2005).

----- AuxJ basis set information -----
Your calculation utilizes the auxiliary basis: def2/J
   F. Weigend, Phys. Chem. Chem. Phys. 8, 1057 (2006).

----- AuxC basis set information -----
Your calculation utilizes the auxiliary basis: def2-TZVP/C
  H-La, Hf-Rn : A. Hellweg, C. Hattig, S. Hofener and W. Klopper, Theor. Chem. Acc. 117, 587 (2007).
        Ce-Lu : J. Chmela and M. E. Harding, Mol. Phys. (2018).

================================================================================
                                        WARNINGS
                       Please study these warnings very carefully!
================================================================================


WARNING: your system is open-shell and RHF/RKS was chosen
  ===> : WILL SWITCH to UHF/UKS


WARNING: No MP2 level density has been requested!
         To caclulate MP2 level properties use
         %mp2 Density relaxed end
         or
         %mp2 Density unrelaxed end
         Otherwise for double-hybrid DFT only the energy is correct!

WARNING: The frozen-core approximation is turned on by default for 
         the MP2 part of double-hybrid DFT.

INFO   : the flag for use of the SHARK integral package has been found!



***************************************
The coordinates will be read from file: pbe.xyz
***************************************


================================================================================

cite the ECPs for Au [Def2-ECP] as follows:
Ce-Yb(ecp-28): M. Dolg, H. Stoll, H.Preuss, J. Chem. Phys., 1989, 90, 1730-1734.
Y-Cd(ecp-28), Hf-Hg(ecp-46): D. Andrae,U. Haeussermann, M. Dolg, H. Stoll, H. Preuss, Theor. Chim. Acta, 1990, 77, 123-141.
In-Sb(ecp-28), Tl-Bi(ecp-46): B. Metz, H. Stoll, M. Dolg, J. Chem. Phys., 2000, 113, 2563-2569.
Te-Xe(ecp-28), Po-Rn(ecp-46): K. A. Peterson, D. Figgen, E. Goll, H. Stoll, M. Dolg, J. Chem. Phys., 2003, 119, 11113-11123.
Rb(ecp-28), Cs(ecp-46): T. Leininger, A. Nicklass, W. Kuechle, H. Stoll, M. Dolg, A. Bergner, Chem. Phys. Lett., 1996, 255, 274-280.
Sr(ecp-28), Ba(ecp-46): M. Kaupp, P. V. Schleyer, H. Stoll and H. Preuss, J. Chem. Phys., 1991, 94, 1360-1366.
La(ecp-46): M. Dolg, H. Stoll, A. Savin, H. Preuss, Theor. Chim. Acta, 1989, 75, 173-194.
Lu(ecp-28): X. Cao, M. Dolg, J. Chem. Phys., 2001, 115, 7348-7355.

ECP parameters for Au [Def2-ECP] have been obtained from:
TURBOMOLE (7.0.2)

----- Orbital basis set information -----
Your calculation utilizes the basis: def2-TZVP
   F. Weigend and R. Ahlrichs, Phys. Chem. Chem. Phys. 7, 3297 (2005).

----- AuxJ basis set information -----
Your calculation utilizes the auxiliary basis: def2/J
   F. Weigend, Phys. Chem. Chem. Phys. 8, 1057 (2006).

----- AuxC basis set information -----
Your calculation utilizes the auxiliary basis: def2-TZVP/C
  H-La, Hf-Rn : A. Hellweg, C. Hattig, S. Hofener and W. Klopper, Theor. Chem. Acc. 117, 587 (2007).
        Ce-Lu : J. Chmela and M. E. Harding, Mol. Phys. (2018).

================================================================================
                                        WARNINGS
                       Please study these warnings very carefully!
================================================================================


WARNING: No MP2 level density has been requested!
         To caclulate MP2 level properties use
         %mp2 Density relaxed end
         or
         %mp2 Density unrelaxed end
         Otherwise for double-hybrid DFT only the energy is correct!

WARNING: The frozen-core approximation is turned on by default for 
         the MP2 part of double-hybrid DFT.

INFO   : the flag for use of the SHARK integral package has been found!

================================================================================
                                       INPUT FILE
================================================================================
NAME = b2plyp.inp
|  1> !RI-B2PLYP def2-TZVP def2-TZVP/C
|  2> !RIJCOSX VERYSLOWCONV
|  3> 
|  4> %scf
|  5>   AutoTRAHIter 200
|  6>   maxiter 400
|  7> end
|  8> 
|  9> 
| 10> %pal nprocs 6 end 
| 11> 
| 12> *xyzfile 0 6 pbe.xyz
| 13> 
| 14> $new_job
| 15> 
| 16> !RI-B2PLYP def2-TZVP def2-TZVP/C
| 17> !RIJCOSX VERYSLOWCONV
| 18> 
| 19> %scf
| 20>   AutoTRAHIter 200
| 21>   maxiter 400
| 22> end
| 23> 
| 24> 
| 25> %pal nprocs 6 end 
| 26> 
| 27> *xyzfile 0 4 pbe.xyz
| 28> 
| 29> 
| 30> 
| 31> 
| 32> 
| 33>                          ****END OF INPUT****
================================================================================


                 $$$$$$$$$$$$$$$$$$$$$$$$$$$$$$$$$$$$$$$$$$$$$$ 
                 $ THERE ARE  2 JOBS TO BE PROCESSED THIS RUN $
                 $$$$$$$$$$$$$$$$$$$$$$$$$$$$$$$$$$$$$$$$$$$$$$ 




                 $$$$$$$$$$$$$$$$  JOB NUMBER  1 $$$$$$$$$$$$$$


                       ****************************
                       * Single Point Calculation *
                       ****************************

---------------------------------
CARTESIAN COORDINATES (ANGSTROEM)
---------------------------------
  Au     8.281853    7.693476   11.644014
  Au     7.823278    5.385492   10.426492
  Au     9.416817    7.451548    9.089886
  Au     7.348300    3.450184    8.763401
  Au     6.493577    7.822642    9.484179
  Au     6.205781    8.248715    6.919426
  Au     7.035865    3.928219    6.032678
  Au     9.121892    7.874378    6.524669
  Au     7.199918    6.294156    4.974315
  Au     7.468873    8.887958    4.496057
  Mn     7.532459    5.983388    7.726340

----------------------------
CARTESIAN COORDINATES (A.U.)
----------------------------
  NO LB      ZA    FRAG     MASS         X           Y           Z
   0 Au   19.0000*   0   196.966   15.650434   14.538562   22.003998
   1 Au   19.0000*   0   196.966   14.783853   10.177105   19.703214
   2 Au   19.0000*   0   196.966   17.795204   14.081386   17.177395
   3 Au   19.0000*   0   196.966   13.886275    6.519902   16.560429
   4 Au   19.0000*   0   196.966   12.271083   14.782652   17.922502
   5 Au   19.0000*   0   196.966   11.727227   15.587813   13.075820
   6 Au   19.0000*   0   196.966   13.295857    7.423258   11.400109
   7 Au   19.0000*   0   196.966   17.237878   14.880418   12.329837
   8 Au   19.0000*   0   196.966   13.605873   11.894231    9.400093
   9 Au   19.0000*   0   196.966   14.114125   16.795807    8.496316
  10 Mn   25.0000    0    54.940   14.234286   11.306964   14.600667
* core charge reduced due to ECP

--------------------------------
INTERNAL COORDINATES (ANGSTROEM)
--------------------------------
 Au     0   0   0     0.000000000000     0.00000000     0.00000000
 Au     1   0   0     2.649422500108     0.00000000     0.00000000
 Au     1   2   0     2.805395145228    64.94537044     0.00000000
 Au     2   1   3     2.595552623345   167.33223141   323.86688650
 Au     1   2   3     2.807044546465    64.92722794    71.57393727
 Au     5   1   2     2.615783812643   146.30579388   267.16494894
 Au     4   2   1     2.789800074506   121.32610553     0.30081798
 Au     3   1   2     2.616506100849   146.41341100    92.68924688
 Au     7   4   2     2.597056559542   123.22457292     0.16344430
 Au     9   7   4     2.651203469250   166.21714929   359.59487558
 Mn     7   4   2     2.709024936763    59.83515985     0.05069703

---------------------------
INTERNAL COORDINATES (A.U.)
---------------------------
 Au     0   0   0     0.000000000000     0.00000000     0.00000000
 Au     1   0   0     5.006682938253     0.00000000     0.00000000
 Au     1   2   0     5.301428521912    64.94537044     0.00000000
 Au     2   1   3     4.904883624303   167.33223141   323.86688650
 Au     1   2   3     5.304545438536    64.92722794    71.57393727
 Au     5   1   2     4.943115031439   146.30579388   267.16494894
 Au     4   2   1     5.271958109210   121.32610553     0.30081798
 Au     3   1   2     4.944479958339   146.41341100    92.68924688
 Au     7   4   2     4.907725651838   123.22457292     0.16344430
 Au     9   7   4     5.010048482184   166.21714929   359.59487558
 Mn     7   4   2     5.119315220445    59.83515985     0.05069703

---------------------
BASIS SET INFORMATION
---------------------
There are 2 groups of distinct atoms

 Group   1 Type Au  : 8s7p6d1f contracted to 6s4p3d1f pattern {311111/4111/411/1}
 Group   2 Type Mn  : 17s11p7d1f contracted to 6s4p4d1f pattern {842111/6311/4111/1}

Atom   0Au   basis set group =>   1
Atom   1Au   basis set group =>   1
Atom   2Au   basis set group =>   1
Atom   3Au   basis set group =>   1
Atom   4Au   basis set group =>   1
Atom   5Au   basis set group =>   1
Atom   6Au   basis set group =>   1
Atom   7Au   basis set group =>   1
Atom   8Au   basis set group =>   1
Atom   9Au   basis set group =>   1
Atom  10Mn   basis set group =>   2
---------------------------------
AUXILIARY/J BASIS SET INFORMATION
---------------------------------
There are 2 groups of distinct atoms

 Group   1 Type Au  : 11s5p5d3f3g contracted to 8s5p5d2f3g pattern {41111111/11111/11111/21/111}
 Group   2 Type Mn  : 19s5p5d3f3g contracted to 8s5p5d2f3g pattern {121111111/11111/11111/21/111}

Atom   0Au   basis set group =>   1
Atom   1Au   basis set group =>   1
Atom   2Au   basis set group =>   1
Atom   3Au   basis set group =>   1
Atom   4Au   basis set group =>   1
Atom   5Au   basis set group =>   1
Atom   6Au   basis set group =>   1
Atom   7Au   basis set group =>   1
Atom   8Au   basis set group =>   1
Atom   9Au   basis set group =>   1
Atom  10Mn   basis set group =>   2
---------------------------------
AUXILIARY/C BASIS SET INFORMATION
---------------------------------
There are 2 groups of distinct atoms

 Group   1 Type Au  : 8s8p7d5f3g2h contracted to 8s8p7d5f3g2h pattern {11111111/11111111/1111111/11111/111/11}
 Group   2 Type Mn  : 11s9p8d6f5g2h contracted to 9s8p8d6f5g2h pattern {311111111/21111111/11111111/111111/11111/11}

Atom   0Au   basis set group =>   1
Atom   1Au   basis set group =>   1
Atom   2Au   basis set group =>   1
Atom   3Au   basis set group =>   1
Atom   4Au   basis set group =>   1
Atom   5Au   basis set group =>   1
Atom   6Au   basis set group =>   1
Atom   7Au   basis set group =>   1
Atom   8Au   basis set group =>   1
Atom   9Au   basis set group =>   1
Atom  10Mn   basis set group =>   2
-------------------------
ECP PARAMETER INFORMATION
-------------------------

 Group 1, Type Au ECP Def2-ECP (replacing 60 core electrons, lmax=3)

Atom   0Au   ECP group =>   1
Atom   1Au   ECP group =>   1
Atom   2Au   ECP group =>   1
Atom   3Au   ECP group =>   1
Atom   4Au   ECP group =>   1
Atom   5Au   ECP group =>   1
Atom   6Au   ECP group =>   1
Atom   7Au   ECP group =>   1
Atom   8Au   ECP group =>   1
Atom   9Au   ECP group =>   1



           ************************************************************
           *        Program running with 6 parallel MPI-processes     *
           *              working on a common directory               *
           ************************************************************
------------------------------------------------------------------------------
                           ORCA GTO INTEGRAL CALCULATION
                           -- RI-GTO INTEGRALS CHOSEN --
------------------------------------------------------------------------------
------------------------------------------------------------------------------
                   ___                                                        
                  /   \      - P O W E R E D   B Y -                         
                 /     \                                                     
                 |  |  |   _    _      __       _____    __    __             
                 |  |  |  | |  | |    /  \     |  _  \  |  |  /  |          
                  \  \/   | |  | |   /    \    | | | |  |  | /  /          
                 / \  \   | |__| |  /  /\  \   | |_| |  |  |/  /          
                |  |  |   |  __  | /  /__\  \  |    /   |      \           
                |  |  |   | |  | | |   __   |  |    \   |  |\   \          
                \     /   | |  | | |  |  |  |  | |\  \  |  | \   \       
                 \___/    |_|  |_| |__|  |__|  |_| \__\ |__|  \__/        
                                                                              
                      - O R C A' S   B I G   F R I E N D -                    
                                      &                                       
                       - I N T E G R A L  F E E D E R -                       
                                                                              
 v1 FN, 2020, v2 2021                                                         
------------------------------------------------------------------------------


Reading SHARK input file b2plyp.SHARKINP.tmp ... ok
----------------------
SHARK INTEGRAL PACKAGE
----------------------

Number of atoms                             ...     11
Number of basis functions                   ...    445
Number of shells                            ...    155
Maximum angular momentum                    ...      3
Integral batch strategy                     ... SHARK/LIBINT Hybrid
RI-J (if used) integral strategy            ... SPLIT-RIJ (Revised 2003 algorithm where possible)
Printlevel                                  ...      1
Contraction scheme used                     ... SEGMENTED contraction
Coulomb Range Separation                    ... NOT USED
Exchange Range Separation                   ... NOT USED
Finite Nucleus Model                        ... NOT USED
Auxiliary Coulomb fitting basis             ... AVAILABLE
   # of basis functions in Aux-J            ...    979
   # of shells in Aux-J                     ...    253
   Maximum angular momentum in Aux-J        ...      4
Auxiliary J/K fitting basis                 ... NOT available
Auxiliary Correlation fitting basis         ... AVAILABLE
   # of basis functions in Aux-C            ...   1692
   # of shells in Aux-C                     ...    368
   Maximum angular momentum in Aux-C        ...      5
Auxiliary 'external' fitting basis          ... NOT available
Integral threshold                          ...     1.000000e-10
Primitive cut-off                           ...     1.000000e-11
Primitive pair pre-selection threshold      ...     1.000000e-11

Calculating pre-screening integrals         ... done (  0.2 sec) Dimension = 155
Organizing shell pair data                  ... done (  1.2 sec)
Shell pair information
Total number of shell pairs                 ...     12090
Shell pairs after pre-screening             ...      9676
Total number of primitive shell pairs       ...     33105
Primitive shell pairs kept                  ...     19432
          la=0 lb=0:   1535 shell pairs
          la=1 lb=0:   2198 shell pairs
          la=1 lb=1:    837 shell pairs
          la=2 lb=0:   1916 shell pairs
          la=2 lb=1:   1358 shell pairs
          la=2 lb=2:    561 shell pairs
          la=3 lb=0:    510 shell pairs
          la=3 lb=1:    382 shell pairs
          la=3 lb=2:    328 shell pairs
          la=3 lb=3:     51 shell pairs

Calculating one electron integrals          ... done (  0.0 sec)
Calculating ECP integrals                   ... done (  9.4 sec)
Calculating RI/J V-Matrix + Cholesky decomp.... done (  0.1 sec)
Calculating RI/C V-Matrix + Cholesky decomp.... done (  0.3 sec)
Calculating Nuclear repulsion               ... done (  0.0 sec) ENN=   3057.469587505664 Eh

SHARK setup successfully completed in  11.6 seconds

Maximum memory used throughout the entire GTOINT-calculation: 29.8 MB


           ************************************************************
           *        Program running with 6 parallel MPI-processes     *
           *              working on a common directory               *
           ************************************************************
-------------------------------------------------------------------------------
                                 ORCA SCF
-------------------------------------------------------------------------------

------------
SCF SETTINGS
------------
Hamiltonian:
 Density Functional     Method          .... DFT(GTOs)
 Exchange Functional    Exchange        .... B88
   X-Alpha parameter    XAlpha          ....  0.666667
   Becke's b parameter  XBeta           ....  0.004200
 Correlation Functional Correlation     .... LYP
 LDA part of GGA corr.  LDAOpt          .... VWN-3
 Gradients option       PostSCFGGA      .... off
 Hybrid DFT is turned on
   Fraction HF Exchange ScalHFX         ....  0.530000
   Scaling of DF-GGA-X  ScalDFX         ....  0.470000
   Scaling of DF-GGA-C  ScalDFC         ....  0.730000
   Scaling of DF-LDA-C  ScalLDAC        ....  0.730000
   Perturbative correction              ....  0.270000
   Density functional embedding theory  .... OFF
   NL short-range parameter             ....  7.800000
 RI-approximation to the Coulomb term is turned on
   Number of AuxJ basis functions       .... 979
   RIJ-COSX (HFX calculated with COS-X)).... on


General Settings:
 Integral files         IntName         .... b2plyp
 Hartree-Fock type      HFTyp           .... UHF
 Total Charge           Charge          ....    0
 Multiplicity           Mult            ....    6
 Number of Electrons    NEL             ....  215
 Basis Dimension        Dim             ....  445
 Nuclear Repulsion      ENuc            ....   3057.4695875057 Eh

Convergence Acceleration:
 DIIS                   CNVDIIS         .... on
   Start iteration      DIISMaxIt       ....     0
   Startup error        DIISStart       ....  0.200000
   # of expansion vecs  DIISMaxEq       ....     5
   Bias factor          DIISBfac        ....   1.050
   Max. coefficient     DIISMaxC        ....  10.000
 Trust-Rad. Augm. Hess. CNVTRAH         .... auto
   Auto Start mean grad. ratio tolernc. ....  1.125000
   Auto Start start iteration           ....   200
   Auto Start num. interpolation iter.  ....    10
   Max. Number of Micro iterations      ....    16
   Max. Number of Macro iterations      .... Maxiter - #DIIS iter
   Number of Davidson start vectors     ....     2
   Converg. threshold I  (grad. norm)   ....   5.000e-05
   Converg. threshold II (energy diff.) ....   1.000e-06
   Grad. Scal. Fac. for Micro threshold ....   0.100
   Minimum threshold for Micro iter.    ....   0.010
   NR start threshold (gradient norm)   ....   0.001
   Initial trust radius                 ....   0.400
   Minimum AH scaling param. (alpha)    ....   1.000
   Maximum AH scaling param. (alpha)    .... 1000.000
   Orbital update algorithm             .... Taylor
   White noise on init. David. guess    .... on
   Maximum white noise                  ....   0.010
   Quad. conv. algorithm                .... NR
 SOSCF                  CNVSOSCF        .... off
 Level Shifting         CNVShift        .... on
   Level shift para.    LevelShift      ....    0.2500
   Turn off err/grad.   ShiftErr        ....    0.0000
 Zerner damping         CNVZerner       .... off
 Static damping         CNVDamp         .... on
   Fraction old density DampFac         ....    0.9200
   Max. Damping (<1)    DampMax         ....    0.9800
   Min. Damping (>=0)   DampMin         ....    0.0000
   Turn off err/grad.   DampErr         ....    0.0030
 Fernandez-Rico         CNVRico         .... off

SCF Procedure:
 Maximum # iterations   MaxIter         ....   400
 SCF integral mode      SCFMode         .... Direct
   Integral package                     .... SHARK and LIBINT hybrid scheme
 Reset frequency        DirectResetFreq ....    20
 Integral Threshold     Thresh          ....  1.000e-10 Eh
 Primitive CutOff       TCut            ....  1.000e-11 Eh

Convergence Tolerance:
 Convergence Check Mode ConvCheckMode   .... Total+1el-Energy
 Convergence forced     ConvForced      .... 0
 Energy Change          TolE            ....  1.000e-06 Eh
 1-El. energy change                    ....  1.000e-03 Eh
 DIIS Error             TolErr          ....  1.000e-06


Diagonalization of the overlap matrix:
Smallest eigenvalue                        ... 6.733e-04
Time for diagonalization                   ...    0.072 sec
Threshold for overlap eigenvalues          ... 1.000e-08
Number of eigenvalues below threshold      ... 0
Time for construction of square roots      ...    0.042 sec
Total time needed                          ...    0.116 sec

Time for model grid setup =    0.601 sec

------------------------------
INITIAL GUESS: MODEL POTENTIAL
------------------------------
Loading Hartree-Fock densities                     ... done
  calling /home/ehlert/src/miniconda3/envs/orca500/Programs/ORCA501/orca b2plyp_atom79.inp > b2plyp_atom79.out in order to generate an atomic fitting density for atom 0 (Au with ECP) on-the-fly... 
    atom 0 (Au), assumed electronic state with S=2: 1s2 2s2 2p6 3s2 3p6 4s2 3d10 4p6 5s2 4d10 5p6 6s1 4f14 5d10           ... done
Calculating cut-offs                               ... done
Initializing the effective Hamiltonian             ... done
Setting up the integral package (SHARK)            ... done
Starting the Coulomb interaction                   ... done (   0.4 sec)
Reading the grid                                   ... done
Mapping shells                                     ... done
Starting the XC term evaluation                    ... done (   0.5 sec)
  promolecular density results
     # of electrons  =    815.012457909
     EX              =  -3724.532412321
     EC              =    -16.513742149
     EX+EC           =  -3741.046154469
Transforming the Hamiltonian                       ... done (   0.0 sec)
Diagonalizing the Hamiltonian                      ... done (   0.1 sec)
Back transforming the eigenvectors                 ... done (   0.0 sec)
Now organizing SCF variables                       ... done
                      ------------------
                      INITIAL GUESS DONE (   2.8 sec)
                      ------------------
-------------------
DFT GRID GENERATION
-------------------

General Integration Accuracy     IntAcc      ... 4.388
Radial Grid Type                 RadialGrid  ... OptM3 with GC (2021)
Angular Grid (max. ang.)         AngularGrid ... 4 (Lebedev-302)
Angular grid pruning method      GridPruning ... 4 (adaptive)
Weight generation scheme         WeightScheme... Becke
Basis function cutoff            BFCut       ... 1.0000e-10
Integration weight cutoff        WCut        ... 1.0000e-14
Angular grids for H and He will be reduced by one unit
Partially contracted basis set               ... off
Rotationally invariant grid construction     ... off

Total number of grid points                  ...   123722
Total number of batches                      ...     1939
Average number of points per batch           ...       63
Average number of grid points per atom       ...    11247
Time for grid setup =    1.951 sec

--------------------
COSX GRID GENERATION
--------------------

GRIDX 1
-------
General Integration Accuracy     IntAcc      ... 3.816
Radial Grid Type                 RadialGrid  ... OptM3 with GC (2021)
Angular Grid (max. ang.)         AngularGrid ... 1 (Lebedev-50)
Angular grid pruning method      GridPruning ... 4 (adaptive)
Weight generation scheme         WeightScheme... Becke
Basis function cutoff            BFCut       ... 1.0000e-10
Integration weight cutoff        WCut        ... 1.0000e-14
Angular grids for H and He will be reduced by one unit
Partially contracted basis set               ... on
Rotationally invariant grid construction     ... off

Total number of grid points                  ...    13070
Total number of batches                      ...      211
Average number of points per batch           ...       61
Average number of grid points per atom       ...     1188
UseSFitting                                  ... on

GRIDX 2
-------
General Integration Accuracy     IntAcc      ... 4.020
Radial Grid Type                 RadialGrid  ... OptM3 with GC (2021)
Angular Grid (max. ang.)         AngularGrid ... 2 (Lebedev-110)
Angular grid pruning method      GridPruning ... 4 (adaptive)
Weight generation scheme         WeightScheme... Becke
Basis function cutoff            BFCut       ... 1.0000e-10
Integration weight cutoff        WCut        ... 1.0000e-14
Angular grids for H and He will be reduced by one unit
Partially contracted basis set               ... on
Rotationally invariant grid construction     ... off

Total number of grid points                  ...    39522
Total number of batches                      ...      624
Average number of points per batch           ...       63
Average number of grid points per atom       ...     3593
UseSFitting                                  ... on

GRIDX 3
-------
General Integration Accuracy     IntAcc      ... 4.338
Radial Grid Type                 RadialGrid  ... OptM3 with GC (2021)
Angular Grid (max. ang.)         AngularGrid ... 3 (Lebedev-194)
Angular grid pruning method      GridPruning ... 4 (adaptive)
Weight generation scheme         WeightScheme... Becke
Basis function cutoff            BFCut       ... 1.0000e-10
Integration weight cutoff        WCut        ... 1.0000e-14
Angular grids for H and He will be reduced by one unit
Partially contracted basis set               ... on
Rotationally invariant grid construction     ... off

Total number of grid points                  ...    72807
Total number of batches                      ...     1141
Average number of points per batch           ...       63
Average number of grid points per atom       ...     6619
UseSFitting                                  ... on

Time for X-Grid setup             =    1.633 sec

--------------
SCF ITERATIONS
--------------
ITER       Energy         Delta-E        Max-DP      RMS-DP      [F,P]     Damp
               ***  Starting incremental Fock matrix formation  ***
  0  -2503.6937411791   0.000000000000 0.05527992  0.00048247  0.2719292 0.9200
  1  -2503.9169819808  -0.223240801686 0.05269489  0.00047711  0.2505321 0.9200
                               ***Turning on DIIS***
  2  -2504.0208097689  -0.103827788087 0.03216236  0.00036923  0.2305559 0.9200
  3  -2504.0619598679  -0.041150098974 0.02589718  0.00026537  0.2121216 0.9200
  4  -2504.1210569465  -0.059097078653 0.02441961  0.00024946  0.1950650 0.9200
  5  -2504.1799673895  -0.058910442950 0.02264770  0.00023356  0.1793734 0.9200
  6  -2504.2346771964  -0.054709806910 0.02108440  0.00021705  0.1650297 0.9200
  7  -2504.2882225526  -0.053545356226 0.01945299  0.00020425  0.1518888 0.9200
  8  -2504.3402993481  -0.052076795507 0.01822697  0.00019336  0.1398115 0.9200
  9  -2504.3891355965  -0.048836248357 0.01694995  0.00018021  0.1286579 0.9200
 10  -2504.4351667599  -0.046031163428 0.01563169  0.00016784  0.1183500 0.9200
 11  -2504.4781757444  -0.043008984489 0.01440893  0.00015575  0.1088523 0.9200
 12  -2504.5187711028  -0.040595358412 0.01328562  0.00014447  0.1001320 0.9200
 13  -2504.5571860237  -0.038414920933 0.01225288  0.00013433  0.0921310 0.9200
 14  -2504.5932913579  -0.036105334130 0.01129626  0.00012477  0.0847750 0.9200
 15  -2504.6271470441  -0.033855686198 0.01040519  0.00011573  0.0779983 0.9200
 16  -2504.6588672734  -0.031720229365 0.00958499  0.00010719  0.0717552 0.9200
 17  -2504.6885968372  -0.029729563741 0.00883116  0.00009919  0.0660114 0.9200
 18  -2504.7164561338  -0.027859296674 0.00813463  0.00009178  0.0607316 0.9200
 19  -2504.7425219115  -0.026065777673 0.00749007  0.00008496  0.0558770 0.9200
               *** Restarting incremental Fock matrix formation ***
                                   *** Resetting DIIS ***
 20  -2504.7651249518  -0.022603040299 0.00662861  0.00007432  0.0514102 0.9200
 21  -2504.7880930535  -0.022968101649 0.00610779  0.00006811  0.0472966 0.9200
 22  -2504.8094538107  -0.021360757200 0.00569686  0.00006379  0.0435135 0.9200
 23  -2504.8292720198  -0.019818209113 0.00532532  0.00006049  0.0400395 0.9200
 24  -2504.8476378482  -0.018365828430 0.00496597  0.00005742  0.0368469 0.9200
 25  -2504.8646570527  -0.017019204518 0.00459881  0.00005393  0.0339090 0.9200
 26  -2504.8804507530  -0.015793700327 0.00425000  0.00005044  0.0312011 0.9200
 27  -2504.8951037130  -0.014652959955 0.00392882  0.00004702  0.0287063 0.9200
 28  -2504.9086944370  -0.013590723958 0.00363509  0.00004374  0.0264101 0.9200
 29  -2504.9212976429  -0.012603205967 0.00335923  0.00004064  0.0242981 0.9200
 30  -2504.9329829462  -0.011685303284 0.00310401  0.00003773  0.0223558 0.9200
 31  -2504.9438140918  -0.010831145589 0.00286956  0.00003501  0.0205692 0.9200
 32  -2504.9538494264  -0.010035334629 0.00265393  0.00003247  0.0189253 0.9200
 33  -2504.9631434346  -0.009294008156 0.00245432  0.00003011  0.0174125 0.9200
 34  -2504.9717474487  -0.008604014140 0.00226876  0.00002792  0.0160205 0.9200
 35  -2504.9797097567  -0.007962307930 0.00209656  0.00002588  0.0147398 0.9200
 36  -2504.9870756025  -0.007365845843 0.00193745  0.00002399  0.0135615 0.9200
 37  -2504.9938872892  -0.006811686679 0.00179083  0.00002224  0.0124777 0.9200
 38  -2505.0001844101  -0.006297120893 0.00165559  0.00002062  0.0114814 0.9200
 39  -2505.0060039880  -0.005819577955 0.00153025  0.00001914  0.0105646 0.9200
               *** Restarting incremental Fock matrix formation ***
                                   *** Resetting DIIS ***
 40  -2505.0113815245  -0.005377536488 0.00134374  0.00001605  0.0097210 0.9200
 41  -2505.0163637611  -0.004982236593 0.00123232  0.00001454  0.0089481 0.9200
 42  -2505.0209616551  -0.004597894037 0.00115007  0.00001374  0.0082362 0.9200
 43  -2505.0252018133  -0.004240158111 0.00108058  0.00001323  0.0075806 0.9200
 44  -2505.0291106010  -0.003908787699 0.00101535  0.00001275  0.0069768 0.9200
 45  -2505.0327134601  -0.003602859157 0.00094743  0.00001208  0.0064205 0.9200
 46  -2505.0360356241  -0.003322164029 0.00088272  0.00001138  0.0059083 0.9200
 47  -2505.0390990972  -0.003063473106 0.00082115  0.00001069  0.0054367 0.9200
 48  -2505.0419239853  -0.002824888104 0.00076255  0.00001001  0.0050027 0.9200
 49  -2505.0445287921  -0.002604806795 0.00070725  0.00000936  0.0046033 0.9200
 50  -2505.0469305750  -0.002401782876 0.00065573  0.00000874  0.0042359 0.9200
 51  -2505.0491450050  -0.002214430022 0.00060808  0.00000816  0.0038978 0.9200
 52  -2505.0511865064  -0.002041501374 0.00056405  0.00000761  0.0035867 0.9200
 53  -2505.0530683938  -0.001881887426 0.00052317  0.00000710  0.0033004 0.9200
 54  -2505.0548029782  -0.001734584374 0.00048510  0.00000662  0.0030372 0.9200
 55  -2505.0564016516  -0.001598673411 0.00562109  0.00007710  0.0027950 0.0000
 56  -2505.0750069683  -0.018605316629 0.00064716  0.00000582  0.0002737 0.0000
               *** Restarting incremental Fock matrix formation ***
                                   *** Resetting DIIS ***
 57  -2505.0765556525  -0.001548684234 0.00675873  0.00010502  0.0005054 0.0000
 58  -2505.0766637181  -0.000108065604 0.00253000  0.00003811  0.0001685 0.0000
 59  -2505.0766800761  -0.000016358002 0.00083210  0.00001323  0.0001129 0.0000
 60  -2505.0766833205  -0.000003244423 0.00031084  0.00000566  0.0000584 0.0000
 61  -2505.0766846747  -0.000001354183 0.00020199  0.00000277  0.0000492 0.0000
 62  -2505.0766852356  -0.000000560881 0.00018023  0.00000188  0.0000332 0.0000
 63  -2505.0766855670  -0.000000331386 0.00012977  0.00000149  0.0000313 0.0000
 64  -2505.0766857633  -0.000000196314 0.00010950  0.00000122  0.0000234 0.0000
                 **** Energy Check signals convergence ****

               *****************************************************
               *                     SUCCESS                       *
               *           SCF CONVERGED AFTER  65 CYCLES          *
               *****************************************************

Old exchange energy                            =    -90.245569560 Eh
New exchange energy                            =    -90.245687775 Eh
Exchange energy change after final integration =     -0.000118216 Eh
Total energy after final integration           =  -2505.076804093 Eh
Final COS-X integration done in                =    17.150 sec

----------------
TOTAL SCF ENERGY
----------------

Total Energy       :        -2505.07680409 Eh          -68166.60536 eV

Components:
Nuclear Repulsion  :         3057.46958751 Eh           83197.97718 eV
Electronic Energy  :        -5562.54639160 Eh         -151364.58254 eV
One Electron Energy:       -10084.28678288 Eh         -274407.39396 eV
Two Electron Energy:         4521.74039128 Eh          123042.81142 eV
Max COSX asymmetry :            0.00001291 Eh               0.00035 eV

Virial components:
Potential Energy   :        -4114.08296723 Eh         -111949.88896 eV
Kinetic Energy     :         1609.00616314 Eh           43783.28360 eV
Virial Ratio       :            2.55690939


DFT components:
N(Alpha)           :      109.999979493142 electrons
N(Beta)            :      104.999980102205 electrons
N(Total)           :      214.999959595348 electrons
E(X)               :      -81.208761913480 Eh       
E(C)               :       -5.925401846832 Eh       
E(XC)              :      -87.134163760312 Eh       
DFET-embed. en.    :        0.000000000000 Eh       

---------------
SCF CONVERGENCE
---------------

  Last Energy change         ...   -1.1385e-07  Tolerance :   1.0000e-06
  Last MAX-Density change    ...    0.0000e+00  Tolerance :   1.0000e-05
  Last RMS-Density change    ...    0.0000e+00  Tolerance :   1.0000e-06
  Last DIIS Error            ...    1.9561e-05  Tolerance :   1.0000e-06

             **** THE GBW FILE WAS UPDATED (b2plyp.gbw) ****
             **** DENSITY b2plyp.scfp WAS UPDATED ****
             **** ENERGY FILE WAS UPDATED (b2plyp.en.tmp) ****
----------------------
UHF SPIN CONTAMINATION
----------------------

Warning: in a DFT calculation there is little theoretical justification to 
         calculate <S**2> as in Hartree-Fock theory. We will do it anyways
         but you should keep in mind that the values have only limited relevance

Expectation value of <S**2>     :     8.776370
Ideal value S*(S+1) for S=2.5   :     8.750000
Deviation                       :     0.026370

             **** THE GBW FILE WAS UPDATED (b2plyp.gbw) ****
             **** DENSITY b2plyp.scfp WAS UPDATED ****
----------------
ORBITAL ENERGIES
----------------
                 SPIN UP ORBITALS
  NO   OCC          E(Eh)            E(eV) 
   0   1.0000    -237.624770     -6466.0987 
   1   1.0000     -28.128890      -765.4260 
   2   1.0000     -24.047178      -654.3570 
   3   1.0000     -24.046314      -654.3335 
   4   1.0000     -24.045780      -654.3189 
   5   1.0000      -4.400847      -119.7531 
   6   1.0000      -4.400043      -119.7313 
   7   1.0000      -4.392250      -119.5192 
   8   1.0000      -4.391940      -119.5108 
   9   1.0000      -4.391670      -119.5034 
  10   1.0000      -4.390890      -119.4822 
  11   1.0000      -4.390869      -119.4816 
  12   1.0000      -4.390781      -119.4792 
  13   1.0000      -4.390454      -119.4703 
  14   1.0000      -4.390351      -119.4675 
  15   1.0000      -3.608166       -98.1832 
  16   1.0000      -2.524994       -68.7086 
  17   1.0000      -2.524330       -68.6905 
  18   1.0000      -2.518753       -68.5388 
  19   1.0000      -2.518006       -68.5184 
  20   1.0000      -2.515756       -68.4572 
  21   1.0000      -2.515358       -68.4464 
  22   1.0000      -2.513105       -68.3851 
  23   1.0000      -2.512952       -68.3809 
  24   1.0000      -2.512486       -68.3682 
  25   1.0000      -2.512411       -68.3662 
  26   1.0000      -2.511148       -68.3318 
  27   1.0000      -2.510523       -68.3148 
  28   1.0000      -2.509911       -68.2982 
  29   1.0000      -2.509375       -68.2836 
  30   1.0000      -2.509213       -68.2792 
  31   1.0000      -2.509005       -68.2735 
  32   1.0000      -2.508515       -68.2602 
  33   1.0000      -2.507697       -68.2379 
  34   1.0000      -2.507627       -68.2360 
  35   1.0000      -2.506615       -68.2085 
  36   1.0000      -2.506557       -68.2069 
  37   1.0000      -2.506028       -68.1925 
  38   1.0000      -2.504658       -68.1552 
  39   1.0000      -2.504540       -68.1520 
  40   1.0000      -2.503883       -68.1341 
  41   1.0000      -2.502983       -68.1096 
  42   1.0000      -2.502938       -68.1084 
  43   1.0000      -2.502775       -68.1040 
  44   1.0000      -2.502226       -68.0890 
  45   1.0000      -2.501916       -68.0806 
  46   1.0000      -2.409984       -65.5790 
  47   1.0000      -2.409511       -65.5661 
  48   1.0000      -2.408768       -65.5459 
  49   1.0000      -0.514797       -14.0083 
  50   1.0000      -0.512986       -13.9591 
  51   1.0000      -0.506719       -13.7885 
  52   1.0000      -0.504142       -13.7184 
  53   1.0000      -0.498728       -13.5711 
  54   1.0000      -0.480844       -13.0844 
  55   1.0000      -0.471245       -12.8232 
  56   1.0000      -0.464658       -12.6440 
  57   1.0000      -0.463171       -12.6035 
  58   1.0000      -0.457393       -12.4463 
  59   1.0000      -0.448889       -12.2149 
  60   1.0000      -0.444865       -12.1054 
  61   1.0000      -0.435360       -11.8467 
  62   1.0000      -0.434934       -11.8351 
  63   1.0000      -0.433074       -11.7845 
  64   1.0000      -0.432566       -11.7707 
  65   1.0000      -0.429272       -11.6811 
  66   1.0000      -0.424002       -11.5377 
  67   1.0000      -0.419102       -11.4043 
  68   1.0000      -0.417615       -11.3639 
  69   1.0000      -0.408788       -11.1237 
  70   1.0000      -0.407228       -11.0812 
  71   1.0000      -0.406082       -11.0500 
  72   1.0000      -0.403749       -10.9866 
  73   1.0000      -0.403433       -10.9780 
  74   1.0000      -0.395575       -10.7641 
  75   1.0000      -0.392214       -10.6727 
  76   1.0000      -0.387786       -10.5522 
  77   1.0000      -0.386109       -10.5066 
  78   1.0000      -0.384912       -10.4740 
  79   1.0000      -0.383233       -10.4283 
  80   1.0000      -0.381223       -10.3736 
  81   1.0000      -0.381084       -10.3698 
  82   1.0000      -0.379462       -10.3257 
  83   1.0000      -0.374135       -10.1807 
  84   1.0000      -0.371901       -10.1199 
  85   1.0000      -0.370174       -10.0729 
  86   1.0000      -0.366485        -9.9726 
  87   1.0000      -0.365341        -9.9414 
  88   1.0000      -0.365283        -9.9398 
  89   1.0000      -0.363545        -9.8926 
  90   1.0000      -0.361562        -9.8386 
  91   1.0000      -0.359240        -9.7754 
  92   1.0000      -0.359211        -9.7746 
  93   1.0000      -0.358689        -9.7604 
  94   1.0000      -0.356992        -9.7142 
  95   1.0000      -0.355997        -9.6872 
  96   1.0000      -0.350157        -9.5283 
  97   1.0000      -0.347528        -9.4567 
  98   1.0000      -0.346748        -9.4355 
  99   1.0000      -0.342412        -9.3175 
 100   1.0000      -0.339001        -9.2247 
 101   1.0000      -0.337787        -9.1917 
 102   1.0000      -0.330977        -9.0063 
 103   1.0000      -0.324822        -8.8388 
 104   1.0000      -0.318054        -8.6547 
 105   1.0000      -0.317021        -8.6266 
 106   1.0000      -0.304375        -8.2825 
 107   1.0000      -0.238375        -6.4865 
 108   1.0000      -0.237724        -6.4688 
 109   1.0000      -0.233967        -6.3666 
 110   0.0000      -0.103730        -2.8226 
 111   0.0000      -0.076599        -2.0844 
 112   0.0000      -0.066359        -1.8057 
 113   0.0000      -0.045386        -1.2350 
 114   0.0000      -0.036467        -0.9923 
 115   0.0000      -0.024038        -0.6541 
 116   0.0000      -0.014747        -0.4013 
 117   0.0000      -0.000721        -0.0196 
 118   0.0000      -0.000667        -0.0181 
 119   0.0000       0.013124         0.3571 
 120   0.0000       0.021367         0.5814 
 121   0.0000       0.040328         1.0974 
 122   0.0000       0.044877         1.2212 
 123   0.0000       0.049100         1.3361 
 124   0.0000       0.050147         1.3646 
 125   0.0000       0.062271         1.6945 
 126   0.0000       0.079360         2.1595 
 127   0.0000       0.079924         2.1748 
 128   0.0000       0.089073         2.4238 
 129   0.0000       0.095881         2.6091 
 130   0.0000       0.102031         2.7764 
 131   0.0000       0.105599         2.8735 
 132   0.0000       0.109289         2.9739 
 133   0.0000       0.113442         3.0869 
 134   0.0000       0.114564         3.1174 
 135   0.0000       0.116541         3.1713 
 136   0.0000       0.119799         3.2599 
 137   0.0000       0.125669         3.4196 
 138   0.0000       0.139284         3.7901 
 139   0.0000       0.154106         4.1934 
 140   0.0000       0.158507         4.3132 
 141   0.0000       0.164037         4.4637 
 142   0.0000       0.172523         4.6946 
 143   0.0000       0.186949         5.0871 
 144   0.0000       0.191189         5.2025 
 145   0.0000       0.204830         5.5737 
 146   0.0000       0.212182         5.7738 
 147   0.0000       0.220249         5.9933 
 148   0.0000       0.227708         6.1962 
 149   0.0000       0.228113         6.2073 
 150   0.0000       0.241091         6.5604 
 151   0.0000       0.242024         6.5858 
 152   0.0000       0.245235         6.6732 
 153   0.0000       0.256309         6.9745 
 154   0.0000       0.277484         7.5507 
 155   0.0000       0.286410         7.7936 
 156   0.0000       0.292937         7.9712 
 157   0.0000       0.308548         8.3960 
 158   0.0000       0.310495         8.4490 
 159   0.0000       0.317649         8.6437 
 160   0.0000       0.319417         8.6918 
 161   0.0000       0.327095         8.9007 
 162   0.0000       0.329752         8.9730 
 163   0.0000       0.339084         9.2270 
 164   0.0000       0.353150         9.6097 
 165   0.0000       0.355435         9.6719 
 166   0.0000       0.362989         9.8774 
 167   0.0000       0.366353         9.9690 
 168   0.0000       0.367270         9.9939 
 169   0.0000       0.371900        10.1199 
 170   0.0000       0.375471        10.2171 
 171   0.0000       0.378063        10.2876 
 172   0.0000       0.392718        10.6864 
 173   0.0000       0.398861        10.8536 
 174   0.0000       0.399187        10.8624 
 175   0.0000       0.402200        10.9444 
 176   0.0000       0.407054        11.0765 
 177   0.0000       0.408196        11.1076 
 178   0.0000       0.408602        11.1186 
 179   0.0000       0.429719        11.6933 
 180   0.0000       0.430016        11.7013 
 181   0.0000       0.437416        11.9027 
 182   0.0000       0.442548        12.0423 
 183   0.0000       0.453878        12.3506 
 184   0.0000       0.455027        12.3819 
 185   0.0000       0.459232        12.4963 
 186   0.0000       0.461899        12.5689 
 187   0.0000       0.470398        12.8002 
 188   0.0000       0.478606        13.0235 
 189   0.0000       0.488661        13.2971 
 190   0.0000       0.493835        13.4379 
 191   0.0000       0.499104        13.5813 
 192   0.0000       0.500889        13.6299 
 193   0.0000       0.505705        13.7609 
 194   0.0000       0.519454        14.1351 
 195   0.0000       0.521690        14.1959 
 196   0.0000       0.525827        14.3085 
 197   0.0000       0.532067        14.4783 
 198   0.0000       0.545300        14.8384 
 199   0.0000       0.545448        14.8424 
 200   0.0000       0.547696        14.9036 
 201   0.0000       0.559066        15.2130 
 202   0.0000       0.569784        15.5046 
 203   0.0000       0.572137        15.5686 
 204   0.0000       0.573973        15.6186 
 205   0.0000       0.597926        16.2704 
 206   0.0000       0.598691        16.2912 
 207   0.0000       0.610916        16.6239 
 208   0.0000       0.614405        16.7188 
 209   0.0000       0.619426        16.8555 
 210   0.0000       0.640588        17.4313 
 211   0.0000       0.643856        17.5202 
 212   0.0000       0.665313        18.1041 
 213   0.0000       0.681603        18.5474 
 214   0.0000       0.694085        18.8870 
 215   0.0000       0.704060        19.1585 
 216   0.0000       0.736588        20.0436 
 217   0.0000       0.743844        20.2410 
 218   0.0000       0.764209        20.7952 
 219   0.0000       0.765362        20.8265 
 220   0.0000       0.785238        21.3674 
 221   0.0000       0.826597        22.4928 
 222   0.0000       0.844613        22.9831 
 223   0.0000       0.850432        23.1414 
 224   0.0000       0.859951        23.4005 
 225   0.0000       0.866988        23.5920 
 226   0.0000       0.893706        24.3190 
 227   0.0000       0.902328        24.5536 
 228   0.0000       0.907788        24.7022 
 229   0.0000       0.914805        24.8931 
 230   0.0000       0.919389        25.0178 
 231   0.0000       0.934294        25.4234 
 232   0.0000       0.941553        25.6210 
 233   0.0000       0.966723        26.3059 
 234   0.0000       0.986850        26.8535 
 235   0.0000       1.023962        27.8634 
 236   0.0000       1.026289        27.9267 
 237   0.0000       1.041269        28.3344 
 238   0.0000       1.060558        28.8593 
 239   0.0000       1.062017        28.8989 
 240   0.0000       1.063570        28.9412 
 241   0.0000       1.075524        29.2665 
 242   0.0000       1.089667        29.6513 
 243   0.0000       1.112799        30.2808 
 244   0.0000       1.123614        30.5751 
 245   0.0000       1.137672        30.9576 
 246   0.0000       1.170004        31.8374 
 247   0.0000       1.186080        32.2749 
 248   0.0000       1.268853        34.5272 
 249   0.0000       1.379396        37.5353 
 250   0.0000       1.393245        37.9121 
 251   0.0000       1.427415        38.8419 
 252   0.0000       1.444980        39.3199 
 253   0.0000       1.447865        39.3984 
 254   0.0000       1.456001        39.6198 
 255   0.0000       1.474413        40.1208 
 256   0.0000       1.512872        41.1673 
 257   0.0000       1.513173        41.1755 
 258   0.0000       1.513983        41.1976 
 259   0.0000       1.535583        41.7853 
 260   0.0000       1.536241        41.8032 
 261   0.0000       1.539479        41.8914 
 262   0.0000       1.539829        41.9009 
 263   0.0000       1.542539        41.9746 
 264   0.0000       1.545900        42.0661 
 265   0.0000       1.565368        42.5958 
 266   0.0000       1.565869        42.6095 
 267   0.0000       1.567318        42.6489 
 268   0.0000       1.578224        42.9457 
 269   0.0000       1.583804        43.0975 
 270   0.0000       1.595095        43.4047 
 271   0.0000       1.598565        43.4992 
 272   0.0000       1.601863        43.5889 
 273   0.0000       1.607784        43.7500 
 274   0.0000       1.618033        44.0289 
 275   0.0000       1.629450        44.3396 
 276   0.0000       1.641140        44.6577 
 277   0.0000       1.642780        44.7023 
 278   0.0000       1.645138        44.7665 
 279   0.0000       1.646651        44.8077 
 280   0.0000       1.649334        44.8807 
 281   0.0000       1.652394        44.9639 
 282   0.0000       1.657383        45.0997 
 283   0.0000       1.659393        45.1544 
 284   0.0000       1.661264        45.2053 
 285   0.0000       1.663186        45.2576 
 286   0.0000       1.668220        45.3946 
 287   0.0000       1.674059        45.5535 
 288   0.0000       1.674803        45.5737 
 289   0.0000       1.680081        45.7173 
 290   0.0000       1.680228        45.7213 
 291   0.0000       1.680346        45.7245 
 292   0.0000       1.680951        45.7410 
 293   0.0000       1.683808        45.8187 
 294   0.0000       1.685353        45.8608 
 295   0.0000       1.686063        45.8801 
 296   0.0000       1.689893        45.9843 
 297   0.0000       1.693739        46.0890 
 298   0.0000       1.694181        46.1010 
 299   0.0000       1.694568        46.1116 
 300   0.0000       1.696517        46.1646 
 301   0.0000       1.696615        46.1673 
 302   0.0000       1.699784        46.2535 
 303   0.0000       1.700885        46.2834 
 304   0.0000       1.701961        46.3127 
 305   0.0000       1.703638        46.3583 
 306   0.0000       1.704177        46.3730 
 307   0.0000       1.706972        46.4491 
 308   0.0000       1.708618        46.4939 
 309   0.0000       1.710601        46.5478 
 310   0.0000       1.713327        46.6220 
 311   0.0000       1.713772        46.6341 
 312   0.0000       1.715802        46.6893 
 313   0.0000       1.722298        46.8661 
 314   0.0000       1.724812        46.9345 
 315   0.0000       1.727903        47.0186 
 316   0.0000       1.729208        47.0541 
 317   0.0000       1.730551        47.0907 
 318   0.0000       1.733024        47.1580 
 319   0.0000       1.736609        47.2555 
 320   0.0000       1.738987        47.3202 
 321   0.0000       1.742938        47.4278 
 322   0.0000       1.744104        47.4595 
 323   0.0000       1.748289        47.5734 
 324   0.0000       1.749882        47.6167 
 325   0.0000       1.751923        47.6722 
 326   0.0000       1.753967        47.7279 
 327   0.0000       1.757368        47.8204 
 328   0.0000       1.758043        47.8388 
 329   0.0000       1.765958        48.0542 
 330   0.0000       1.766009        48.0555 
 331   0.0000       1.767521        48.0967 
 332   0.0000       1.771098        48.1940 
 333   0.0000       1.774821        48.2953 
 334   0.0000       1.779509        48.4229 
 335   0.0000       1.780490        48.4496 
 336   0.0000       1.786148        48.6036 
 337   0.0000       1.787961        48.6529 
 338   0.0000       1.788653        48.6717 
 339   0.0000       1.790887        48.7325 
 340   0.0000       1.798468        48.9388 
 341   0.0000       1.799055        48.9548 
 342   0.0000       1.800382        48.9909 
 343   0.0000       1.808893        49.2225 
 344   0.0000       1.813009        49.3345 
 345   0.0000       1.830640        49.8142 
 346   0.0000       1.831593        49.8402 
 347   0.0000       1.836724        49.9798 
 348   0.0000       1.839126        50.0452 
 349   0.0000       1.840140        50.0727 
 350   0.0000       1.851278        50.3758 
 351   0.0000       1.876180        51.0535 
 352   0.0000       1.882236        51.2183 
 353   0.0000       1.887733        51.3678 
 354   0.0000       1.905181        51.8426 
 355   0.0000       1.919733        52.2386 
 356   0.0000       1.930856        52.5413 
 357   0.0000       1.940215        52.7959 
 358   0.0000       1.992870        54.2287 
 359   0.0000       1.993402        54.2432 
 360   0.0000       2.001531        54.4644 
 361   0.0000       2.006549        54.6010 
 362   0.0000       2.013618        54.7933 
 363   0.0000       2.051191        55.8157 
 364   0.0000       2.056980        55.9733 
 365   0.0000       2.070096        56.3302 
 366   0.0000       2.151516        58.5457 
 367   0.0000       2.175883        59.2088 
 368   0.0000       2.196421        59.7676 
 369   0.0000       2.220799        60.4310 
 370   0.0000       2.299992        62.5860 
 371   0.0000       2.341478        63.7148 
 372   0.0000       2.411661        65.6246 
 373   0.0000       2.483761        67.5866 
 374   0.0000       2.501283        68.0634 
 375   0.0000       2.571252        69.9673 
 376   0.0000       2.583015        70.2874 
 377   0.0000       2.612657        71.0940 
 378   0.0000       2.717301        73.9415 
 379   0.0000       2.741389        74.5970 
 380   0.0000       2.754785        74.9615 
 381   0.0000       2.766731        75.2866 
 382   0.0000       2.994938        81.4964 
 383   0.0000       3.413457        92.8849 
 384   0.0000       3.424560        93.1870 
 385   0.0000       3.430687        93.3537 
 386   0.0000       3.436165        93.5028 
 387   0.0000       3.442981        93.6883 
 388   0.0000       3.457237        94.0762 
 389   0.0000       3.466570        94.3302 
 390   0.0000       3.483607        94.7938 
 391   0.0000       3.546265        96.4988 
 392   0.0000       3.547814        96.5409 
 393   0.0000       3.620858        98.5286 
 394   0.0000       3.695875       100.5699 
 395   0.0000      23.540986       640.5828 
 396   0.0000      23.652077       643.6057 
 397   0.0000      24.029378       653.8726 
 398   0.0000      24.139454       656.8679 
 399   0.0000      24.140125       656.8862 
 400   0.0000      24.501466       666.7188 
 401   0.0000      24.751662       673.5270 
 402   0.0000      24.818359       675.3419 
 403   0.0000      24.887713       677.2291 
 404   0.0000      25.070428       682.2010 
 405   0.0000      25.202672       685.7996 
 406   0.0000      25.289072       688.1506 
 407   0.0000      25.661591       698.2874 
 408   0.0000      25.968416       706.6365 
 409   0.0000      26.217777       713.4220 
 410   0.0000      26.233736       713.8563 
 411   0.0000      26.284093       715.2265 
 412   0.0000      26.334090       716.5870 
 413   0.0000      26.382596       717.9069 
 414   0.0000      26.474688       720.4129 
 415   0.0000      26.839696       730.3453 
 416   0.0000      26.992191       734.4949 
 417   0.0000      27.317400       743.3442 
 418   0.0000      27.429079       746.3832 
 419   0.0000      27.511974       748.6389 
 420   0.0000      27.798700       756.4411 
 421   0.0000      28.185176       766.9576 
 422   0.0000      28.281167       769.5697 
 423   0.0000      28.597860       778.1873 
 424   0.0000      29.049921       790.4885 
 425   0.0000      44.080536      1199.4924 
 426   0.0000      44.134309      1200.9556 
 427   0.0000      44.150130      1201.3861 
 428   0.0000      44.233302      1203.6493 
 429   0.0000      44.240124      1203.8350 
 430   0.0000      44.268109      1204.5965 
 431   0.0000      44.325470      1206.1574 
 432   0.0000      44.368252      1207.3215 
 433   0.0000      44.388482      1207.8720 
 434   0.0000      44.390911      1207.9381 
 435   0.0000     202.664679      5514.7863 
 436   0.0000     202.682633      5515.2748 
 437   0.0000     202.689094      5515.4506 
 438   0.0000     202.727492      5516.4955 
 439   0.0000     202.728283      5516.5170 
 440   0.0000     202.736796      5516.7487 
 441   0.0000     202.758880      5517.3496 
 442   0.0000     202.778754      5517.8904 
 443   0.0000     202.790505      5518.2102 
 444   0.0000     202.792465      5518.2635 

                 SPIN DOWN ORBITALS
  NO   OCC          E(Eh)            E(eV) 
   0   1.0000    -237.622611     -6466.0400 
   1   1.0000     -28.026593      -762.6424 
   2   1.0000     -23.952810      -651.7891 
   3   1.0000     -23.952495      -651.7805 
   4   1.0000     -23.952167      -651.7716 
   5   1.0000      -4.399619      -119.7197 
   6   1.0000      -4.398842      -119.6986 
   7   1.0000      -4.391932      -119.5105 
   8   1.0000      -4.391616      -119.5019 
   9   1.0000      -4.390477      -119.4709 
  10   1.0000      -4.389794      -119.4524 
  11   1.0000      -4.389702      -119.4499 
  12   1.0000      -4.389614      -119.4475 
  13   1.0000      -4.389286      -119.4385 
  14   1.0000      -4.389189      -119.4359 
  15   1.0000      -3.320263       -90.3490 
  16   1.0000      -2.523510       -68.6682 
  17   1.0000      -2.522853       -68.6503 
  18   1.0000      -2.516631       -68.4810 
  19   1.0000      -2.515955       -68.4626 
  20   1.0000      -2.514242       -68.4160 
  21   1.0000      -2.513870       -68.4059 
  22   1.0000      -2.512165       -68.3595 
  23   1.0000      -2.512111       -68.3580 
  24   1.0000      -2.511449       -68.3400 
  25   1.0000      -2.511427       -68.3394 
  26   1.0000      -2.509223       -68.2794 
  27   1.0000      -2.508816       -68.2684 
  28   1.0000      -2.508705       -68.2653 
  29   1.0000      -2.507636       -68.2362 
  30   1.0000      -2.507612       -68.2356 
  31   1.0000      -2.507141       -68.2228 
  32   1.0000      -2.507131       -68.2225 
  33   1.0000      -2.506795       -68.2134 
  34   1.0000      -2.506230       -68.1980 
  35   1.0000      -2.506161       -68.1961 
  36   1.0000      -2.506079       -68.1939 
  37   1.0000      -2.504548       -68.1522 
  38   1.0000      -2.503593       -68.1262 
  39   1.0000      -2.503439       -68.1221 
  40   1.0000      -2.502921       -68.1079 
  41   1.0000      -2.502022       -68.0835 
  42   1.0000      -2.501841       -68.0785 
  43   1.0000      -2.501791       -68.0772 
  44   1.0000      -2.501138       -68.0594 
  45   1.0000      -2.501011       -68.0560 
  46   1.0000      -2.080764       -56.6205 
  47   1.0000      -2.079708       -56.5917 
  48   1.0000      -2.079044       -56.5737 
  49   1.0000      -0.482024       -13.1165 
  50   1.0000      -0.470627       -12.8064 
  51   1.0000      -0.467640       -12.7251 
  52   1.0000      -0.462536       -12.5862 
  53   1.0000      -0.459500       -12.5036 
  54   1.0000      -0.457566       -12.4510 
  55   1.0000      -0.451513       -12.2863 
  56   1.0000      -0.439190       -11.9510 
  57   1.0000      -0.435429       -11.8486 
  58   1.0000      -0.434593       -11.8259 
  59   1.0000      -0.430212       -11.7067 
  60   1.0000      -0.429520       -11.6878 
  61   1.0000      -0.427279       -11.6269 
  62   1.0000      -0.420748       -11.4491 
  63   1.0000      -0.418042       -11.3755 
  64   1.0000      -0.415061       -11.2944 
  65   1.0000      -0.414073       -11.2675 
  66   1.0000      -0.408285       -11.1100 
  67   1.0000      -0.405203       -11.0261 
  68   1.0000      -0.404556       -11.0085 
  69   1.0000      -0.398947       -10.8559 
  70   1.0000      -0.398446       -10.8423 
  71   1.0000      -0.396437       -10.7876 
  72   1.0000      -0.386980       -10.5303 
  73   1.0000      -0.385831       -10.4990 
  74   1.0000      -0.385594       -10.4926 
  75   1.0000      -0.385364       -10.4863 
  76   1.0000      -0.383798       -10.4437 
  77   1.0000      -0.381158       -10.3718 
  78   1.0000      -0.375167       -10.2088 
  79   1.0000      -0.373741       -10.1700 
  80   1.0000      -0.370437       -10.0801 
  81   1.0000      -0.367140        -9.9904 
  82   1.0000      -0.366669        -9.9776 
  83   1.0000      -0.363915        -9.9026 
  84   1.0000      -0.362025        -9.8512 
  85   1.0000      -0.361100        -9.8260 
  86   1.0000      -0.360629        -9.8132 
  87   1.0000      -0.358577        -9.7574 
  88   1.0000      -0.358383        -9.7521 
  89   1.0000      -0.357978        -9.7411 
  90   1.0000      -0.355792        -9.6816 
  91   1.0000      -0.350500        -9.5376 
  92   1.0000      -0.346597        -9.4314 
  93   1.0000      -0.346479        -9.4282 
  94   1.0000      -0.341494        -9.2925 
  95   1.0000      -0.339913        -9.2495 
  96   1.0000      -0.338714        -9.2169 
  97   1.0000      -0.330195        -8.9851 
  98   1.0000      -0.324013        -8.8168 
  99   1.0000      -0.315887        -8.5957 
 100   1.0000      -0.315840        -8.5944 
 101   1.0000      -0.303737        -8.2651 
 102   1.0000      -0.243532        -6.6268 
 103   1.0000      -0.242821        -6.6075 
 104   1.0000      -0.240410        -6.5419 
 105   0.0000      -0.106243        -2.8910 
 106   0.0000      -0.079604        -2.1661 
 107   0.0000      -0.063992        -1.7413 
 108   0.0000      -0.037558        -1.0220 
 109   0.0000      -0.036412        -0.9908 
 110   0.0000      -0.025686        -0.6989 
 111   0.0000      -0.017932        -0.4880 
 112   0.0000      -0.006019        -0.1638 
 113   0.0000      -0.004695        -0.1278 
 114   0.0000       0.011340         0.3086 
 115   0.0000       0.014157         0.3852 
 116   0.0000       0.021431         0.5832 
 117   0.0000       0.027146         0.7387 
 118   0.0000       0.032239         0.8773 
 119   0.0000       0.036479         0.9927 
 120   0.0000       0.059427         1.6171 
 121   0.0000       0.061678         1.6784 
 122   0.0000       0.066698         1.8150 
 123   0.0000       0.070852         1.9280 
 124   0.0000       0.073115         1.9896 
 125   0.0000       0.082889         2.2555 
 126   0.0000       0.084503         2.2994 
 127   0.0000       0.088215         2.4005 
 128   0.0000       0.094899         2.5823 
 129   0.0000       0.106481         2.8975 
 130   0.0000       0.108751         2.9593 
 131   0.0000       0.110899         3.0177 
 132   0.0000       0.112405         3.0587 
 133   0.0000       0.115559         3.1445 
 134   0.0000       0.117598         3.2000 
 135   0.0000       0.118532         3.2254 
 136   0.0000       0.120918         3.2903 
 137   0.0000       0.132889         3.6161 
 138   0.0000       0.142524         3.8783 
 139   0.0000       0.156581         4.2608 
 140   0.0000       0.162237         4.4147 
 141   0.0000       0.165339         4.4991 
 142   0.0000       0.172940         4.7059 
 143   0.0000       0.202032         5.4976 
 144   0.0000       0.206757         5.6262 
 145   0.0000       0.210992         5.7414 
 146   0.0000       0.212635         5.7861 
 147   0.0000       0.231169         6.2904 
 148   0.0000       0.238348         6.4858 
 149   0.0000       0.250594         6.8190 
 150   0.0000       0.261114         7.1053 
 151   0.0000       0.264627         7.2009 
 152   0.0000       0.268570         7.3082 
 153   0.0000       0.275041         7.4842 
 154   0.0000       0.282649         7.6913 
 155   0.0000       0.295108         8.0303 
 156   0.0000       0.297457         8.0942 
 157   0.0000       0.312448         8.5021 
 158   0.0000       0.317321         8.6347 
 159   0.0000       0.319628         8.6975 
 160   0.0000       0.327119         8.9013 
 161   0.0000       0.329794         8.9742 
 162   0.0000       0.332093         9.0367 
 163   0.0000       0.340911         9.2767 
 164   0.0000       0.355885         9.6841 
 165   0.0000       0.357703         9.7336 
 166   0.0000       0.363266         9.8850 
 167   0.0000       0.367662        10.0046 
 168   0.0000       0.370518        10.0823 
 169   0.0000       0.374879        10.2010 
 170   0.0000       0.375526        10.2186 
 171   0.0000       0.380128        10.3438 
 172   0.0000       0.394380        10.7316 
 173   0.0000       0.399913        10.8822 
 174   0.0000       0.400488        10.8978 
 175   0.0000       0.403774        10.9872 
 176   0.0000       0.408100        11.1050 
 177   0.0000       0.408741        11.1224 
 178   0.0000       0.408880        11.1262 
 179   0.0000       0.430357        11.7106 
 180   0.0000       0.431017        11.7286 
 181   0.0000       0.438214        11.9244 
 182   0.0000       0.443129        12.0581 
 183   0.0000       0.456576        12.4241 
 184   0.0000       0.458302        12.4710 
 185   0.0000       0.460104        12.5201 
 186   0.0000       0.464819        12.6484 
 187   0.0000       0.473734        12.8910 
 188   0.0000       0.481759        13.1093 
 189   0.0000       0.489738        13.3264 
 190   0.0000       0.495212        13.4754 
 191   0.0000       0.499331        13.5875 
 192   0.0000       0.502454        13.6725 
 193   0.0000       0.506260        13.7760 
 194   0.0000       0.520708        14.1692 
 195   0.0000       0.523112        14.2346 
 196   0.0000       0.526308        14.3216 
 197   0.0000       0.533549        14.5186 
 198   0.0000       0.546880        14.8814 
 199   0.0000       0.552926        15.0459 
 200   0.0000       0.553871        15.0716 
 201   0.0000       0.562439        15.3047 
 202   0.0000       0.570282        15.5182 
 203   0.0000       0.577559        15.7162 
 204   0.0000       0.582365        15.8470 
 205   0.0000       0.602670        16.3995 
 206   0.0000       0.603205        16.4140 
 207   0.0000       0.611459        16.6387 
 208   0.0000       0.617959        16.8155 
 209   0.0000       0.622449        16.9377 
 210   0.0000       0.641905        17.4671 
 211   0.0000       0.644346        17.5335 
 212   0.0000       0.666090        18.1252 
 213   0.0000       0.686427        18.6786 
 214   0.0000       0.696496        18.9526 
 215   0.0000       0.719302        19.5732 
 216   0.0000       0.739079        20.1113 
 217   0.0000       0.751100        20.4385 
 218   0.0000       0.765934        20.8421 
 219   0.0000       0.789784        21.4911 
 220   0.0000       0.795686        21.6517 
 221   0.0000       0.828225        22.5372 
 222   0.0000       0.855716        23.2852 
 223   0.0000       0.869902        23.6712 
 224   0.0000       0.872619        23.7452 
 225   0.0000       0.887098        24.1392 
 226   0.0000       0.899761        24.4837 
 227   0.0000       0.909716        24.7546 
 228   0.0000       0.919046        25.0085 
 229   0.0000       0.920854        25.0577 
 230   0.0000       0.942426        25.6447 
 231   0.0000       0.942832        25.6558 
 232   0.0000       0.956560        26.0293 
 233   0.0000       0.970881        26.4190 
 234   0.0000       0.992859        27.0171 
 235   0.0000       1.026897        27.9433 
 236   0.0000       1.051890        28.6234 
 237   0.0000       1.067734        29.0545 
 238   0.0000       1.073898        29.2222 
 239   0.0000       1.083342        29.4792 
 240   0.0000       1.087275        29.5863 
 241   0.0000       1.099539        29.9200 
 242   0.0000       1.104546        30.0562 
 243   0.0000       1.126037        30.6410 
 244   0.0000       1.137668        30.9575 
 245   0.0000       1.139426        31.0054 
 246   0.0000       1.177728        32.0476 
 247   0.0000       1.200573        32.6692 
 248   0.0000       1.272042        34.6140 
 249   0.0000       1.379666        37.5426 
 250   0.0000       1.394641        37.9501 
 251   0.0000       1.430132        38.9159 
 252   0.0000       1.447434        39.3867 
 253   0.0000       1.449297        39.4374 
 254   0.0000       1.456122        39.6231 
 255   0.0000       1.474659        40.1275 
 256   0.0000       1.513342        41.1801 
 257   0.0000       1.514253        41.2049 
 258   0.0000       1.514822        41.2204 
 259   0.0000       1.536843        41.8196 
 260   0.0000       1.536931        41.8220 
 261   0.0000       1.540362        41.9154 
 262   0.0000       1.543430        41.9989 
 263   0.0000       1.544818        42.0366 
 264   0.0000       1.547000        42.0960 
 265   0.0000       1.565761        42.6065 
 266   0.0000       1.567972        42.6667 
 267   0.0000       1.568246        42.6741 
 268   0.0000       1.580591        43.0101 
 269   0.0000       1.585140        43.1339 
 270   0.0000       1.597934        43.4820 
 271   0.0000       1.600841        43.5611 
 272   0.0000       1.603569        43.6353 
 273   0.0000       1.609719        43.8027 
 274   0.0000       1.618563        44.0433 
 275   0.0000       1.630763        44.3753 
 276   0.0000       1.642197        44.6865 
 277   0.0000       1.643559        44.7235 
 278   0.0000       1.646892        44.8142 
 279   0.0000       1.648851        44.8675 
 280   0.0000       1.653418        44.9918 
 281   0.0000       1.657535        45.1038 
 282   0.0000       1.658155        45.1207 
 283   0.0000       1.660692        45.1897 
 284   0.0000       1.663634        45.2698 
 285   0.0000       1.667604        45.3778 
 286   0.0000       1.669571        45.4313 
 287   0.0000       1.675374        45.5892 
 288   0.0000       1.675446        45.5912 
 289   0.0000       1.681012        45.7427 
 290   0.0000       1.681335        45.7514 
 291   0.0000       1.681655        45.7602 
 292   0.0000       1.681793        45.7639 
 293   0.0000       1.686249        45.8852 
 294   0.0000       1.686582        45.8942 
 295   0.0000       1.691897        46.0389 
 296   0.0000       1.693662        46.0869 
 297   0.0000       1.694546        46.1109 
 298   0.0000       1.695385        46.1338 
 299   0.0000       1.696370        46.1606 
 300   0.0000       1.697212        46.1835 
 301   0.0000       1.697545        46.1925 
 302   0.0000       1.701469        46.2993 
 303   0.0000       1.701495        46.3000 
 304   0.0000       1.702657        46.3316 
 305   0.0000       1.704786        46.3896 
 306   0.0000       1.705094        46.3980 
 307   0.0000       1.708795        46.4987 
 308   0.0000       1.709981        46.5309 
 309   0.0000       1.711258        46.5657 
 310   0.0000       1.714231        46.6466 
 311   0.0000       1.717288        46.7298 
 312   0.0000       1.717429        46.7336 
 313   0.0000       1.722953        46.8839 
 314   0.0000       1.728690        47.0400 
 315   0.0000       1.732614        47.1468 
 316   0.0000       1.732686        47.1488 
 317   0.0000       1.734343        47.1939 
 318   0.0000       1.737758        47.2868 
 319   0.0000       1.739301        47.3288 
 320   0.0000       1.740389        47.3584 
 321   0.0000       1.744669        47.4748 
 322   0.0000       1.746306        47.5194 
 323   0.0000       1.750385        47.6304 
 324   0.0000       1.751161        47.6515 
 325   0.0000       1.753165        47.7060 
 326   0.0000       1.756447        47.7953 
 327   0.0000       1.758627        47.8547 
 328   0.0000       1.759985        47.8916 
 329   0.0000       1.767134        48.0862 
 330   0.0000       1.767451        48.0948 
 331   0.0000       1.772633        48.2358 
 332   0.0000       1.773334        48.2549 
 333   0.0000       1.776613        48.3441 
 334   0.0000       1.780346        48.4457 
 335   0.0000       1.781453        48.4758 
 336   0.0000       1.787960        48.6529 
 337   0.0000       1.789329        48.6901 
 338   0.0000       1.789549        48.6961 
 339   0.0000       1.792989        48.7897 
 340   0.0000       1.800442        48.9925 
 341   0.0000       1.803455        49.0745 
 342   0.0000       1.804193        49.0946 
 343   0.0000       1.809625        49.2424 
 344   0.0000       1.813872        49.3580 
 345   0.0000       1.832406        49.8623 
 346   0.0000       1.838647        50.0321 
 347   0.0000       1.840824        50.0914 
[...]
      f+2     :     0.001204
      f-2     :     0.000670
      f+3     :     0.000861
      f-3     :     0.001378
  9 Aus       :     2.741802  s :     2.741802
      pz      :     2.078258  p :     6.219426
      px      :     2.047894
      py      :     2.093274
      dz2     :     1.994371  d :     9.934296
      dxz     :     1.979911
      dyz     :     1.991459
      dx2y2   :     1.980722
      dxy     :     1.987833
      f0      :     0.000505  f :     0.003680
      f+1     :     0.000579
      f-1     :     0.000591
      f+2     :     0.000555
      f-2     :     0.000409
      f+3     :     0.000455
      f-3     :     0.000585
 10 Mns       :     6.355665  s :     6.355665
      pz      :     4.194874  p :    12.612144
      px      :     4.167956
      py      :     4.249313
      dz2     :     1.289115  d :     6.016922
      dxz     :     1.105936
      dyz     :     1.263555
      dx2y2   :     1.152687
      dxy     :     1.205630
      f0      :     0.000165  f :     0.000748
      f+1     :     0.000056
      f-1     :     0.000120
      f+2     :     0.000103
      f-2     :     0.000133
      f+3     :     0.000092
      f-3     :     0.000079

SPIN
  0 Aus       :    -0.122362  s :    -0.122362
      pz      :    -0.002015  p :    -0.027573
      px      :     0.000688
      py      :    -0.026245
      dz2     :    -0.000239  d :    -0.012940
      dxz     :     0.001458
      dyz     :    -0.007181
      dx2y2   :    -0.006351
      dxy     :    -0.000628
      f0      :     0.000000  f :    -0.000000
      f+1     :     0.000008
      f-1     :     0.000008
      f+2     :    -0.000016
      f-2     :    -0.000002
      f+3     :    -0.000002
      f-3     :     0.000004
  1 Aus       :    -0.103458  s :    -0.103458
      pz      :     0.003546  p :    -0.066601
      px      :     0.001131
      py      :    -0.071278
      dz2     :     0.008322  d :     0.008390
      dxz     :     0.006006
      dyz     :    -0.001354
      dx2y2   :    -0.004009
      dxy     :    -0.000575
      f0      :     0.000063  f :     0.000022
      f+1     :     0.000026
      f-1     :     0.000017
      f+2     :    -0.000030
      f-2     :    -0.000004
      f+3     :    -0.000017
      f-3     :    -0.000034
  2 Aus       :    -0.013225  s :    -0.013225
      pz      :    -0.010872  p :    -0.030965
      px      :     0.001673
      py      :    -0.021765
      dz2     :     0.000179  d :     0.003875
      dxz     :     0.002329
      dyz     :     0.001108
      dx2y2   :     0.002518
      dxy     :    -0.002260
      f0      :     0.000037  f :     0.000142
      f+1     :    -0.000004
      f-1     :    -0.000009
      f+2     :     0.000022
      f-2     :     0.000070
      f+3     :    -0.000005
      f-3     :     0.000031
  3 Aus       :    -0.193004  s :    -0.193004
      pz      :    -0.126419  p :    -0.178343
      px      :    -0.003470
      py      :    -0.048454
      dz2     :    -0.008049  d :    -0.022752
      dxz     :     0.001162
      dyz     :    -0.018930
      dx2y2   :    -0.000808
      dxy     :     0.003872
      f0      :     0.000002  f :    -0.000031
      f+1     :    -0.000036
      f-1     :    -0.000059
      f+2     :     0.000004
      f-2     :    -0.000004
      f+3     :     0.000028
      f-3     :     0.000034
  4 Aus       :    -0.012645  s :    -0.012645
      pz      :    -0.009550  p :    -0.030916
      px      :    -0.001138
      py      :    -0.020228
      dz2     :     0.002342  d :     0.004037
      dxz     :     0.000123
      dyz     :     0.005561
      dx2y2   :    -0.004407
      dxy     :     0.000419
      f0      :     0.000024  f :     0.000144
      f+1     :     0.000006
      f-1     :     0.000020
      f+2     :     0.000029
      f-2     :     0.000070
      f+3     :    -0.000010
      f-3     :     0.000006
  5 Aus       :    -0.014087  s :    -0.014087
      pz      :    -0.001760  p :    -0.030123
      px      :     0.000648
      py      :    -0.029011
      dz2     :     0.004186  d :     0.003936
      dxz     :    -0.000478
      dyz     :    -0.002977
      dx2y2   :     0.001230
      dxy     :     0.001975
      f0      :     0.000044  f :     0.000147
      f+1     :     0.000006
      f-1     :    -0.000001
      f+2     :     0.000002
      f-2     :     0.000025
      f+3     :     0.000046
      f-3     :     0.000026
  6 Aus       :    -0.189791  s :    -0.189791
      pz      :    -0.079748  p :    -0.179522
      px      :     0.002260
      py      :    -0.102035
      dz2     :    -0.020754  d :    -0.018466
      dxz     :     0.001825
      dyz     :     0.003650
      dx2y2   :    -0.007286
      dxy     :     0.004100
      f0      :     0.000010  f :    -0.000006
      f+1     :    -0.000007
      f-1     :     0.000000
      f+2     :    -0.000024
      f-2     :     0.000052
      f+3     :     0.000010
      f-3     :    -0.000047
  7 Aus       :    -0.013622  s :    -0.013622
      pz      :    -0.001097  p :    -0.030235
      px      :     0.001694
      py      :    -0.030832
      dz2     :     0.003614  d :     0.003972
      dxz     :     0.003223
      dyz     :    -0.001718
      dx2y2   :     0.004264
      dxy     :    -0.005411
      f0      :     0.000045  f :     0.000147
      f+1     :     0.000012
      f-1     :    -0.000013
      f+2     :     0.000012
      f-2     :     0.000048
      f+3     :     0.000021
      f-3     :     0.000022
  8 Aus       :    -0.106881  s :    -0.106881
      pz      :     0.008487  p :    -0.066419
      px      :     0.001676
      py      :    -0.076582
      dz2     :     0.006159  d :     0.008361
      dxz     :     0.006116
      dyz     :     0.003069
      dx2y2   :    -0.006640
      dxy     :    -0.000342
      f0      :     0.000097  f :     0.000015
      f+1     :     0.000028
      f-1     :    -0.000044
      f+2     :     0.000011
      f-2     :    -0.000010
      f+3     :    -0.000021
      f-3     :    -0.000047
  9 Aus       :    -0.117217  s :    -0.117217
      pz      :    -0.000180  p :    -0.027013
      px      :     0.000886
      py      :    -0.027719
      dz2     :    -0.003279  d :    -0.012663
      dxz     :     0.001717
      dyz     :    -0.000594
      dx2y2   :    -0.010520
      dxy     :     0.000012
      f0      :     0.000004  f :     0.000002
      f+1     :     0.000004
      f-1     :    -0.000002
      f+2     :    -0.000003
      f-2     :     0.000005
      f+3     :     0.000000
      f-3     :    -0.000006
 10 Mns       :     0.029470  s :     0.029470
      pz      :    -0.014807  p :     0.029610
      px      :     0.019024
      py      :     0.025393
      dz2     :     0.865320  d :     4.528594
      dxz     :     0.960201
      dyz     :     0.840895
      dx2y2   :     0.929811
      dxy     :     0.932368
      f0      :     0.000001  f :    -0.000003
      f+1     :     0.000001
      f-1     :    -0.000002
      f+2     :    -0.000003
      f-2     :     0.000003
      f+3     :     0.000001
      f-3     :    -0.000003


                      *****************************
                      * MAYER POPULATION ANALYSIS *
                      *****************************

  NA   - Mulliken gross atomic population
  ZA   - Total nuclear charge
  QA   - Mulliken gross atomic charge
  VA   - Mayer's total valence
  BVA  - Mayer's bonded valence
  FA   - Mayer's free valence

  ATOM       NA         ZA         QA         VA         BVA        FA
  0 Au    18.6752    19.0000     0.3248     1.1919     1.1331     0.0589
  1 Au    19.1594    19.0000    -0.1594     1.7733     1.6471     0.1262
  2 Au    18.9690    19.0000     0.0310     1.7036     1.7002     0.0034
  3 Au    18.7807    19.0000     0.2193     1.3788     1.2490     0.1298
  4 Au    18.9684    19.0000     0.0316     1.7026     1.6993     0.0033
  5 Au    18.9716    19.0000     0.0284     1.7122     1.7085     0.0036
  6 Au    18.7886    19.0000     0.2114     1.3818     1.2544     0.1274
  7 Au    18.9713    19.0000     0.0287     1.7104     1.7069     0.0035
  8 Au    19.1447    19.0000    -0.1447     1.7621     1.6349     0.1272
  9 Au    18.6804    19.0000     0.3196     1.1942     1.1399     0.0542
 10 Mn    25.8905    25.0000    -0.8905     8.2021     3.5663     4.6357

  Mayer bond orders larger than 0.100000
B(  0-Au,  1-Au) :   0.4317 B(  0-Au,  2-Au) :   0.2434 B(  0-Au,  4-Au) :   0.2422 
B(  1-Au,  2-Au) :   0.1404 B(  1-Au,  3-Au) :   0.3144 B(  1-Au,  4-Au) :   0.1400 
B(  1-Au, 10-Mn) :   0.4431 B(  2-Au,  4-Au) :   0.1322 B(  2-Au,  7-Au) :   0.6120 
B(  2-Au, 10-Mn) :   0.4432 B(  3-Au,  6-Au) :   0.3536 B(  3-Au, 10-Mn) :   0.4213 
B(  4-Au,  5-Au) :   0.6124 B(  4-Au, 10-Mn) :   0.4434 B(  5-Au,  7-Au) :   0.1332 
B(  5-Au,  8-Au) :   0.1426 B(  5-Au,  9-Au) :   0.2456 B(  5-Au, 10-Mn) :   0.4458 
B(  6-Au,  8-Au) :   0.3040 B(  6-Au, 10-Mn) :   0.4394 B(  7-Au,  8-Au) :   0.1423 
B(  7-Au,  9-Au) :   0.2448 B(  7-Au, 10-Mn) :   0.4457 B(  8-Au,  9-Au) :   0.4330 
B(  8-Au, 10-Mn) :   0.4378 

-------
TIMINGS
-------

Total SCF time: 0 days 0 hours 4 min 20 sec 

Total time                  ....     260.815 sec
Sum of individual times     ....     259.142 sec  ( 99.4%)

Fock matrix formation       ....     246.463 sec  ( 94.5%)
  Split-RI-J                ....      20.444 sec  (  8.3% of F)
  Chain of spheres X        ....     190.862 sec  ( 77.4% of F)
  XC integration            ....      34.368 sec  ( 13.9% of F)
    Basis function eval.    ....       5.198 sec  ( 15.1% of XC)
    Density eval.           ....      15.263 sec  ( 44.4% of XC)
    XC-Functional eval.     ....       0.710 sec  (  2.1% of XC)
    XC-Potential eval.      ....      10.232 sec  ( 29.8% of XC)
Diagonalization             ....       6.077 sec  (  2.3%)
Density matrix formation    ....       0.191 sec  (  0.1%)
Population analysis         ....       0.125 sec  (  0.0%)
Initial guess               ....       0.282 sec  (  0.1%)
Orbital Transformation      ....       0.000 sec  (  0.0%)
Orbital Orthonormalization  ....       0.225 sec  (  0.1%)
DIIS solution               ....       2.310 sec  (  0.9%)
Grid generation             ....       3.694 sec  (  1.4%)

Maximum memory used throughout the entire SCF-calculation: 109.3 MB


           ************************************************************
           *        Program running with 6 parallel MPI-processes     *
           *              working on a common directory               *
           ************************************************************

------------------------------------------------------------------------------
                                ORCA  MP2 
------------------------------------------------------------------------------

Freezing NCore=10 chemical core electrons

   <<< Use J-auxbasis for calculation of Separable RI-J derivative contributions (Dim=979) >>> 


-------------
RI-MP2 ENERGY
-------------
Dimension of the basis                    ...  445
Memory devoted to MP2                     ...  256 MB   
Data format for buffers                   ... DOUBLE
Compression type for matrix containers    ... UNCOMPRESSED
Overall scaling of the MP2 energy         ...   2.700e-01
Calculating two index integrals           ... done (    0.029 sec)
Cholesky decomposition of V**-1           ... done (    0.379 sec)

-----------------
RI-TRANSFORMATION (AUX index driven)
-----------------

Dimension of the orbital-basis         ... 445
Dimension of the aux-basis             ... 1692
Transformation of internal/external MOs...    5- 108 to  109- 444
Number Format for Storage              ... Double (8 Byte)
Integral mode                          ... Direct

First Phase: integral generation and transformation of MO indices
  Aux angular momentum 0               ... done (    0.117 sec)
  Aux angular momentum 1               ... done (    0.333 sec)
  Aux angular momentum 2               ... done (    0.519 sec)
  Aux angular momentum 3               ... done (    0.558 sec)
  Aux angular momentum 4               ... done (    0.447 sec)
  Aux angular momentum 5               ... done (    0.413 sec)
Closing buffer VIA ( 0.44 GB; CompressionRatio= 1.00)
  Phase 1 completed in     2.941 sec
Second Phase: sorting and transformation of aux index

IA-Transformation
Memory available                       ... 187 MB 
Max. # MO pairs treated in a batch     ... 18    
# of internal orbitals                 ... 104
# batches for internal orbitals        ... 1
Closing buffer IAV ( 0.44 GB; CompressionRatio= 1.00)
(ia|v) transformation done in     2.835 sec

  Phase 2 completed in     2.924 sec
RI-Integral transformation completed in     5.866 sec

-----------------
RI-TRANSFORMATION (AUX index driven)
-----------------

Dimension of the orbital-basis         ... 445
Dimension of the aux-basis             ... 1692
Transformation of internal/external MOs...    5- 105 to  106- 444
Number Format for Storage              ... Double (8 Byte)
Integral mode                          ... Direct

First Phase: integral generation and transformation of MO indices
  Aux angular momentum 0               ... done (    0.127 sec)
  Aux angular momentum 1               ... done (    0.330 sec)
  Aux angular momentum 2               ... done (    0.490 sec)
  Aux angular momentum 3               ... done (    0.555 sec)
  Aux angular momentum 4               ... done (    0.443 sec)
  Aux angular momentum 5               ... done (    0.411 sec)
Closing buffer VIA ( 0.43 GB; CompressionRatio= 1.00)
  Phase 1 completed in     3.604 sec
Second Phase: sorting and transformation of aux index

IA-Transformation
Memory available                       ... 187 MB 
Max. # MO pairs treated in a batch     ... 17    
# of internal orbitals                 ... 101
# batches for internal orbitals        ... 1
Closing buffer IAV ( 0.43 GB; CompressionRatio= 1.00)
(ia|v) transformation done in     2.963 sec

  Phase 2 completed in     3.052 sec
RI-Integral transformation completed in     6.656 sec
Opening buffers                              ... done

Starting loop over batches of integrals:

Operator 0  - window                       ... (  5-108)x(109-444)
Operator 0  - Memory available             ...   256 MB
Operator 0  - Memory needed per MO         ...   4.3 MB
Operator 0  - Number of orbitals per batch ... 18
Operator 0  - Number of batches            ... 1

OPERATOR  0   PASS   0:  MOs     5 ...   22 +   23 ...   40 +   41 ...   58 +   59 ...   76
                            +   77 ...   94 +   95 ...  108
  Reading integrals       ... ok
  Internal MO   7
  Internal MO  10
  Internal MO  13
  Internal MO  16
  Internal MO  19
  Internal MO  22

Operator 1  - window                       ... (  5-105)x(106-444)
Operator 1  - Memory available             ...   256 MB
Operator 1  - Memory needed per MO         ...   4.4 MB
Operator 1  - Number of orbitals per batch ... 17
Operator 1  - Number of batches            ... 1

OPERATOR  1   PASS   0:  MOs     5 ...   21 +   22 ...   38 +   39 ...   55 +   56 ...   72
                            +   73 ...   89 +   90 ...  105
  Reading integrals       ... ok
  Internal MO   7
  Internal MO  10
  Internal MO  13
  Internal MO  16
  Internal MO  19
Time spent in pair loops =   111.019 sec
Deleting buffer (Ka|jb)[aa] ...done
Deleting buffer (Ka|jb)[ba] ...done
Deleting buffer (Ka|jb)[ab] ...done
Deleting buffer (Ka|jb)[bb] ...done

Correlation energy components}
 E2 and T2 for alpha/alpha pairs :     -0.301188373 Eh      0.000000000
 E2 and T2 for beta/beta   pairs :     -0.291523712 Eh      0.000000000
 E2 and T2 for alpha/beta  pairs :     -1.015634783 Eh      0.000000000


-----------------------------------------------
 RI-MP2 CORRELATION ENERGY:     -1.608346869 Eh
-----------------------------------------------


-------
TIMINGS
-------

Total time                :  151.364 sec
Integral trafo            :   12.555 sec (  8.3%)
I/O of integrals          :    0.087 sec (  0.1%)
K(i,j) Operators          :   76.724 sec ( 50.7%)
T(i,j) pair energies      :    1.447 sec (  1.0%)
V-calculation             :    0.029 sec (  0.0%)
V**(-1/2)                 :    0.379 sec (  0.3%)
Gamma(ia|P)               :    0.000 sec (  0.0%)
Gamma-Trafo               :    0.000 sec (  0.0%)
D(virtual)                :    0.000 sec (  0.0%)
D(internal)               :    0.000 sec (  0.0%)
W(virtual)                :    0.000 sec (  0.0%)
W(internal)               :    0.000 sec (  0.0%)
L(virtual)                :    0.000 sec (  0.0%)
L(internal)               :    0.000 sec (  0.0%)
G(D)                      :    0.000 sec (  0.0%)
G(Z)                      :    0.000 sec (  0.0%)
Z-Vector Solution         :    0.000 sec (  0.0%)
3-Index Derivative        :    0.000 sec (  0.0%)
2-Index Derivative        :    0.000 sec (  0.0%)
Separable Gradient (RIJ)  :    0.000 sec (  0.0%)
Separable Gradient (COSX) :    0.000 sec (  0.0%)


---------------------------------------
MP2 TOTAL ENERGY:    -2506.641081818 Eh
---------------------------------------

Maximum memory used throughout the entire MP2-calculation: 194.4 MB

-------------------------   --------------------
FINAL SINGLE POINT ENERGY     -2506.641081817885
-------------------------   --------------------


                            ***************************************
                            *     ORCA property calculations      *
                            ***************************************


  WARNING: The energy has been calculated at the MP2 level but the densities
           used in the property calculations are still SCF densities
           MP2 response densities have not been calculated 
           use %mp2 Density relaxed end
           or  %mp2 Density unrelaxed end

                                    ---------------------
                                    Active property flags
                                    ---------------------
   (+) Dipole Moment


------------------------------------------------------------------------------
                       ORCA ELECTRIC PROPERTIES CALCULATION
------------------------------------------------------------------------------

Dipole Moment Calculation                       ... on
Quadrupole Moment Calculation                   ... off
Polarizability Calculation                      ... off
GBWName                                         ... b2plyp_job2.gbw
Electron density                                ... b2plyp_job2.scfp
The origin for moment calculation is the CENTER OF MASS  = (14.431286, 12.631177 14.801373)

-------------
DIPOLE MOMENT
-------------
                                X             Y             Z
Electronic contribution:      3.84590      25.86142       3.91609
Nuclear contribution   :     -3.88097     -26.08742      -3.95397
                        -----------------------------------------
Total Dipole Moment    :     -0.03508      -0.22599      -0.03788
                        -----------------------------------------
Magnitude (a.u.)       :      0.23182
Magnitude (Debye)      :      0.58923



--------------------
Rotational spectrum 
--------------------
 
Rotational constants in cm-1:     0.002128     0.001389     0.001016 
Rotational constants in MHz :    63.790126    41.641656    30.472454 

 Dipole components along the rotational axes: 
x,y,z [a.u.] :    -0.002721    -0.231799     0.000786 
x,y,z [Debye]:    -0.006915    -0.589187     0.001998 

 

Timings for individual modules:

Sum of individual times         ...      420.314 sec (=   7.005 min)
GTO integral calculation        ...        7.355 sec (=   0.123 min)   1.7 %
SCF iterations                  ...      261.071 sec (=   4.351 min)  62.1 %
MP2 module                      ...      151.888 sec (=   2.531 min)  36.1 %



                             ****ORCA TERMINATED NORMALLY****
TOTAL RUN TIME: 0 days 0 hours 18 minutes 22 seconds 528 msec
