
                                 *****************
                                 * O   R   C   A *
                                 *****************

                                            #,                                       
                                            ###                                      
                                            ####                                     
                                            #####                                    
                                            ######                                   
                                           ########,                                 
                                     ,,################,,,,,                         
                               ,,#################################,,                 
                          ,,##########################################,,             
                       ,#########################################, ''#####,          
                    ,#############################################,,   '####,        
                  ,##################################################,,,,####,       
                ,###########''''           ''''###############################       
              ,#####''   ,,,,##########,,,,          '''####'''          '####       
            ,##' ,,,,###########################,,,                        '##       
           ' ,,###''''                  '''############,,,                           
         ,,##''                                '''############,,,,        ,,,,,,###''
      ,#''                                            '''#######################'''  
     '                                                          ''''####''''         
             ,#######,   #######,   ,#######,      ##                                
            ,#'     '#,  ##    ##  ,#'     '#,    #''#        ######   ,####,        
            ##       ##  ##   ,#'  ##            #'  '#       #        #'  '#        
            ##       ##  #######   ##           ,######,      #####,   #    #        
            '#,     ,#'  ##    ##  '#,     ,#' ,#      #,         ##   #,  ,#        
             '#######'   ##     ##  '#######'  #'      '#     #####' # '####'        



                  #######################################################
                  #                        -***-                        #
                  #          Department of theory and spectroscopy      #
                  #    Directorship and core code : Frank Neese         #
                  #        Max Planck Institute fuer Kohlenforschung    #
                  #                Kaiser Wilhelm Platz 1               #
                  #                 D-45470 Muelheim/Ruhr               #
                  #                      Germany                        #
                  #                                                     #
                  #                  All rights reserved                #
                  #                        -***-                        #
                  #######################################################


                         Program Version 5.0.3 -  RELEASE  -


 With contributions from (in alphabetic order):
   Daniel Aravena         : Magnetic Suceptibility
   Michael Atanasov       : Ab Initio Ligand Field Theory (pilot matlab implementation)
   Alexander A. Auer      : GIAO ZORA, VPT2 properties, NMR spectrum
   Ute Becker             : Parallelization
   Giovanni Bistoni       : ED, misc. LED, open-shell LED, HFLD
   Martin Brehm           : Molecular dynamics
   Dmytro Bykov           : SCF Hessian
   Vijay G. Chilkuri      : MRCI spin determinant printing, contributions to CSF-ICE
   Dipayan Datta          : RHF DLPNO-CCSD density
   Achintya Kumar Dutta   : EOM-CC, STEOM-CC
   Dmitry Ganyushin       : Spin-Orbit,Spin-Spin,Magnetic field MRCI
   Miquel Garcia          : C-PCM and meta-GGA Hessian, CC/C-PCM, Gaussian charge scheme
   Yang Guo               : DLPNO-NEVPT2, F12-NEVPT2, CIM, IAO-localization
   Andreas Hansen         : Spin unrestricted coupled pair/coupled cluster methods
   Benjamin Helmich-Paris : MC-RPA, TRAH-SCF, COSX integrals
   Lee Huntington         : MR-EOM, pCC
   Robert Izsak           : Overlap fitted RIJCOSX, COSX-SCS-MP3, EOM
   Marcus Kettner         : VPT2
   Christian Kollmar      : KDIIS, OOCD, Brueckner-CCSD(T), CCSD density, CASPT2, CASPT2-K
   Simone Kossmann        : Meta GGA functionals, TD-DFT gradient, OOMP2, MP2 Hessian
   Martin Krupicka        : Initial AUTO-CI
   Lucas Lang             : DCDCAS
   Marvin Lechner         : AUTO-CI (C++ implementation), FIC-MRCC
   Dagmar Lenk            : GEPOL surface, SMD
   Dimitrios Liakos       : Extrapolation schemes; Compound Job, initial MDCI parallelization
   Dimitrios Manganas     : Further ROCIS development; embedding schemes
   Dimitrios Pantazis     : SARC Basis sets
   Anastasios Papadopoulos: AUTO-CI, single reference methods and gradients
   Taras Petrenko         : DFT Hessian,TD-DFT gradient, ASA, ECA, R-Raman, ABS, FL, XAS/XES, NRVS
   Peter Pinski           : DLPNO-MP2, DLPNO-MP2 Gradient
   Christoph Reimann      : Effective Core Potentials
   Marius Retegan         : Local ZFS, SOC
   Christoph Riplinger    : Optimizer, TS searches, QM/MM, DLPNO-CCSD(T), (RO)-DLPNO pert. Triples
   Tobias Risthaus        : Range-separated hybrids, TD-DFT gradient, RPA, STAB
   Michael Roemelt        : Original ROCIS implementation
   Masaaki Saitow         : Open-shell DLPNO-CCSD energy and density
   Barbara Sandhoefer     : DKH picture change effects
   Avijit Sen             : IP-ROCIS
   Kantharuban Sivalingam : CASSCF convergence, NEVPT2, FIC-MRCI
   Bernardo de Souza      : ESD, SOC TD-DFT
   Georgi Stoychev        : AutoAux, RI-MP2 NMR, DLPNO-MP2 response
   Willem Van den Heuvel  : Paramagnetic NMR
   Boris Wezisla          : Elementary symmetry handling
   Frank Wennmohs         : Technical directorship


 We gratefully acknowledge several colleagues who have allowed us to
 interface, adapt or use parts of their codes:
   Stefan Grimme, W. Hujo, H. Kruse, P. Pracht,  : VdW corrections, initial TS optimization,
                  C. Bannwarth, S. Ehlert          DFT functionals, gCP, sTDA/sTD-DF
   Ed Valeev, F. Pavosevic, A. Kumar             : LibInt (2-el integral package), F12 methods
   Garnet Chan, S. Sharma, J. Yang, R. Olivares  : DMRG
   Ulf Ekstrom                                   : XCFun DFT Library
   Mihaly Kallay                                 : mrcc  (arbitrary order and MRCC methods)
   Jiri Pittner, Ondrej Demel                    : Mk-CCSD
   Frank Weinhold                                : gennbo (NPA and NBO analysis)
   Christopher J. Cramer and Donald G. Truhlar   : smd solvation model
   Lars Goerigk                                  : TD-DFT with DH, B97 family of functionals
   V. Asgeirsson, H. Jonsson                     : NEB implementation
   FAccTs GmbH                                   : IRC, NEB, NEB-TS, DLPNO-Multilevel, CI-OPT
                                                   MM, QMMM, 2- and 3-layer-ONIOM, Crystal-QMMM,
                                                   LR-CPCM, SF, NACMEs, symmetry and pop. for TD-DFT,
                                                   nearIR, NL-DFT gradient (VV10), updates on ESD,
                                                   ML-optimized integration grids
   S Lehtola, MJT Oliveira, MAL Marques          : LibXC Library
   Liviu Ungur et al                             : ANISO software


 Your calculation uses the libint2 library for the computation of 2-el integrals
 For citations please refer to: http://libint.valeyev.net

 Your ORCA version has been built with support for libXC version: 5.1.0
 For citations please refer to: https://tddft.org/programs/libxc/

 This ORCA versions uses:
   CBLAS   interface :  Fast vector & matrix operations
   LAPACKE interface :  Fast linear algebra routines
   SCALAPACK package :  Parallel linear algebra routines
   Shared memory     :  Shared parallel matrices
   BLAS/LAPACK       :  OpenBLAS 0.3.15  USE64BITINT DYNAMIC_ARCH NO_AFFINITY Sandybridge SINGLE_THREADED
        Core in use  :  Sandybridge
   Copyright (c) 2011-2014, The OpenBLAS Project




***************************************
The coordinates will be read from file: pbe.xyz
***************************************


================================================================================

cite the ECPs for Au [Def2-ECP] as follows:
Ce-Yb(ecp-28): M. Dolg, H. Stoll, H.Preuss, J. Chem. Phys., 1989, 90, 1730-1734.
Y-Cd(ecp-28), Hf-Hg(ecp-46): D. Andrae,U. Haeussermann, M. Dolg, H. Stoll, H. Preuss, Theor. Chim. Acta, 1990, 77, 123-141.
In-Sb(ecp-28), Tl-Bi(ecp-46): B. Metz, H. Stoll, M. Dolg, J. Chem. Phys., 2000, 113, 2563-2569.
Te-Xe(ecp-28), Po-Rn(ecp-46): K. A. Peterson, D. Figgen, E. Goll, H. Stoll, M. Dolg, J. Chem. Phys., 2003, 119, 11113-11123.
Rb(ecp-28), Cs(ecp-46): T. Leininger, A. Nicklass, W. Kuechle, H. Stoll, M. Dolg, A. Bergner, Chem. Phys. Lett., 1996, 255, 274-280.
Sr(ecp-28), Ba(ecp-46): M. Kaupp, P. V. Schleyer, H. Stoll and H. Preuss, J. Chem. Phys., 1991, 94, 1360-1366.
La(ecp-46): M. Dolg, H. Stoll, A. Savin, H. Preuss, Theor. Chim. Acta, 1989, 75, 173-194.
Lu(ecp-28): X. Cao, M. Dolg, J. Chem. Phys., 2001, 115, 7348-7355.

ECP parameters for Au [Def2-ECP] have been obtained from:
TURBOMOLE (7.0.2)

----- Orbital basis set information -----
Your calculation utilizes the basis: def2-TZVP
   F. Weigend and R. Ahlrichs, Phys. Chem. Chem. Phys. 7, 3297 (2005).

----- AuxJ basis set information -----
Your calculation utilizes the auxiliary basis: def2/J
   F. Weigend, Phys. Chem. Chem. Phys. 8, 1057 (2006).

================================================================================
                                        WARNINGS
                       Please study these warnings very carefully!
================================================================================

Using LibXC functional ID 497 : Re-regularized SCAN exchange by Furness et al
[ 1]  J. W. Furness, A. D. Kaplan, J. Ning, J. P. Perdew, and J. Sun, J. Phys. Chem. Lett. 11, 8208 (2020)
[ 2]  J. W. Furness, A. D. Kaplan, J. Ning, J. P. Perdew, and J. Sun, J. Phys. Chem. Lett. 11, 9248 (2020)
Using LibXC functional ID 498 : Re-regularized SCAN correlation by Furness et al
[ 1]  J. W. Furness, A. D. Kaplan, J. Ning, J. P. Perdew, and J. Sun, J. Phys. Chem. Lett. 11, 8208 (2020)
[ 2]  J. W. Furness, A. D. Kaplan, J. Ning, J. P. Perdew, and J. Sun, J. Phys. Chem. Lett. 11, 9248 (2020)
Using LibXC functional ID 497 : Re-regularized SCAN exchange by Furness et al
[ 1]  J. W. Furness, A. D. Kaplan, J. Ning, J. P. Perdew, and J. Sun, J. Phys. Chem. Lett. 11, 8208 (2020)
[ 2]  J. W. Furness, A. D. Kaplan, J. Ning, J. P. Perdew, and J. Sun, J. Phys. Chem. Lett. 11, 9248 (2020)
Using LibXC functional ID 498 : Re-regularized SCAN correlation by Furness et al
[ 1]  J. W. Furness, A. D. Kaplan, J. Ning, J. P. Perdew, and J. Sun, J. Phys. Chem. Lett. 11, 8208 (2020)
[ 2]  J. W. Furness, A. D. Kaplan, J. Ning, J. P. Perdew, and J. Sun, J. Phys. Chem. Lett. 11, 9248 (2020)

WARNING: your system is open-shell and RHF/RKS was chosen
  ===> : WILL SWITCH to UHF/UKS


INFO   : the flag for use of the SHARK integral package has been found!



***************************************
The coordinates will be read from file: pbe.xyz
***************************************


================================================================================

cite the ECPs for Au [Def2-ECP] as follows:
Ce-Yb(ecp-28): M. Dolg, H. Stoll, H.Preuss, J. Chem. Phys., 1989, 90, 1730-1734.
Y-Cd(ecp-28), Hf-Hg(ecp-46): D. Andrae,U. Haeussermann, M. Dolg, H. Stoll, H. Preuss, Theor. Chim. Acta, 1990, 77, 123-141.
In-Sb(ecp-28), Tl-Bi(ecp-46): B. Metz, H. Stoll, M. Dolg, J. Chem. Phys., 2000, 113, 2563-2569.
Te-Xe(ecp-28), Po-Rn(ecp-46): K. A. Peterson, D. Figgen, E. Goll, H. Stoll, M. Dolg, J. Chem. Phys., 2003, 119, 11113-11123.
Rb(ecp-28), Cs(ecp-46): T. Leininger, A. Nicklass, W. Kuechle, H. Stoll, M. Dolg, A. Bergner, Chem. Phys. Lett., 1996, 255, 274-280.
Sr(ecp-28), Ba(ecp-46): M. Kaupp, P. V. Schleyer, H. Stoll and H. Preuss, J. Chem. Phys., 1991, 94, 1360-1366.
La(ecp-46): M. Dolg, H. Stoll, A. Savin, H. Preuss, Theor. Chim. Acta, 1989, 75, 173-194.
Lu(ecp-28): X. Cao, M. Dolg, J. Chem. Phys., 2001, 115, 7348-7355.

ECP parameters for Au [Def2-ECP] have been obtained from:
TURBOMOLE (7.0.2)

----- Orbital basis set information -----
Your calculation utilizes the basis: def2-TZVP
   F. Weigend and R. Ahlrichs, Phys. Chem. Chem. Phys. 7, 3297 (2005).

----- AuxJ basis set information -----
Your calculation utilizes the auxiliary basis: def2/J
   F. Weigend, Phys. Chem. Chem. Phys. 8, 1057 (2006).

================================================================================
                                        WARNINGS
                       Please study these warnings very carefully!
================================================================================

Using LibXC functional ID 497 : Re-regularized SCAN exchange by Furness et al
[ 1]  J. W. Furness, A. D. Kaplan, J. Ning, J. P. Perdew, and J. Sun, J. Phys. Chem. Lett. 11, 8208 (2020)
[ 2]  J. W. Furness, A. D. Kaplan, J. Ning, J. P. Perdew, and J. Sun, J. Phys. Chem. Lett. 11, 9248 (2020)
Using LibXC functional ID 498 : Re-regularized SCAN correlation by Furness et al
[ 1]  J. W. Furness, A. D. Kaplan, J. Ning, J. P. Perdew, and J. Sun, J. Phys. Chem. Lett. 11, 8208 (2020)
[ 2]  J. W. Furness, A. D. Kaplan, J. Ning, J. P. Perdew, and J. Sun, J. Phys. Chem. Lett. 11, 9248 (2020)
Using LibXC functional ID 497 : Re-regularized SCAN exchange by Furness et al
[ 1]  J. W. Furness, A. D. Kaplan, J. Ning, J. P. Perdew, and J. Sun, J. Phys. Chem. Lett. 11, 8208 (2020)
[ 2]  J. W. Furness, A. D. Kaplan, J. Ning, J. P. Perdew, and J. Sun, J. Phys. Chem. Lett. 11, 9248 (2020)
Using LibXC functional ID 498 : Re-regularized SCAN correlation by Furness et al
[ 1]  J. W. Furness, A. D. Kaplan, J. Ning, J. P. Perdew, and J. Sun, J. Phys. Chem. Lett. 11, 8208 (2020)
[ 2]  J. W. Furness, A. D. Kaplan, J. Ning, J. P. Perdew, and J. Sun, J. Phys. Chem. Lett. 11, 9248 (2020)

INFO   : the flag for use of the SHARK integral package has been found!

================================================================================
                                       INPUT FILE
================================================================================
NAME = scan.inp
|  1> !R2SCAN def2-TZVP VERYSLOWCONV
|  2> !KDIIS
|  3> %scf
|  4>   AutoTRAHIter 200
|  5>   maxiter 400
|  6> end
|  7> 
|  8> %pal nprocs 6 end 
|  9> 
| 10> *xyzfile 0 6 pbe.xyz
| 11> 
| 12> $new_job
| 13> 
| 14> !R2SCAN def2-TZVP VERYSLOWCONV
| 15> !KDIIS
| 16> %scf
| 17>   AutoTRAHIter 200
| 18>   maxiter 400
| 19> end
| 20> 
| 21> 
| 22> %pal nprocs 6 end 
| 23> 
| 24> *xyzfile 0 4 pbe.xyz
| 25> 
| 26> 
| 27> 
| 28> 
| 29> 
| 30>                          ****END OF INPUT****
================================================================================


                 $$$$$$$$$$$$$$$$$$$$$$$$$$$$$$$$$$$$$$$$$$$$$$ 
                 $ THERE ARE  2 JOBS TO BE PROCESSED THIS RUN $
                 $$$$$$$$$$$$$$$$$$$$$$$$$$$$$$$$$$$$$$$$$$$$$$ 




                 $$$$$$$$$$$$$$$$  JOB NUMBER  1 $$$$$$$$$$$$$$


                       ****************************
                       * Single Point Calculation *
                       ****************************

---------------------------------
CARTESIAN COORDINATES (ANGSTROEM)
---------------------------------
  Au     8.281853    7.693476   11.644014
  Au     7.823278    5.385492   10.426492
  Au     9.416817    7.451548    9.089886
  Au     7.348300    3.450184    8.763401
  Au     6.493577    7.822642    9.484179
  Au     6.205781    8.248715    6.919426
  Au     7.035865    3.928219    6.032678
  Au     9.121892    7.874378    6.524669
  Au     7.199918    6.294156    4.974315
  Au     7.468873    8.887958    4.496057
  Mn     7.532459    5.983388    7.726340

----------------------------
CARTESIAN COORDINATES (A.U.)
----------------------------
  NO LB      ZA    FRAG     MASS         X           Y           Z
   0 Au   19.0000*   0   196.966   15.650434   14.538562   22.003998
   1 Au   19.0000*   0   196.966   14.783853   10.177105   19.703214
   2 Au   19.0000*   0   196.966   17.795204   14.081386   17.177395
   3 Au   19.0000*   0   196.966   13.886275    6.519902   16.560429
   4 Au   19.0000*   0   196.966   12.271083   14.782652   17.922502
   5 Au   19.0000*   0   196.966   11.727227   15.587813   13.075820
   6 Au   19.0000*   0   196.966   13.295857    7.423258   11.400109
   7 Au   19.0000*   0   196.966   17.237878   14.880418   12.329837
   8 Au   19.0000*   0   196.966   13.605873   11.894231    9.400093
   9 Au   19.0000*   0   196.966   14.114125   16.795807    8.496316
  10 Mn   25.0000    0    54.940   14.234286   11.306964   14.600667
* core charge reduced due to ECP

--------------------------------
INTERNAL COORDINATES (ANGSTROEM)
--------------------------------
 Au     0   0   0     0.000000000000     0.00000000     0.00000000
 Au     1   0   0     2.649422500108     0.00000000     0.00000000
 Au     1   2   0     2.805395145228    64.94537044     0.00000000
 Au     2   1   3     2.595552623345   167.33223141   323.86688650
 Au     1   2   3     2.807044546465    64.92722794    71.57393727
 Au     5   1   2     2.615783812643   146.30579388   267.16494894
 Au     4   2   1     2.789800074506   121.32610553     0.30081798
 Au     3   1   2     2.616506100849   146.41341100    92.68924688
 Au     7   4   2     2.597056559542   123.22457292     0.16344430
 Au     9   7   4     2.651203469250   166.21714929   359.59487558
 Mn     7   4   2     2.709024936763    59.83515985     0.05069703

---------------------------
INTERNAL COORDINATES (A.U.)
---------------------------
 Au     0   0   0     0.000000000000     0.00000000     0.00000000
 Au     1   0   0     5.006682938253     0.00000000     0.00000000
 Au     1   2   0     5.301428521912    64.94537044     0.00000000
 Au     2   1   3     4.904883624303   167.33223141   323.86688650
 Au     1   2   3     5.304545438536    64.92722794    71.57393727
 Au     5   1   2     4.943115031439   146.30579388   267.16494894
 Au     4   2   1     5.271958109210   121.32610553     0.30081798
 Au     3   1   2     4.944479958339   146.41341100    92.68924688
 Au     7   4   2     4.907725651838   123.22457292     0.16344430
 Au     9   7   4     5.010048482184   166.21714929   359.59487558
 Mn     7   4   2     5.119315220445    59.83515985     0.05069703

---------------------
BASIS SET INFORMATION
---------------------
There are 2 groups of distinct atoms

 Group   1 Type Au  : 8s7p6d1f contracted to 6s4p3d1f pattern {311111/4111/411/1}
 Group   2 Type Mn  : 17s11p7d1f contracted to 6s4p4d1f pattern {842111/6311/4111/1}

Atom   0Au   basis set group =>   1
Atom   1Au   basis set group =>   1
Atom   2Au   basis set group =>   1
Atom   3Au   basis set group =>   1
Atom   4Au   basis set group =>   1
Atom   5Au   basis set group =>   1
Atom   6Au   basis set group =>   1
Atom   7Au   basis set group =>   1
Atom   8Au   basis set group =>   1
Atom   9Au   basis set group =>   1
Atom  10Mn   basis set group =>   2
---------------------------------
AUXILIARY/J BASIS SET INFORMATION
---------------------------------
There are 2 groups of distinct atoms

 Group   1 Type Au  : 11s5p5d3f3g contracted to 8s5p5d2f3g pattern {41111111/11111/11111/21/111}
 Group   2 Type Mn  : 19s5p5d3f3g contracted to 8s5p5d2f3g pattern {121111111/11111/11111/21/111}

Atom   0Au   basis set group =>   1
Atom   1Au   basis set group =>   1
Atom   2Au   basis set group =>   1
Atom   3Au   basis set group =>   1
Atom   4Au   basis set group =>   1
Atom   5Au   basis set group =>   1
Atom   6Au   basis set group =>   1
Atom   7Au   basis set group =>   1
Atom   8Au   basis set group =>   1
Atom   9Au   basis set group =>   1
Atom  10Mn   basis set group =>   2
-------------------------
ECP PARAMETER INFORMATION
-------------------------

 Group 1, Type Au ECP Def2-ECP (replacing 60 core electrons, lmax=3)

Atom   0Au   ECP group =>   1
Atom   1Au   ECP group =>   1
Atom   2Au   ECP group =>   1
Atom   3Au   ECP group =>   1
Atom   4Au   ECP group =>   1
Atom   5Au   ECP group =>   1
Atom   6Au   ECP group =>   1
Atom   7Au   ECP group =>   1
Atom   8Au   ECP group =>   1
Atom   9Au   ECP group =>   1



           ************************************************************
           *        Program running with 6 parallel MPI-processes     *
           *              working on a common directory               *
           ************************************************************
------------------------------------------------------------------------------
                           ORCA GTO INTEGRAL CALCULATION
                           -- RI-GTO INTEGRALS CHOSEN --
------------------------------------------------------------------------------
------------------------------------------------------------------------------
                   ___                                                        
                  /   \      - P O W E R E D   B Y -                         
                 /     \                                                     
                 |  |  |   _    _      __       _____    __    __             
                 |  |  |  | |  | |    /  \     |  _  \  |  |  /  |          
                  \  \/   | |  | |   /    \    | | | |  |  | /  /          
                 / \  \   | |__| |  /  /\  \   | |_| |  |  |/  /          
                |  |  |   |  __  | /  /__\  \  |    /   |      \           
                |  |  |   | |  | | |   __   |  |    \   |  |\   \          
                \     /   | |  | | |  |  |  |  | |\  \  |  | \   \       
                 \___/    |_|  |_| |__|  |__|  |_| \__\ |__|  \__/        
                                                                              
                      - O R C A' S   B I G   F R I E N D -                    
                                      &                                       
                       - I N T E G R A L  F E E D E R -                       
                                                                              
 v1 FN, 2020, v2 2021                                                         
------------------------------------------------------------------------------


Reading SHARK input file scan.SHARKINP.tmp ... ok
----------------------
SHARK INTEGRAL PACKAGE
----------------------

Number of atoms                             ...     11
Number of basis functions                   ...    445
Number of shells                            ...    155
Maximum angular momentum                    ...      3
Integral batch strategy                     ... SHARK/LIBINT Hybrid
RI-J (if used) integral strategy            ... SPLIT-RIJ (Revised 2003 algorithm where possible)
Printlevel                                  ...      1
Contraction scheme used                     ... SEGMENTED contraction
Coulomb Range Separation                    ... NOT USED
Exchange Range Separation                   ... NOT USED
Finite Nucleus Model                        ... NOT USED
Auxiliary Coulomb fitting basis             ... AVAILABLE
   # of basis functions in Aux-J            ...    979
   # of shells in Aux-J                     ...    253
   Maximum angular momentum in Aux-J        ...      4
Auxiliary J/K fitting basis                 ... NOT available
Auxiliary Correlation fitting basis         ... NOT available
Auxiliary 'external' fitting basis          ... NOT available
Integral threshold                          ...     1.000000e-10
Primitive cut-off                           ...     1.000000e-11
Primitive pair pre-selection threshold      ...     1.000000e-11

Calculating pre-screening integrals         ... done (  0.2 sec) Dimension = 155
Organizing shell pair data                  ... done (  0.4 sec)
Shell pair information
Total number of shell pairs                 ...     12090
Shell pairs after pre-screening             ...      9676
Total number of primitive shell pairs       ...     33105
Primitive shell pairs kept                  ...     19432
          la=0 lb=0:   1535 shell pairs
          la=1 lb=0:   2198 shell pairs
          la=1 lb=1:    837 shell pairs
          la=2 lb=0:   1916 shell pairs
          la=2 lb=1:   1358 shell pairs
          la=2 lb=2:    561 shell pairs
          la=3 lb=0:    510 shell pairs
          la=3 lb=1:    382 shell pairs
          la=3 lb=2:    328 shell pairs
          la=3 lb=3:     51 shell pairs

Calculating one electron integrals          ... done (  0.0 sec)
Calculating ECP integrals                   ... done (  8.5 sec)
Calculating RI/J V-Matrix + Cholesky decomp.... done (  0.1 sec)
Calculating Nuclear repulsion               ... done (  0.0 sec) ENN=   3057.469587505664 Eh

SHARK setup successfully completed in   9.6 seconds

Maximum memory used throughout the entire GTOINT-calculation: 26.9 MB


           ************************************************************
           *        Program running with 6 parallel MPI-processes     *
           *              working on a common directory               *
           ************************************************************
-------------------------------------------------------------------------------
                                 ORCA SCF
-------------------------------------------------------------------------------

------------
SCF SETTINGS
------------
Hamiltonian:
 Density Functional     Method          .... DFT(GTOs)
  Functional kind                       .... Exchange
  Functional name                       .... Re-regularized SCAN exchange by Furness et al
  Functional family                     .... MGGA
  Functional refs                              
    [ 0] J. W. Furness, A. D. Kaplan, J. Ning, J. P. Perdew, and J. Sun, J. Phys. Chem. Lett. 11, 8208 (2020)
    [ 1] J. W. Furness, A. D. Kaplan, J. Ning, J. P. Perdew, and J. Sun, J. Phys. Chem. Lett. 11, 9248 (2020)
  Functional external parameters         .... 8
 Parameter  0 :         c1 parameter
 Parameter  1 :         c2 parameter
 Parameter  2 :          d parameter
 Parameter  3 :         k1 parameter
 Parameter  4 :       taur parameter
 Parameter  5 :     alphar parameter
 Parameter  6 :        eta parameter
 Parameter  7 :        dp2 parameter
  Functional kind                       .... Correlation
  Functional name                       .... Re-regularized SCAN correlation by Furness et al
  Functional family                     .... MGGA
  Functional refs                              
    [ 0] J. W. Furness, A. D. Kaplan, J. Ning, J. P. Perdew, and J. Sun, J. Phys. Chem. Lett. 11, 8208 (2020)
    [ 1] J. W. Furness, A. D. Kaplan, J. Ning, J. P. Perdew, and J. Sun, J. Phys. Chem. Lett. 11, 9248 (2020)
  Functional external parameters         .... 0
 Gradients option       PostSCFGGA      .... off
   Density functional embedding theory  .... OFF
   NL short-range parameter             .... 12.300000
 RI-approximation to the Coulomb term is turned on
   Number of AuxJ basis functions       .... 979


General Settings:
 Integral files         IntName         .... scan
 Hartree-Fock type      HFTyp           .... UHF
 Total Charge           Charge          ....    0
 Multiplicity           Mult            ....    6
 Number of Electrons    NEL             ....  215
 Basis Dimension        Dim             ....  445
 Nuclear Repulsion      ENuc            ....   3057.4695875057 Eh

Convergence Acceleration:
 DIIS                   CNVDIIS         .... off
 Trust-Rad. Augm. Hess. CNVTRAH         .... auto
   Auto Start mean grad. ratio tolernc. ....  1.125000
   Auto Start start iteration           ....   200
   Auto Start num. interpolation iter.  ....    10
   Max. Number of Micro iterations      ....    16
   Max. Number of Macro iterations      .... Maxiter - #DIIS iter
   Number of Davidson start vectors     ....     2
   Converg. threshold I  (grad. norm)   ....   5.000e-05
   Converg. threshold II (energy diff.) ....   1.000e-06
   Grad. Scal. Fac. for Micro threshold ....   0.100
   Minimum threshold for Micro iter.    ....   0.010
   NR start threshold (gradient norm)   ....   0.001
   Initial trust radius                 ....   0.400
   Minimum AH scaling param. (alpha)    ....   1.000
   Maximum AH scaling param. (alpha)    .... 1000.000
   Orbital update algorithm             .... Taylor
   White noise on init. David. guess    .... on
   Maximum white noise                  ....   0.010
   Quad. conv. algorithm                .... NR
 SOSCF                  CNVSOSCF        .... off
 Level Shifting         CNVShift        .... off
 Zerner damping         CNVZerner       .... off
 Static damping         CNVDamp         .... off
 Fernandez-Rico         CNVRico         .... off

SCF Procedure:
 Maximum # iterations   MaxIter         ....   400
 SCF integral mode      SCFMode         .... Direct
   Integral package                     .... SHARK and LIBINT hybrid scheme
 Reset frequency        DirectResetFreq ....    20
 Integral Threshold     Thresh          ....  1.000e-10 Eh
 Primitive CutOff       TCut            ....  1.000e-11 Eh

Convergence Tolerance:
 Convergence Check Mode ConvCheckMode   .... All-Criteria
 Convergence forced     ConvForced      .... 0
 Energy Change          TolE            ....  1.000e-06 Eh
 Max Density Change     TolMaxP         ....  1.000e-05
 RMS Density Change     TolRMSP         ....  1.000e-06


Diagonalization of the overlap matrix:
Smallest eigenvalue                        ... 6.733e-04
Time for diagonalization                   ...    0.078 sec
Threshold for overlap eigenvalues          ... 1.000e-08
Number of eigenvalues below threshold      ... 0
Time for construction of square roots      ...    0.051 sec
Total time needed                          ...    0.131 sec

Time for model grid setup =    0.605 sec

------------------------------
INITIAL GUESS: MODEL POTENTIAL
------------------------------
Loading Hartree-Fock densities                     ... done
  calling /home/ehlert/src/miniconda3/envs/orca500/Programs/ORCA501/orca scan_atom79.inp > scan_atom79.out in order to generate an atomic fitting density for atom 0 (Au with ECP) on-the-fly... 
    atom 0 (Au), assumed electronic state with S=2: 1s2 2s2 2p6 3s2 3p6 4s2 3d10 4p6 5s2 4d10 5p6 6s1 4f14 5d10           ... done
Calculating cut-offs                               ... done
Initializing the effective Hamiltonian             ... done
Setting up the integral package (SHARK)            ... done
Starting the Coulomb interaction                   ... done (   0.5 sec)
Reading the grid                                   ... done
Mapping shells                                     ... done
Starting the XC term evaluation                    ... done (   0.5 sec)
  promolecular density results
     # of electrons  =    815.012457909
     EX              =  -3708.752357025
     EC              =    -49.482985608
     EX+EC           =  -3758.235342632
Transforming the Hamiltonian                       ... done (   0.0 sec)
Diagonalizing the Hamiltonian                      ... done (   0.1 sec)
Back transforming the eigenvectors                 ... done (   0.0 sec)
Now organizing SCF variables                       ... done
                      ------------------
                      INITIAL GUESS DONE (   2.8 sec)
                      ------------------
-------------------
DFT GRID GENERATION
-------------------

General Integration Accuracy     IntAcc      ... 4.388
Radial Grid Type                 RadialGrid  ... OptM3 with GC (2021)
Angular Grid (max. ang.)         AngularGrid ... 4 (Lebedev-302)
Angular grid pruning method      GridPruning ... 4 (adaptive)
Weight generation scheme         WeightScheme... Becke
Basis function cutoff            BFCut       ... 1.0000e-10
Integration weight cutoff        WCut        ... 1.0000e-14
Angular grids for H and He will be reduced by one unit
Partially contracted basis set               ... off
Rotationally invariant grid construction     ... off

Total number of grid points                  ...   123722
Total number of batches                      ...     1939
Average number of points per batch           ...       63
Average number of grid points per atom       ...    11247
Time for grid setup =    2.002 sec

--------------
SCF ITERATIONS
--------------
ITER       Energy         Delta-E        Max-DP      RMS-DP      [F,P]   Gradient Norm
               ***  Starting incremental Fock matrix formation  ***
                             ****Resetting KDIIS****
                             ****Turning on KDIIS(Cayley)****
  0  -2508.2675963740   0.000000000000 0.08649760  0.00085929  0.4141339   0.200699862
  1  -2508.7818495768  -0.514253202828 0.07632199  0.00096817  0.3708648   0.165728128
  2  -2509.0969241656  -0.315074588766 0.10989309  0.00119524  0.2937600   0.127134812
  3  -2509.3154433142  -0.218519148611 0.14953339  0.00157366  0.1727114   0.073789918
  4  -2509.4056815792  -0.090238265019 0.04363656  0.00046919  0.0303749   0.016671663
  5  -2509.4301195367  -0.024437957497 0.03704114  0.00041702  0.0149005   0.006959260
  6  -2509.4425731017  -0.012453565016 0.02043429  0.00035112  0.0182345   0.005017570
  7  -2509.4491679707  -0.006594868914 0.01643791  0.00028018  0.0060595   0.005290363
  8  -2509.4470359775   0.002131993125 0.02027605  0.00019765  0.0078066   0.008731381
  9  -2509.4526299043  -0.005593926800 0.00528776  0.00006410  0.0028882   0.001875512
 10  -2509.4528917151  -0.000261810811 0.00433343  0.00004825  0.0015769   0.001423584
 11  -2509.4531680069  -0.000276291708 0.00271960  0.00002553  0.0010967   0.000571973
 12  -2509.4531650231   0.000002983780 0.00169180  0.00001864  0.0006266   0.000517979
 13  -2509.4531876807  -0.000022657655 0.00170031  0.00001811  0.0008323   0.000358561
 14  -2509.4532118411  -0.000024160417 0.00109729  0.00001245  0.0005167   0.000217682
 15  -2509.4532236716  -0.000011830477 0.00105467  0.00000980  0.0006267   0.000433160
                          ***Energy convergence achieved***
 16  -2509.4532242283  -0.000000556645 0.00065211  0.00000607  0.0004329   0.000173601
 17  -2509.4532245463  -0.000000318019 0.00062246  0.00000700  0.0003648   0.000129136
 18  -2509.4532314520  -0.000006905726 0.00052271  0.00000504  0.0003430   0.000110987
                          ***Energy convergence achieved***
 19  -2509.4532315218  -0.000000069800 0.00027880  0.00000336  0.0002352   0.000100539
               *** Restarting incremental Fock matrix formation ***
                             ****Resetting KDIIS****
                           ***RMSP convergence achieved***

            ***Energy convergence in two consecutive cycles with***
                    ***'reasonable' density convergence***
                       *** signaling convergence ***

                    *** KDIIS BlockDiag ( 0.125 sec) ***

               *****************************************************
               *                     SUCCESS                       *
               *           SCF CONVERGED AFTER  20 CYCLES          *
               *****************************************************


----------------
TOTAL SCF ENERGY
----------------

Total Energy       :        -2509.45323229 Eh          -68285.69403 eV

Components:
Nuclear Repulsion  :         3057.46958751 Eh           83197.97718 eV
Electronic Energy  :        -5566.92281979 Eh         -151483.67121 eV
One Electron Energy:       -10082.59873998 Eh         -274361.45998 eV
Two Electron Energy:         4515.67592019 Eh          122877.78877 eV

Virial components:
Potential Energy   :        -4117.34192391 Eh         -112038.56968 eV
Kinetic Energy     :         1607.88869162 Eh           43752.87565 eV
Virial Ratio       :            2.56071328


DFT components:
N(Alpha)           :      109.999979473897 electrons
N(Beta)            :      104.999980141735 electrons
N(Total)           :      214.999959615632 electrons
E(X)               :     -172.464033445336 Eh       
E(C)               :       -8.889113506726 Eh       
E(XC)              :     -181.353146952062 Eh       
DFET-embed. en.    :        0.000000000000 Eh       

---------------
SCF CONVERGENCE
---------------

  Last Energy change         ...   -7.6411e-07  Tolerance :   1.0000e-06
  Last MAX-Density change    ...    4.3092e-05  Tolerance :   1.0000e-05
  Last RMS-Density change    ...    5.4455e-07  Tolerance :   1.0000e-06

             **** THE GBW FILE WAS UPDATED (scan.gbw) ****
             **** DENSITY scan.scfp WAS UPDATED ****
             **** ENERGY FILE WAS UPDATED (scan.en.tmp) ****
----------------------
UHF SPIN CONTAMINATION
----------------------

Warning: in a DFT calculation there is little theoretical justification to 
         calculate <S**2> as in Hartree-Fock theory. We will do it anyways
         but you should keep in mind that the values have only limited relevance

Expectation value of <S**2>     :     8.777232
Ideal value S*(S+1) for S=2.5   :     8.750000
Deviation                       :     0.027232

             **** THE GBW FILE WAS UPDATED (scan.gbw) ****
             **** DENSITY scan.scfp WAS UPDATED ****
----------------
ORBITAL ENERGIES
----------------
                 SPIN UP ORBITALS
  NO   OCC          E(Eh)            E(eV) 
   0   1.0000    -235.047983     -6395.9808 
   1   1.0000     -27.229221      -740.9448 
   2   1.0000     -23.276871      -633.3959 
   3   1.0000     -23.275117      -633.3481 
   4   1.0000     -23.274505      -633.3315 
   5   1.0000      -4.121252      -112.1450 
   6   1.0000      -4.120366      -112.1209 
   7   1.0000      -4.113728      -111.9402 
   8   1.0000      -4.113425      -111.9320 
   9   1.0000      -4.111699      -111.8850 
  10   1.0000      -4.111497      -111.8795 
  11   1.0000      -4.111412      -111.8772 
  12   1.0000      -4.111126      -111.8694 
  13   1.0000      -4.111027      -111.8667 
  14   1.0000      -4.110993      -111.8658 
  15   1.0000      -3.253894       -88.5429 
  16   1.0000      -2.314837       -62.9899 
  17   1.0000      -2.314048       -62.9684 
  18   1.0000      -2.307129       -62.7802 
  19   1.0000      -2.306390       -62.7601 
  20   1.0000      -2.305331       -62.7312 
  21   1.0000      -2.304922       -62.7201 
  22   1.0000      -2.303894       -62.6922 
  23   1.0000      -2.303316       -62.6764 
  24   1.0000      -2.301657       -62.6313 
  25   1.0000      -2.301283       -62.6211 
  26   1.0000      -2.300662       -62.6042 
  27   1.0000      -2.299920       -62.5840 
  28   1.0000      -2.299567       -62.5744 
  29   1.0000      -2.299099       -62.5617 
  30   1.0000      -2.298999       -62.5589 
  31   1.0000      -2.298594       -62.5479 
  32   1.0000      -2.297796       -62.5262 
  33   1.0000      -2.297691       -62.5233 
  34   1.0000      -2.297169       -62.5092 
  35   1.0000      -2.296542       -62.4921 
  36   1.0000      -2.296296       -62.4854 
  37   1.0000      -2.296268       -62.4846 
  38   1.0000      -2.295739       -62.4702 
  39   1.0000      -2.295629       -62.4672 
  40   1.0000      -2.291648       -62.3589 
  41   1.0000      -2.290751       -62.3345 
  42   1.0000      -2.290709       -62.3334 
  43   1.0000      -2.289988       -62.3137 
  44   1.0000      -2.289874       -62.3106 
  45   1.0000      -2.289251       -62.2937 
  46   1.0000      -2.112820       -57.4927 
  47   1.0000      -2.109246       -57.3955 
  48   1.0000      -2.108354       -57.3712 
  49   1.0000      -0.416493       -11.3334 
  50   1.0000      -0.395270       -10.7558 
  51   1.0000      -0.386316       -10.5122 
  52   1.0000      -0.380322       -10.3491 
  53   1.0000      -0.380067       -10.3421 
  54   1.0000      -0.375112       -10.2073 
  55   1.0000      -0.369618       -10.0578 
  56   1.0000      -0.356013        -9.6876 
  57   1.0000      -0.351700        -9.5702 
  58   1.0000      -0.345877        -9.4118 
  59   1.0000      -0.345668        -9.4061 
  60   1.0000      -0.343440        -9.3455 
  61   1.0000      -0.342546        -9.3211 
  62   1.0000      -0.340852        -9.2751 
  63   1.0000      -0.338248        -9.2042 
  64   1.0000      -0.335486        -9.1290 
  65   1.0000      -0.332312        -9.0427 
  66   1.0000      -0.326160        -8.8753 
  67   1.0000      -0.322230        -8.7683 
  68   1.0000      -0.320831        -8.7303 
  69   1.0000      -0.316315        -8.6074 
  70   1.0000      -0.315989        -8.5985 
  71   1.0000      -0.311551        -8.4777 
  72   1.0000      -0.310422        -8.4470 
  73   1.0000      -0.307959        -8.3800 
  74   1.0000      -0.299787        -8.1576 
  75   1.0000      -0.298537        -8.1236 
  76   1.0000      -0.298145        -8.1129 
  77   1.0000      -0.294830        -8.0227 
  78   1.0000      -0.293588        -7.9889 
  79   1.0000      -0.293016        -7.9734 
  80   1.0000      -0.289259        -7.8711 
  81   1.0000      -0.289098        -7.8667 
  82   1.0000      -0.284964        -7.7543 
  83   1.0000      -0.283163        -7.7053 
  84   1.0000      -0.282459        -7.6861 
  85   1.0000      -0.282143        -7.6775 
  86   1.0000      -0.280043        -7.6204 
  87   1.0000      -0.275965        -7.5094 
  88   1.0000      -0.275452        -7.4954 
  89   1.0000      -0.275429        -7.4948 
  90   1.0000      -0.271900        -7.3988 
  91   1.0000      -0.271676        -7.3927 
  92   1.0000      -0.271620        -7.3912 
  93   1.0000      -0.271274        -7.3817 
  94   1.0000      -0.268412        -7.3039 
  95   1.0000      -0.264967        -7.2101 
  96   1.0000      -0.263882        -7.1806 
  97   1.0000      -0.261752        -7.1226 
  98   1.0000      -0.258819        -7.0428 
  99   1.0000      -0.257908        -7.0180 
 100   1.0000      -0.256493        -6.9795 
 101   1.0000      -0.252819        -6.8796 
 102   1.0000      -0.252507        -6.8711 
 103   1.0000      -0.251007        -6.8302 
 104   1.0000      -0.247389        -6.7318 
 105   1.0000      -0.240683        -6.5493 
 106   1.0000      -0.239542        -6.5183 
 107   1.0000      -0.217314        -5.9134 
 108   1.0000      -0.211358        -5.7514 
 109   1.0000      -0.210840        -5.7372 
 110   0.0000      -0.164106        -4.4656 
 111   0.0000      -0.139457        -3.7948 
 112   0.0000      -0.126977        -3.4552 
 113   0.0000      -0.104284        -2.8377 
 114   0.0000      -0.103301        -2.8110 
 115   0.0000      -0.073439        -1.9984 
 116   0.0000      -0.061480        -1.6730 
 117   0.0000      -0.050033        -1.3615 
 118   0.0000      -0.049414        -1.3446 
 119   0.0000      -0.037475        -1.0197 
 120   0.0000      -0.032629        -0.8879 
 121   0.0000      -0.008939        -0.2432 
 122   0.0000      -0.001278        -0.0348 
 123   0.0000      -0.000868        -0.0236 
 124   0.0000       0.002902         0.0790 
 125   0.0000       0.010910         0.2969 
 126   0.0000       0.033269         0.9053 
 127   0.0000       0.047102         1.2817 
 128   0.0000       0.057741         1.5712 
 129   0.0000       0.064695         1.7604 
 130   0.0000       0.067154         1.8273 
 131   0.0000       0.069320         1.8863 
 132   0.0000       0.072432         1.9710 
 133   0.0000       0.076391         2.0787 
 134   0.0000       0.078334         2.1316 
 135   0.0000       0.085872         2.3367 
 136   0.0000       0.086046         2.3414 
 137   0.0000       0.088012         2.3949 
 138   0.0000       0.098181         2.6717 
 139   0.0000       0.116958         3.1826 
 140   0.0000       0.120473         3.2782 
 141   0.0000       0.129800         3.5320 
 142   0.0000       0.132796         3.6136 
 143   0.0000       0.133111         3.6221 
 144   0.0000       0.136028         3.7015 
 145   0.0000       0.168292         4.5795 
 146   0.0000       0.172862         4.7038 
 147   0.0000       0.174499         4.7484 
 148   0.0000       0.176676         4.8076 
 149   0.0000       0.178585         4.8595 
 150   0.0000       0.185367         5.0441 
 151   0.0000       0.191012         5.1977 
 152   0.0000       0.191127         5.2008 
 153   0.0000       0.198234         5.3942 
 154   0.0000       0.219641         5.9767 
 155   0.0000       0.229146         6.2354 
 156   0.0000       0.230685         6.2773 
 157   0.0000       0.239121         6.5068 
 158   0.0000       0.253161         6.8888 
 159   0.0000       0.254058         6.9133 
 160   0.0000       0.258602         7.0369 
 161   0.0000       0.265417         7.2224 
 162   0.0000       0.267787         7.2869 
 163   0.0000       0.277765         7.5584 
 164   0.0000       0.286694         7.8013 
 165   0.0000       0.292168         7.9503 
 166   0.0000       0.297947         8.1076 
 167   0.0000       0.298437         8.1209 
 168   0.0000       0.299829         8.1588 
 169   0.0000       0.307286         8.3617 
 170   0.0000       0.308979         8.4078 
 171   0.0000       0.317661         8.6440 
 172   0.0000       0.327022         8.8987 
 173   0.0000       0.331509         9.0208 
 174   0.0000       0.332640         9.0516 
 175   0.0000       0.339875         9.2485 
 176   0.0000       0.343211         9.3392 
 177   0.0000       0.343993         9.3605 
 178   0.0000       0.345135         9.3916 
 179   0.0000       0.364940         9.9305 
 180   0.0000       0.369258        10.0480 
 181   0.0000       0.376131        10.2350 
 182   0.0000       0.376722        10.2511 
 183   0.0000       0.379051        10.3145 
 184   0.0000       0.388176        10.5628 
 185   0.0000       0.397691        10.8217 
 186   0.0000       0.399249        10.8641 
 187   0.0000       0.401670        10.9300 
 188   0.0000       0.405239        11.0271 
 189   0.0000       0.419907        11.4262 
 190   0.0000       0.424930        11.5629 
 191   0.0000       0.429584        11.6896 
 192   0.0000       0.435892        11.8612 
 193   0.0000       0.444616        12.0986 
 194   0.0000       0.453509        12.3406 
 195   0.0000       0.453890        12.3510 
 196   0.0000       0.466217        12.6864 
 197   0.0000       0.466919        12.7055 
 198   0.0000       0.473908        12.8957 
 199   0.0000       0.482330        13.1249 
 200   0.0000       0.483417        13.1544 
 201   0.0000       0.493804        13.4371 
 202   0.0000       0.497715        13.5435 
 203   0.0000       0.504856        13.7378 
 204   0.0000       0.507166        13.8007 
 205   0.0000       0.526178        14.3180 
 206   0.0000       0.528514        14.3816 
 207   0.0000       0.540519        14.7083 
 208   0.0000       0.542224        14.7547 
 209   0.0000       0.551914        15.0183 
 210   0.0000       0.572059        15.5665 
 211   0.0000       0.576597        15.6900 
 212   0.0000       0.589071        16.0294 
 213   0.0000       0.596723        16.2377 
 214   0.0000       0.604939        16.4612 
 215   0.0000       0.607204        16.5229 
 216   0.0000       0.640336        17.4244 
 217   0.0000       0.644249        17.5309 
 218   0.0000       0.662524        18.0282 
 219   0.0000       0.664252        18.0752 
 220   0.0000       0.691001        18.8031 
 221   0.0000       0.717610        19.5272 
 222   0.0000       0.746628        20.3168 
 223   0.0000       0.751152        20.4399 
 224   0.0000       0.758516        20.6403 
 225   0.0000       0.761879        20.7318 
 226   0.0000       0.789892        21.4940 
 227   0.0000       0.799629        21.7590 
 228   0.0000       0.800400        21.7800 
 229   0.0000       0.808642        22.0043 
 230   0.0000       0.812216        22.1015 
 231   0.0000       0.823103        22.3978 
 232   0.0000       0.832429        22.6515 
 233   0.0000       0.860890        23.4260 
 234   0.0000       0.878626        23.9086 
 235   0.0000       0.905178        24.6312 
 236   0.0000       0.907264        24.6879 
 237   0.0000       0.924361        25.1531 
 238   0.0000       0.940223        25.5848 
 239   0.0000       0.946974        25.7685 
 240   0.0000       0.953111        25.9355 
 241   0.0000       0.967199        26.3188 
 242   0.0000       0.983734        26.7688 
 243   0.0000       0.993889        27.0451 
 244   0.0000       1.013026        27.5658 
 245   0.0000       1.030386        28.0382 
 246   0.0000       1.055197        28.7134 
 247   0.0000       1.065699        28.9991 
 248   0.0000       1.148943        31.2643 
 249   0.0000       1.243961        33.8499 
 250   0.0000       1.257361        34.2145 
 251   0.0000       1.300305        35.3831 
 252   0.0000       1.311268        35.6814 
 253   0.0000       1.313893        35.7528 
 254   0.0000       1.328915        36.1616 
 255   0.0000       1.344940        36.5977 
 256   0.0000       1.381302        37.5871 
 257   0.0000       1.385777        37.7089 
 258   0.0000       1.387526        37.7565 
 259   0.0000       1.405206        38.2376 
 260   0.0000       1.405605        38.2485 
 261   0.0000       1.410143        38.3719 
 262   0.0000       1.410784        38.3894 
 263   0.0000       1.413409        38.4608 
 264   0.0000       1.417114        38.5616 
 265   0.0000       1.433394        39.0046 
 266   0.0000       1.437426        39.1143 
 267   0.0000       1.439893        39.1815 
 268   0.0000       1.447098        39.3775 
 269   0.0000       1.453058        39.5397 
 270   0.0000       1.464987        39.8643 
 271   0.0000       1.469659        39.9915 
 272   0.0000       1.472750        40.0756 
 273   0.0000       1.476619        40.1808 
 274   0.0000       1.490202        40.5504 
 275   0.0000       1.500248        40.8238 
 276   0.0000       1.508572        41.0503 
 277   0.0000       1.510395        41.0999 
 278   0.0000       1.510896        41.1136 
 279   0.0000       1.514196        41.2034 
 280   0.0000       1.517383        41.2901 
 281   0.0000       1.518671        41.3251 
 282   0.0000       1.524692        41.4890 
 283   0.0000       1.528047        41.5803 
 284   0.0000       1.529224        41.6123 
 285   0.0000       1.530531        41.6479 
 286   0.0000       1.534167        41.7468 
 287   0.0000       1.540874        41.9293 
 288   0.0000       1.542109        41.9629 
 289   0.0000       1.547233        42.1024 
 290   0.0000       1.547442        42.1080 
 291   0.0000       1.547695        42.1149 
 292   0.0000       1.548914        42.1481 
 293   0.0000       1.551190        42.2100 
 294   0.0000       1.554960        42.3126 
 295   0.0000       1.557583        42.3840 
 296   0.0000       1.557825        42.3906 
 297   0.0000       1.561017        42.4774 
 298   0.0000       1.562882        42.5282 
 299   0.0000       1.563587        42.5474 
 300   0.0000       1.564098        42.5613 
 301   0.0000       1.565592        42.6019 
 302   0.0000       1.568742        42.6876 
 303   0.0000       1.571544        42.7639 
 304   0.0000       1.571630        42.7662 
 305   0.0000       1.573061        42.8052 
 306   0.0000       1.573316        42.8121 
 307   0.0000       1.574872        42.8545 
 308   0.0000       1.578888        42.9637 
 309   0.0000       1.579528        42.9811 
 310   0.0000       1.580508        43.0078 
 311   0.0000       1.583144        43.0795 
 312   0.0000       1.587457        43.1969 
 313   0.0000       1.593772        43.3688 
 314   0.0000       1.593852        43.3709 
 315   0.0000       1.596908        43.4541 
 316   0.0000       1.598291        43.4917 
 317   0.0000       1.598911        43.5086 
 318   0.0000       1.601985        43.5922 
 319   0.0000       1.607935        43.7541 
 320   0.0000       1.609393        43.7938 
 321   0.0000       1.612269        43.8721 
 322   0.0000       1.616435        43.9854 
 323   0.0000       1.618577        44.0437 
 324   0.0000       1.620104        44.0853 
 325   0.0000       1.620964        44.1087 
 326   0.0000       1.621879        44.1336 
 327   0.0000       1.626642        44.2632 
 328   0.0000       1.630021        44.3551 
 329   0.0000       1.633681        44.4547 
 330   0.0000       1.635371        44.5007 
 331   0.0000       1.636830        44.5404 
 332   0.0000       1.638805        44.5942 
 333   0.0000       1.640846        44.6497 
 334   0.0000       1.649046        44.8728 
 335   0.0000       1.652777        44.9744 
 336   0.0000       1.656426        45.0737 
 337   0.0000       1.659231        45.1500 
 338   0.0000       1.659957        45.1697 
 339   0.0000       1.661359        45.2079 
 340   0.0000       1.667353        45.3710 
 341   0.0000       1.669089        45.4182 
 342   0.0000       1.671927        45.4954 
 343   0.0000       1.681567        45.7578 
 344   0.0000       1.686443        45.8905 
 345   0.0000       1.693474        46.0818 
 346   0.0000       1.701231        46.2928 
 347   0.0000       1.707756        46.4704 
 348   0.0000       1.711204        46.5642 
 349   0.0000       1.711946        46.5844 
 350   0.0000       1.720296        46.8116 
 351   0.0000       1.744927        47.4819 
 352   0.0000       1.745982        47.5106 
 353   0.0000       1.750125        47.6233 
 354   0.0000       1.768796        48.1314 
 355   0.0000       1.781198        48.4689 
 356   0.0000       1.797236        48.9053 
 357   0.0000       1.803276        49.0696 
 358   0.0000       1.855828        50.4996 
 359   0.0000       1.856425        50.5159 
 360   0.0000       1.870313        50.8938 
 361   0.0000       1.871792        50.9340 
 362   0.0000       1.885638        51.3108 
 363   0.0000       1.913067        52.0572 
 364   0.0000       1.918740        52.2116 
 365   0.0000       1.929897        52.5152 
 366   0.0000       2.007878        54.6371 
 367   0.0000       2.042409        55.5768 
 368   0.0000       2.054966        55.9185 
 369   0.0000       2.087167        56.7947 
 370   0.0000       2.148203        58.4556 
 371   0.0000       2.179499        59.3072 
 372   0.0000       2.256319        61.3976 
 373   0.0000       2.342658        63.7470 
 374   0.0000       2.350524        63.9610 
 375   0.0000       2.412276        65.6414 
 376   0.0000       2.428356        66.0789 
 377   0.0000       2.456651        66.8489 
 378   0.0000       2.564184        69.7750 
 379   0.0000       2.590412        70.4887 
 380   0.0000       2.601175        70.7816 
 381   0.0000       2.614241        71.1371 
 382   0.0000       2.816747        76.6476 
 383   0.0000       3.249095        88.4124 
 384   0.0000       3.280602        89.2697 
 385   0.0000       3.287068        89.4457 
 386   0.0000       3.300539        89.8122 
 387   0.0000       3.306582        89.9767 
 388   0.0000       3.323203        90.4289 
 389   0.0000       3.331525        90.6554 
 390   0.0000       3.335007        90.7502 
 391   0.0000       3.376756        91.8862 
 392   0.0000       3.380264        91.9817 
 393   0.0000       3.445862        93.7667 
 394   0.0000       3.522226        95.8446 
 395   0.0000      23.665810       643.9794 
 396   0.0000      23.777858       647.0284 
 397   0.0000      24.163166       657.5132 
 398   0.0000      24.272954       660.5007 
 399   0.0000      24.276968       660.6099 
 400   0.0000      24.641582       670.5315 
 401   0.0000      24.895963       677.4536 
 402   0.0000      24.962250       679.2574 
 403   0.0000      25.036390       681.2748 
 404   0.0000      25.221095       686.3009 
 405   0.0000      25.353418       689.9016 
 406   0.0000      25.442823       692.3344 
 407   0.0000      25.820172       702.6026 
 408   0.0000      26.134057       711.1438 
 409   0.0000      26.386777       718.0207 
 410   0.0000      26.399844       718.3763 
 411   0.0000      26.454566       719.8653 
 412   0.0000      26.502733       721.1760 
 413   0.0000      26.552169       722.5213 
 414   0.0000      26.644312       725.0286 
 415   0.0000      27.015141       735.1194 
 416   0.0000      27.172639       739.4051 
 417   0.0000      27.501284       748.3480 
 418   0.0000      27.614986       751.4420 
 419   0.0000      27.702034       753.8107 
 420   0.0000      27.988321       761.6009 
 421   0.0000      28.381939       772.3118 
 422   0.0000      28.479576       774.9687 
 423   0.0000      28.800915       783.7128 
 424   0.0000      29.261784       796.2536 
 425   0.0000      44.351354      1206.8617 
 426   0.0000      44.406215      1208.3545 
 427   0.0000      44.422903      1208.8086 
 428   0.0000      44.505466      1211.0553 
 429   0.0000      44.513788      1211.2818 
 430   0.0000      44.541697      1212.0412 
 431   0.0000      44.599129      1213.6040 
 432   0.0000      44.642658      1214.7885 
 433   0.0000      44.663172      1215.3467 
 434   0.0000      44.665087      1215.3988 
 435   0.0000     205.240923      5584.8894 
 436   0.0000     205.259519      5585.3955 
 437   0.0000     205.267418      5585.6104 
 438   0.0000     205.304574      5586.6215 
 439   0.0000     205.305965      5586.6593 
 440   0.0000     205.314681      5586.8965 
 441   0.0000     205.335530      5587.4638 
 442   0.0000     205.356591      5588.0369 
 443   0.0000     205.368205      5588.3530 
 444   0.0000     205.369649      5588.3923 

                 SPIN DOWN ORBITALS
  NO   OCC          E(Eh)            E(eV) 
   0   1.0000    -235.046911     -6395.9516 
   1   1.0000     -27.138170      -738.4671 
   2   1.0000     -23.206107      -631.4703 
   3   1.0000     -23.205646      -631.4577 
   4   1.0000     -23.205220      -631.4461 
   5   1.0000      -4.120033      -112.1118 
   6   1.0000      -4.119168      -112.0883 
   7   1.0000      -4.113432      -111.9322 
   8   1.0000      -4.113123      -111.9238 
   9   1.0000      -4.110427      -111.8504 
  10   1.0000      -4.110301      -111.8470 
  11   1.0000      -4.110219      -111.8447 
  12   1.0000      -4.109932      -111.8369 
  13   1.0000      -4.109841      -111.8345 
  14   1.0000      -4.109817      -111.8338 
  15   1.0000      -3.035872       -82.6103 
  16   1.0000      -2.313412       -62.9511 
  17   1.0000      -2.312634       -62.9300 
  18   1.0000      -2.305470       -62.7350 
  19   1.0000      -2.304835       -62.7177 
  20   1.0000      -2.303896       -62.6922 
  21   1.0000      -2.303484       -62.6810 
  22   1.0000      -2.303122       -62.6711 
  23   1.0000      -2.302356       -62.6503 
  24   1.0000      -2.300240       -62.5927 
  25   1.0000      -2.299766       -62.5798 
  26   1.0000      -2.299725       -62.5787 
  27   1.0000      -2.298985       -62.5586 
  28   1.0000      -2.297862       -62.5280 
  29   1.0000      -2.297719       -62.5241 
  30   1.0000      -2.297512       -62.5185 
  31   1.0000      -2.296952       -62.5032 
  32   1.0000      -2.296453       -62.4897 
  33   1.0000      -2.296412       -62.4886 
  34   1.0000      -2.295971       -62.4765 
  35   1.0000      -2.295947       -62.4759 
  36   1.0000      -2.295865       -62.4737 
  37   1.0000      -2.294980       -62.4496 
  38   1.0000      -2.294755       -62.4435 
  39   1.0000      -2.294690       -62.4417 
  40   1.0000      -2.290714       -62.3335 
  41   1.0000      -2.289823       -62.3092 
  42   1.0000      -2.289794       -62.3085 
  43   1.0000      -2.288962       -62.2858 
  44   1.0000      -2.288836       -62.2824 
  45   1.0000      -2.288189       -62.2648 
  46   1.0000      -1.893911       -51.5360 
  47   1.0000      -1.893279       -51.5187 
  48   1.0000      -1.892601       -51.5003 
  49   1.0000      -0.411298       -11.1920 
  50   1.0000      -0.394025       -10.7220 
  51   1.0000      -0.379318       -10.3218 
  52   1.0000      -0.374877       -10.2009 
  53   1.0000      -0.371697       -10.1144 
  54   1.0000      -0.370247       -10.0749 
  55   1.0000      -0.361115        -9.8264 
  56   1.0000      -0.347347        -9.4518 
  57   1.0000      -0.342473        -9.3192 
  58   1.0000      -0.342443        -9.3183 
  59   1.0000      -0.341718        -9.2986 
  60   1.0000      -0.340916        -9.2768 
  61   1.0000      -0.335728        -9.1356 
  62   1.0000      -0.330654        -8.9975 
  63   1.0000      -0.325029        -8.8445 
  64   1.0000      -0.324316        -8.8251 
  65   1.0000      -0.322539        -8.7767 
  66   1.0000      -0.317332        -8.6350 
  67   1.0000      -0.315006        -8.5718 
  68   1.0000      -0.314728        -8.5642 
  69   1.0000      -0.314481        -8.5575 
  70   1.0000      -0.311442        -8.4748 
  71   1.0000      -0.305321        -8.3082 
  72   1.0000      -0.303649        -8.2627 
  73   1.0000      -0.300717        -8.1829 
  74   1.0000      -0.297612        -8.0984 
  75   1.0000      -0.294958        -8.0262 
  76   1.0000      -0.294062        -8.0018 
  77   1.0000      -0.293588        -7.9889 
  78   1.0000      -0.291786        -7.9399 
  79   1.0000      -0.287398        -7.8205 
  80   1.0000      -0.285992        -7.7822 
  81   1.0000      -0.280933        -7.6446 
  82   1.0000      -0.280340        -7.6284 
  83   1.0000      -0.277336        -7.5467 
  84   1.0000      -0.276983        -7.5371 
  85   1.0000      -0.275285        -7.4909 
  86   1.0000      -0.274523        -7.4702 
  87   1.0000      -0.273879        -7.4526 
  88   1.0000      -0.273753        -7.4492 
  89   1.0000      -0.270334        -7.3562 
  90   1.0000      -0.268423        -7.3042 
  91   1.0000      -0.268356        -7.3023 
  92   1.0000      -0.266622        -7.2552 
  93   1.0000      -0.262078        -7.1315 
  94   1.0000      -0.259473        -7.0606 
  95   1.0000      -0.258316        -7.0291 
  96   1.0000      -0.255385        -6.9494 
  97   1.0000      -0.251631        -6.8472 
  98   1.0000      -0.249557        -6.7908 
  99   1.0000      -0.246493        -6.7074 
 100   1.0000      -0.239679        -6.5220 
 101   1.0000      -0.238875        -6.5001 
 102   1.0000      -0.221360        -6.0235 
 103   1.0000      -0.220158        -5.9908 
 104   1.0000      -0.215931        -5.8758 
 105   0.0000      -0.168798        -4.5932 
 106   0.0000      -0.147132        -4.0037 
 107   0.0000      -0.131000        -3.5647 
 108   0.0000      -0.114265        -3.1093 
 109   0.0000      -0.114235        -3.1085 
 110   0.0000      -0.105147        -2.8612 
 111   0.0000      -0.103424        -2.8143 
 112   0.0000      -0.102956        -2.8016 
 113   0.0000      -0.097675        -2.6579 
 114   0.0000      -0.088471        -2.4074 
 115   0.0000      -0.064562        -1.7568 
 116   0.0000      -0.056009        -1.5241 
 117   0.0000      -0.043476        -1.1830 
 118   0.0000      -0.042194        -1.1482 
 119   0.0000      -0.030724        -0.8360 
 120   0.0000      -0.024668        -0.6712 
 121   0.0000      -0.002977        -0.0810 
 122   0.0000       0.004464         0.1215 
 123   0.0000       0.007410         0.2016 
 124   0.0000       0.008709         0.2370 
 125   0.0000       0.012188         0.3317 
 126   0.0000       0.035695         0.9713 
 127   0.0000       0.049382         1.3438 
 128   0.0000       0.060580         1.6485 
 129   0.0000       0.065909         1.7935 
 130   0.0000       0.070229         1.9110 
 131   0.0000       0.074399         2.0245 
 132   0.0000       0.075998         2.0680 
 133   0.0000       0.078088         2.1249 
 134   0.0000       0.080650         2.1946 
 135   0.0000       0.086967         2.3665 
 136   0.0000       0.088994         2.4217 
 137   0.0000       0.090427         2.4606 
 138   0.0000       0.103188         2.8079 
 139   0.0000       0.120955         3.2913 
 140   0.0000       0.121645         3.3101 
 141   0.0000       0.131287         3.5725 
 142   0.0000       0.134543         3.6611 
 143   0.0000       0.150177         4.0865 
 144   0.0000       0.151379         4.1192 
 145   0.0000       0.174792         4.7563 
 146   0.0000       0.177252         4.8233 
 147   0.0000       0.179767         4.8917 
 148   0.0000       0.185265         5.0413 
 149   0.0000       0.188065         5.1175 
 150   0.0000       0.197354         5.3703 
 151   0.0000       0.200217         5.4482 
 152   0.0000       0.202993         5.5237 
 153   0.0000       0.206942         5.6312 
 154   0.0000       0.220502         6.0002 
 155   0.0000       0.230971         6.2851 
 156   0.0000       0.233879         6.3642 
 157   0.0000       0.242153         6.5893 
 158   0.0000       0.255256         6.9459 
 159   0.0000       0.256084         6.9684 
 160   0.0000       0.265939         7.2366 
 161   0.0000       0.268389         7.3032 
 162   0.0000       0.269768         7.3408 
 163   0.0000       0.279075         7.5940 
 164   0.0000       0.289273         7.8715 
 165   0.0000       0.294210         8.0059 
 166   0.0000       0.298795         8.1306 
 167   0.0000       0.301809         8.2126 
 168   0.0000       0.304910         8.2970 
 169   0.0000       0.308649         8.3988 
 170   0.0000       0.309448         8.4205 
 171   0.0000       0.321123         8.7382 
 172   0.0000       0.328829         8.9479 
 173   0.0000       0.332955         9.0602 
 174   0.0000       0.333457         9.0738 
 175   0.0000       0.342461         9.3188 
 176   0.0000       0.344620         9.3776 
 177   0.0000       0.344983         9.3875 
 178   0.0000       0.345720         9.4075 
 179   0.0000       0.365964         9.9584 
 180   0.0000       0.372403        10.1336 
 181   0.0000       0.377036        10.2597 
 182   0.0000       0.377863        10.2822 
 183   0.0000       0.380798        10.3620 
 184   0.0000       0.395015        10.7489 
 185   0.0000       0.399515        10.8713 
 186   0.0000       0.401594        10.9279 
 187   0.0000       0.405702        11.0397 
 188   0.0000       0.407632        11.0922 
 189   0.0000       0.420637        11.4461 
 190   0.0000       0.425883        11.5889 
 191   0.0000       0.432448        11.7675 
 192   0.0000       0.438656        11.9364 
 193   0.0000       0.445746        12.1294 
 194   0.0000       0.454792        12.3755 
 195   0.0000       0.457390        12.4462 
 196   0.0000       0.467480        12.7208 
 197   0.0000       0.469193        12.7674 
 198   0.0000       0.480198        13.0669 
 199   0.0000       0.485164        13.2020 
 200   0.0000       0.490631        13.3507 
 201   0.0000       0.499261        13.5856 
 202   0.0000       0.503799        13.7091 
 203   0.0000       0.506631        13.7861 
 204   0.0000       0.508678        13.8418 
 205   0.0000       0.530405        14.4331 
 206   0.0000       0.532001        14.4765 
 207   0.0000       0.541466        14.7340 
 208   0.0000       0.547827        14.9071 
 209   0.0000       0.555065        15.1041 
 210   0.0000       0.573238        15.5986 
 211   0.0000       0.577667        15.7191 
 212   0.0000       0.591320        16.0906 
 213   0.0000       0.606001        16.4901 
 214   0.0000       0.609156        16.5760 
 215   0.0000       0.617764        16.8102 
 216   0.0000       0.643709        17.5162 
 217   0.0000       0.653247        17.7758 
 218   0.0000       0.665021        18.0961 
 219   0.0000       0.681589        18.5470 
 220   0.0000       0.698826        19.0160 
 221   0.0000       0.720157        19.5965 
 222   0.0000       0.752947        20.4887 
 223   0.0000       0.764569        20.8050 
 224   0.0000       0.764641        20.8069 
 225   0.0000       0.779429        21.2093 
 226   0.0000       0.800205        21.7747 
 227   0.0000       0.802338        21.8327 
 228   0.0000       0.807197        21.9649 
 229   0.0000       0.817958        22.2578 
 230   0.0000       0.831326        22.6215 
 231   0.0000       0.831629        22.6298 
 232   0.0000       0.840676        22.8760 
 233   0.0000       0.867791        23.6138 
 234   0.0000       0.882554        24.0155 
 235   0.0000       0.908442        24.7200 
 236   0.0000       0.932814        25.3832 
 237   0.0000       0.948736        25.8164 
 238   0.0000       0.960423        26.1344 
 239   0.0000       0.968423        26.3521 
 240   0.0000       0.974361        26.5137 
 241   0.0000       0.989088        26.9144 
 242   0.0000       0.993817        27.0431 
 243   0.0000       1.015111        27.6226 
 244   0.0000       1.019698        27.7474 
 245   0.0000       1.031749        28.0753 
 246   0.0000       1.064552        28.9679 
 247   0.0000       1.080422        29.3998 
 248   0.0000       1.153256        31.3817 
 249   0.0000       1.244458        33.8634 
 250   0.0000       1.259790        34.2806 
 251   0.0000       1.304950        35.5095 
 252   0.0000       1.312481        35.7144 
 253   0.0000       1.318790        35.8861 
 254   0.0000       1.329647        36.1815 
 255   0.0000       1.346335        36.6356 
 256   0.0000       1.383279        37.6409 
 257   0.0000       1.387570        37.7577 
 258   0.0000       1.388863        37.7929 
 259   0.0000       1.406972        38.2857 
 260   0.0000       1.410756        38.3886 
 261   0.0000       1.412178        38.4273 
 262   0.0000       1.415070        38.5060 
 263   0.0000       1.416115        38.5344 
 264   0.0000       1.419100        38.6157 
 265   0.0000       1.437530        39.1172 
 266   0.0000       1.438357        39.1397 
 267   0.0000       1.442011        39.2391 
 268   0.0000       1.450850        39.4796 
 269   0.0000       1.455006        39.5927 
 270   0.0000       1.469857        39.9968 
 271   0.0000       1.472430        40.0669 
 272   0.0000       1.476297        40.1721 
 273   0.0000       1.481584        40.3159 
 274   0.0000       1.491700        40.5912 
 275   0.0000       1.502061        40.8732 
 276   0.0000       1.510151        41.0933 
 277   0.0000       1.511880        41.1403 
 278   0.0000       1.515288        41.2331 
 279   0.0000       1.518433        41.3187 
 280   0.0000       1.523299        41.4511 
 281   0.0000       1.526085        41.5269 
 282   0.0000       1.527563        41.5671 
 283   0.0000       1.530113        41.6365 
 284   0.0000       1.531497        41.6742 
 285   0.0000       1.536542        41.8114 
 286   0.0000       1.538296        41.8592 
 287   0.0000       1.542049        41.9613 
 288   0.0000       1.544387        42.0249 
 289   0.0000       1.549077        42.1525 
 290   0.0000       1.549935        42.1759 
 291   0.0000       1.550193        42.1829 
 292   0.0000       1.550238        42.1841 
 293   0.0000       1.555969        42.3401 
 294   0.0000       1.558877        42.4192 
 295   0.0000       1.562093        42.5067 
 296   0.0000       1.563589        42.5474 
 297   0.0000       1.564253        42.5655 
 298   0.0000       1.564376        42.5688 
 299   0.0000       1.565224        42.5919 
 300   0.0000       1.565574        42.6014 
 301   0.0000       1.569490        42.7080 
 302   0.0000       1.570338        42.7311 
 303   0.0000       1.572663        42.7943 
 304   0.0000       1.574056        42.8323 
 305   0.0000       1.574769        42.8516 
 306   0.0000       1.575323        42.8667 
 307   0.0000       1.578081        42.9418 
 308   0.0000       1.581150        43.0253 
 309   0.0000       1.581696        43.0401 
 310   0.0000       1.584675        43.1212 
 311   0.0000       1.587934        43.2099 
 312   0.0000       1.589783        43.2602 
 313   0.0000       1.594954        43.4009 
 314   0.0000       1.600050        43.5396 
 315   0.0000       1.603123        43.6232 
 316   0.0000       1.604507        43.6608 
 317   0.0000       1.604669        43.6653 
 318   0.0000       1.609870        43.8068 
 319   0.0000       1.611156        43.8418 
 320   0.0000       1.612375        43.8750 
 321   0.0000       1.616077        43.9757 
 322   0.0000       1.619748        44.0756 
 323   0.0000       1.621490        44.1230 
 324   0.0000       1.621963        44.1359 
 325   0.0000       1.623717        44.1836 
 326   0.0000       1.624166        44.1958 
 327   0.0000       1.628417        44.3115 
 328   0.0000       1.634000        44.4634 
 329   0.0000       1.636080        44.5200 
 330   0.0000       1.637472        44.5579 
 331   0.0000       1.641996        44.6810 
 332   0.0000       1.643830        44.7309 
 333   0.0000       1.643981        44.7350 
 334   0.0000       1.651676        44.9444 
 335   0.0000       1.655255        45.0418 
 336   0.0000       1.661054        45.1996 
 337   0.0000       1.661996        45.2252 
 338   0.0000       1.662508        45.2391 
 339   0.0000       1.664600        45.2961 
 340   0.0000       1.668672        45.4069 
 341   0.0000       1.676128        45.6098 
 342   0.0000       1.677909        45.6582 
 343   0.0000       1.683288        45.8046 
 344   0.0000       1.688389        45.9434 
 345   0.0000       1.703872        46.3647 
 346   0.0000       1.710014        46.5318 
 347   0.0000       1.713850        46.6362 
 348   0.0000       1.716729        46.7146 
 349   0.0000       1.723151        46.8893 
 350   0.0000       1.726597        46.9831 
 351   0.0000       1.752196        47.6797 
 352   0.0000       1.752561        47.6896 
 353   0.0000       1.753616        47.7183 
 354   0.0000       1.774921        48.2981 
 355   0.0000       1.794617        48.8340 
 356   0.0000       1.804663        49.1074 
 357   0.0000       1.816353        49.4255 
 358   0.0000       1.857293        50.5395 
 359   0.0000       1.864198        50.7274 
 360   0.0000       1.875149        51.0254 
 361   0.0000       1.901647        51.7464 
 362   0.0000       1.922415        52.3116 
 363   0.0000       1.931532        52.5597 
 364   0.0000       1.947109        52.9835 
 365   0.0000       1.960066        53.3361 
 366   0.0000       2.020686        54.9856 
 367   0.0000       2.046851        55.6976 
 368   0.0000       2.057113        55.9769 
 369   0.0000       2.093622        56.9704 
 370   0.0000       2.174223        59.1636 
 371   0.0000       2.229126        60.6576 
 372   0.0000       2.270656        61.7877 
 373   0.0000       2.369171        64.4684 
 374   0.0000       2.393595        65.1330 
 375   0.0000       2.415269        65.7228 
 376   0.0000       2.432304        66.1864 
 377   0.0000       2.458909        66.9103 
 378   0.0000       2.567063        69.8533 
 379   0.0000       2.591839        70.5275 
 380   0.0000       2.604654        70.8762 
 381   0.0000       2.617541        71.2269 
 382   0.0000       2.959951        80.5444 
 383   0.0000       3.424983        93.1985 
 384   0.0000       3.470819        94.4458 
 385   0.0000       3.479964        94.6946 
 386   0.0000       3.503347        95.3309 
 387   0.0000       3.510910        95.5367 
 388   0.0000       3.516742        95.6954 
 389   0.0000       3.524205        95.8985 
 390   0.0000       3.527564        95.9899 
 391   0.0000       3.549550        96.5882 
 392   0.0000       3.557061        96.7926 
 393   0.0000       3.603879        98.0665 
 394   0.0000       3.676560       100.0443 
 395   0.0000      23.667028       644.0126 
 396   0.0000      23.779020       647.0600 
 397   0.0000      24.164992       657.5629 
 398   0.0000      24.274733       660.5491 
 399   0.0000      24.278925       660.6631 
 400   0.0000      24.643086       670.5725 
 401   0.0000      24.897477       677.4948 
 402   0.0000      24.964684       679.3236 
 403   0.0000      25.038142       681.3225 
 404   0.0000      25.222945       686.3512 
 405   0.0000      25.355772       689.9656 
 406   0.0000      25.444834       692.3891 
 407   0.0000      25.823143       702.6834 
 408   0.0000      26.134715       711.1618 
 409   0.0000      26.390084       718.1107 
 410   0.0000      26.401168       718.4123 
 411   0.0000      26.455610       719.8937 
 412   0.0000      26.504435       721.2223 
 413   0.0000      26.556330       722.6345 
 414   0.0000      26.645778       725.0685 
 415   0.0000      27.019460       735.2369 
 416   0.0000      27.175447       739.4815 
 417   0.0000      27.502314       748.3760 
 418   0.0000      27.615465       751.4550 
 419   0.0000      27.705511       753.9053 
 420   0.0000      27.990875       761.6704 
 421   0.0000      28.384370       772.3780 
 422   0.0000      28.483303       775.0701 
 423   0.0000      28.804210       783.8024 
 424   0.0000      29.265698       796.3601 
 425   0.0000      44.353232      1206.9128 
 426   0.0000      44.407958      1208.4020 
 427   0.0000      44.425416      1208.8770 
 428   0.0000      44.508082      1211.1265 
 429   0.0000      44.515459      1211.3272 
 430   0.0000      44.542174      1212.0542 
 431   0.0000      44.602032      1213.6830 
 432   0.0000      44.645484      1214.8654 
 433   0.0000      44.664750      1215.3896 
 434   0.0000      44.667738      1215.4709 
 435   0.0000     205.241208      5584.8972 
 436   0.0000     205.259795      5585.4030 
 437   0.0000     205.267792      5585.6206 
 438   0.0000     205.304955      5586.6318 
 439   0.0000     205.306225      5586.6664 
 440   0.0000     205.314795      5586.8996 
 441   0.0000     205.335937      5587.4749 
 442   0.0000     205.356961      5588.0470 
 443   0.0000     205.368481      5588.3605 
 444   0.0000     205.370032      5588.4027 

                    ********************************
                    * MULLIKEN POPULATION ANALYSIS *
                    ********************************

--------------------------------------------
MULLIKEN ATOMIC CHARGES AND SPIN POPULATIONS
--------------------------------------------
   0 Au:    0.322430    0.077237
   1 Au:   -0.009262    0.004915
   2 Au:    0.026218    0.032407
   3 Au:    0.122992    0.051789
   4 Au:    0.027433    0.033388
   5 Au:    0.026276    0.034067
   6 Au:    0.123356    0.052723
   7 Au:    0.027169    0.033582
   8 Au:   -0.003724    0.005697
   9 Au:    0.318312    0.078449
  10 Mn:   -0.981202    4.595747
Sum of atomic charges         :   -0.0000000
Sum of atomic spin populations:    5.0000000

-----------------------------------------------------
MULLIKEN REDUCED ORBITAL CHARGES AND SPIN POPULATIONS
-----------------------------------------------------
CHARGE
  0 Aus       :     2.916640  s :     2.916640
      pz      :     1.988576  p :     6.006829
      px      :     2.012434
      py      :     2.005818
      dz2     :     1.961498  d :     9.750705
      dxz     :     1.914760
      dyz     :     1.952488
      dx2y2   :     1.941623
      dxy     :     1.980336
      f0      :     0.000572  f :     0.003396
      f+1     :     0.000614
      f-1     :     0.000527
      f+2     :     0.000616
      f-2     :     0.000435
      f+3     :     0.000315
      f-3     :     0.000318
  1 Aus       :     2.994669  s :     2.994669
      pz      :     2.068709  p :     6.278534
      px      :     2.041833
      py      :     2.167992
      dz2     :     1.935188  d :     9.730317
      dxz     :     1.970022
      dyz     :     1.904602
      dx2y2   :     1.966540
      dxy     :     1.953965
      f0      :     0.000719  f :     0.005742
      f+1     :     0.000286
      f-1     :     0.001155
      f+2     :     0.001155
      f-2     :     0.000938
      f+3     :     0.000786
      f-3     :     0.000705
  2 Aus       :     3.059314  s :     3.059314
[...]
      f-1     :    -0.000001
      f+2     :     0.000015
      f-2     :     0.000033
      f+3     :     0.000017
      f-3     :     0.000026
  8 Aus       :    -0.169165  s :    -0.169165
      pz      :     0.000555  p :     0.001950
      px      :     0.000457
      py      :     0.000937
      dz2     :     0.010774  d :     0.020649
      dxz     :     0.008295
      dyz     :     0.001947
      dx2y2   :    -0.000372
      dxy     :     0.000005
      f0      :     0.000056  f :     0.000051
      f+1     :     0.000028
      f-1     :    -0.000019
      f+2     :     0.000009
      f-2     :    -0.000003
      f+3     :    -0.000012
      f-3     :    -0.000008
  9 Aus       :    -0.180086  s :    -0.180086
      pz      :     0.001933  p :    -0.000670
      px      :     0.000348
      py      :    -0.002951
      dz2     :    -0.004311  d :    -0.015360
      dxz     :     0.002119
      dyz     :    -0.001069
      dx2y2   :    -0.012081
      dxy     :    -0.000017
      f0      :     0.000000  f :     0.000002
      f+1     :     0.000001
      f-1     :    -0.000000
      f+2     :    -0.000003
      f-2     :     0.000004
      f+3     :     0.000001
      f-3     :    -0.000001
 10 Mns       :     0.063138  s :     0.063138
      pz      :     0.006177  p :     0.062039
      px      :     0.027495
      py      :     0.028367
      dz2     :     0.788976  d :     4.272535
      dxz     :     0.927205
      dyz     :     0.769318
      dx2y2   :     0.897178
      dxy     :     0.889858
      f0      :     0.000010  f :     0.000047
      f+1     :     0.000005
      f-1     :     0.000009
      f+2     :     0.000006
      f-2     :     0.000010
      f+3     :     0.000005
      f-3     :     0.000002


                     *******************************
                     * LOEWDIN POPULATION ANALYSIS *
                     *******************************

-------------------------------------------
LOEWDIN ATOMIC CHARGES AND SPIN POPULATIONS
-------------------------------------------
   0 Au:    0.070597   -0.148588
   1 Au:   -0.055884   -0.116522
   2 Au:   -0.013234   -0.027219
   3 Au:    0.080116   -0.323504
   4 Au:   -0.013639   -0.022970
   5 Au:   -0.013398   -0.028331
   6 Au:    0.080931   -0.313903
   7 Au:   -0.014363   -0.024197
   8 Au:   -0.052804   -0.121527
   9 Au:    0.070120   -0.145944
  10 Mn:   -0.138440    4.272705

----------------------------------------------------
LOEWDIN REDUCED ORBITAL CHARGES AND SPIN POPULATIONS
----------------------------------------------------
CHARGE
  0 Aus       :     2.803499  s :     2.803499
      pz      :     2.102160  p :     6.247174
      px      :     2.058511
      py      :     2.086503
      dz2     :     1.987002  d :     9.874601
      dxz     :     1.954177
      dyz     :     1.979677
      dx2y2   :     1.967920
      dxy     :     1.985825
      f0      :     0.000705  f :     0.004129
      f+1     :     0.000794
      f-1     :     0.000571
      f+2     :     0.000806
      f-2     :     0.000485
      f+3     :     0.000377
      f-3     :     0.000391
  1 Aus       :     2.646328  s :     2.646328
      pz      :     2.171243  p :     6.522088
      px      :     2.080942
      py      :     2.269903
      dz2     :     1.956664  d :     9.880313
      dxz     :     1.978722
      dyz     :     1.979769
      dx2y2   :     1.987328
      dxy     :     1.977829
      f0      :     0.000964  f :     0.007155
      f+1     :     0.000322
      f-1     :     0.001396
      f+2     :     0.001539
      f-2     :     0.001151
      f+3     :     0.000942
      f-3     :     0.000841
  2 Aus       :     2.641390  s :     2.641390
      pz      :     2.289859  p :     6.508582
      px      :     2.132858
      py      :     2.085865
      dz2     :     1.955736  d :     9.857674
      dxz     :     1.977906
      dyz     :     1.964242
      dx2y2   :     1.986955
      dxy     :     1.972835
      f0      :     0.001609  f :     0.005587
      f+1     :     0.001371
      f-1     :     0.000852
      f+2     :     0.000376
      f-2     :     0.000563
      f+3     :     0.000517
      f-3     :     0.000299
  3 Aus       :     2.746444  s :     2.746444
      pz      :     2.198683  p :     6.330663
      px      :     2.030379
      py      :     2.101601
      dz2     :     1.975853  d :     9.838340
      dxz     :     1.983606
      dyz     :     1.928596
      dx2y2   :     1.974470
      dxy     :     1.975815
      f0      :     0.000843  f :     0.004437
      f+1     :     0.000376
      f-1     :     0.001073
      f+2     :     0.000829
      f-2     :     0.000530
      f+3     :     0.000359
      f-3     :     0.000427
  4 Aus       :     2.643713  s :     2.643713
      pz      :     2.244826  p :     6.507130
      px      :     2.163607
      py      :     2.098698
      dz2     :     1.970351  d :     9.857211
      dxz     :     1.975995
      dyz     :     1.953689
      dx2y2   :     1.976600
      dxy     :     1.980576
      f0      :     0.001404  f :     0.005584
      f+1     :     0.001307
      f-1     :     0.000850
      f+2     :     0.000607
      f-2     :     0.000539
      f+3     :     0.000591
      f-3     :     0.000286
  5 Aus       :     2.640174  s :     2.640174
      pz      :     2.290304  p :     6.510597
      px      :     2.126923
      py      :     2.093370
      dz2     :     1.954161  d :     9.857009
      dxz     :     1.989386
      dyz     :     1.967647
      dx2y2   :     1.978060
      dxy     :     1.967754
      f0      :     0.001435  f :     0.005618
      f+1     :     0.001301
      f-1     :     0.001062
      f+2     :     0.000471
      f-2     :     0.000565
      f+3     :     0.000493
      f-3     :     0.000292
  6 Aus       :     2.745603  s :     2.745603
      pz      :     2.159232  p :     6.333555
      px      :     2.026158
      py      :     2.148164
      dz2     :     1.974492  d :     9.835406
      dxz     :     1.981080
      dyz     :     1.928122
      dx2y2   :     1.974771
      dxy     :     1.976941
      f0      :     0.000866  f :     0.004505
      f+1     :     0.000312
      f-1     :     0.000915
      f+2     :     0.000850
      f-2     :     0.000367
      f+3     :     0.000511
      f-3     :     0.000684
  7 Aus       :     2.642901  s :     2.642901
      pz      :     2.243943  p :     6.509148
      px      :     2.170941
      py      :     2.094264
      dz2     :     1.965103  d :     9.856712
      dxz     :     1.985091
      dyz     :     1.967793
      dx2y2   :     1.980892
      dxy     :     1.957833
      f0      :     0.001324  f :     0.005603
      f+1     :     0.001213
      f-1     :     0.000924
      f+2     :     0.000464
      f-2     :     0.000805
      f+3     :     0.000484
      f-3     :     0.000390
  8 Aus       :     2.643892  s :     2.643892
      pz      :     2.127771  p :     6.519867
      px      :     2.076126
      py      :     2.315970
      dz2     :     1.957566  d :     9.881941
      dxz     :     1.980758
      dyz     :     1.982652
      dx2y2   :     1.984297
      dxy     :     1.976669
      f0      :     0.000899  f :     0.007103
      f+1     :     0.000322
      f-1     :     0.001301
      f+2     :     0.001331
      f-2     :     0.000747
      f+3     :     0.000975
      f-3     :     0.001528
  9 Aus       :     2.804901  s :     2.804901
      pz      :     2.089882  p :     6.246220
      px      :     2.057038
      py      :     2.099300
      dz2     :     1.985427  d :     9.874651
      dxz     :     1.958983
      dyz     :     1.985056
      dx2y2   :     1.965131
      dxy     :     1.980054
      f0      :     0.000563  f :     0.004109
      f+1     :     0.000650
      f-1     :     0.000661
      f+2     :     0.000622
      f-2     :     0.000464
      f+3     :     0.000510
      f-3     :     0.000640
 10 Mns       :     6.344835  s :     6.344835
      pz      :     4.205847  p :    12.596434
      px      :     4.156419
      py      :     4.234169
      dz2     :     1.344778  d :     6.196425
      dxz     :     1.140117
      dyz     :     1.276641
      dx2y2   :     1.187228
      dxy     :     1.247662
      f0      :     0.000163  f :     0.000746
      f+1     :     0.000057
      f-1     :     0.000118
      f+2     :     0.000104
      f-2     :     0.000131
      f+3     :     0.000093
      f-3     :     0.000079

SPIN
  0 Aus       :    -0.103622  s :    -0.103622
      pz      :    -0.003412  p :    -0.028335
      px      :     0.002088
      py      :    -0.027012
      dz2     :    -0.001024  d :    -0.016581
      dxz     :     0.002611
      dyz     :    -0.009018
      dx2y2   :    -0.008443
      dxy     :    -0.000706
      f0      :    -0.000013  f :    -0.000050
      f+1     :     0.000008
      f-1     :     0.000004
      f+2     :    -0.000029
      f-2     :    -0.000004
      f+3     :    -0.000007
      f-3     :    -0.000009
  1 Aus       :    -0.081787  s :    -0.081787
      pz      :     0.006221  p :    -0.045598
      px      :     0.001864
      py      :    -0.053683
      dz2     :     0.012216  d :     0.010782
      dxz     :     0.009036
      dyz     :    -0.005358
      dx2y2   :    -0.005144
      dxy     :     0.000032
      f0      :     0.000086  f :     0.000081
      f+1     :     0.000043
      f-1     :     0.000011
      f+2     :    -0.000021
      f-2     :    -0.000001
      f+3     :    -0.000012
      f-3     :    -0.000023
  2 Aus       :    -0.010202  s :    -0.010202
      pz      :    -0.007440  p :    -0.020263
      px      :     0.002957
      py      :    -0.015780
      dz2     :    -0.003766  d :     0.003019
      dxz     :     0.001844
      dyz     :     0.001570
      dx2y2   :     0.004877
      dxy     :    -0.001505
      f0      :     0.000060  f :     0.000226
      f+1     :     0.000004
      f-1     :    -0.000005
      f+2     :     0.000036
      f-2     :     0.000086
      f+3     :     0.000005
      f-3     :     0.000041
  3 Aus       :    -0.166430  s :    -0.166430
      pz      :    -0.096203  p :    -0.131154
      px      :    -0.001019
      py      :    -0.033932
      dz2     :    -0.005908  d :    -0.025968
      dxz     :     0.001875
      dyz     :    -0.030999
      dx2y2   :     0.001337
      dxy     :     0.007726
      f0      :     0.000022  f :     0.000049
      f+1     :    -0.000034
      f-1     :    -0.000051
      f+2     :     0.000007
      f-2     :     0.000007
      f+3     :     0.000050
      f-3     :     0.000048
  4 Aus       :    -0.006333  s :    -0.006333
      pz      :    -0.007197  p :    -0.020908
      px      :     0.000692
      py      :    -0.014403
      dz2     :     0.002406  d :     0.004042
      dxz     :    -0.002223
      dyz     :     0.010669
      dx2y2   :    -0.007906
      dxy     :     0.001095
      f0      :     0.000042  f :     0.000228
      f+1     :     0.000013
      f-1     :     0.000038
      f+2     :     0.000048
      f-2     :     0.000077
      f+3     :    -0.000003
      f-3     :     0.000013
  5 Aus       :    -0.011424  s :    -0.011424
      pz      :    -0.001531  p :    -0.019890
      px      :     0.002162
      py      :    -0.020521
      dz2     :     0.005683  d :     0.002751
      dxz     :    -0.003249
      dyz     :    -0.007659
      dx2y2   :     0.003832
      dxy     :     0.004143
      f0      :     0.000069  f :     0.000233
      f+1     :     0.000012
      f-1     :     0.000006
      f+2     :     0.000011
      f-2     :     0.000030
      f+3     :     0.000064
      f-3     :     0.000042
  6 Aus       :    -0.163908  s :    -0.163908
      pz      :    -0.065160  p :    -0.131694
      px      :     0.002919
      py      :    -0.069453
      dz2     :    -0.023599  d :    -0.018383
      dxz     :     0.003521
      dyz     :     0.002082
      dx2y2   :    -0.007998
      dxy     :     0.007610
      f0      :     0.000024  f :     0.000082
      f+1     :    -0.000007
      f-1     :     0.000018
      f+2     :    -0.000016
      f-2     :     0.000075
      f+3     :     0.000021
      f-3     :    -0.000033
  7 Aus       :    -0.007411  s :    -0.007411
      pz      :    -0.001551  p :    -0.020537
      px      :     0.003158
      py      :    -0.022143
      dz2     :     0.006141  d :     0.003519
      dxz     :     0.004030
      dyz     :    -0.004548
      dx2y2   :     0.006494
      dxy     :    -0.008598
      f0      :     0.000070  f :     0.000231
      f+1     :     0.000018
      f-1     :    -0.000007
      f+2     :     0.000018
      f-2     :     0.000062
      f+3     :     0.000034
      f-3     :     0.000035
  8 Aus       :    -0.085109  s :    -0.085109
      pz      :     0.008733  p :    -0.046240
      px      :     0.002670
      py      :    -0.057644
      dz2     :     0.011041  d :     0.009750
      dxz     :     0.010249
      dyz     :    -0.000549
      dx2y2   :    -0.010702
      dxy     :    -0.000291
      f0      :     0.000114  f :     0.000073
      f+1     :     0.000044
      f-1     :    -0.000036
      f+2     :     0.000003
      f-2     :    -0.000008
      f+3     :    -0.000016
      f-3     :    -0.000028
  9 Aus       :    -0.101608  s :    -0.101608
      pz      :     0.000664  p :    -0.028257
      px      :     0.002735
      py      :    -0.031657
      dz2     :    -0.004510  d :    -0.016033
      dxz     :     0.002620
      dyz     :    -0.001118
      dx2y2   :    -0.013646
      dxy     :     0.000622
      f0      :    -0.000001  f :    -0.000046
      f+1     :     0.000003
      f-1     :    -0.000017
      f+2     :    -0.000005
      f-2     :     0.000007
      f+3     :    -0.000004
      f-3     :    -0.000028
 10 Mns       :     0.032382  s :     0.032382
      pz      :     0.000306  p :     0.035454
      px      :     0.019609
      py      :     0.015540
      dz2     :     0.787294  d :     4.204845
      dxz     :     0.918247
      dyz     :     0.732539
      dx2y2   :     0.885815
      dxy     :     0.880949
      f0      :     0.000007  f :     0.000024
      f+1     :     0.000003
      f-1     :     0.000005
      f+2     :     0.000001
      f-2     :     0.000007
      f+3     :     0.000003
      f-3     :    -0.000001


                      *****************************
                      * MAYER POPULATION ANALYSIS *
                      *****************************

  NA   - Mulliken gross atomic population
  ZA   - Total nuclear charge
  QA   - Mulliken gross atomic charge
  VA   - Mayer's total valence
  BVA  - Mayer's bonded valence
  FA   - Mayer's free valence

  ATOM       NA         ZA         QA         VA         BVA        FA
  0 Au    18.6916    19.0000     0.3084     1.3535     1.3130     0.0405
  1 Au    19.1028    19.0000    -0.1028     1.8700     1.8157     0.0543
  2 Au    18.9438    19.0000     0.0562     1.8444     1.8409     0.0036
  3 Au    18.7730    19.0000     0.2270     1.4938     1.3992     0.0946
  4 Au    18.9456    19.0000     0.0544     1.8402     1.8373     0.0029
  5 Au    18.9440    19.0000     0.0560     1.8529     1.8489     0.0039
  6 Au    18.7753    19.0000     0.2247     1.4912     1.3991     0.0920
  7 Au    18.9463    19.0000     0.0537     1.8476     1.8444     0.0032
  8 Au    19.0928    19.0000    -0.0928     1.8592     1.8028     0.0564
  9 Au    18.6965    19.0000     0.3035     1.3547     1.3157     0.0390
 10 Mn    26.0883    25.0000    -1.0883     7.9561     3.9920     3.9642

  Mayer bond orders larger than 0.100000
B(  0-Au,  1-Au) :   0.4486 B(  0-Au,  2-Au) :   0.2645 B(  0-Au,  4-Au) :   0.2631 
B(  0-Au,  9-Au) :   0.1045 B(  1-Au,  2-Au) :   0.1334 B(  1-Au,  3-Au) :   0.3912 
B(  1-Au,  4-Au) :   0.1319 B(  1-Au, 10-Mn) :   0.5017 B(  2-Au,  4-Au) :   0.1347 
B(  2-Au,  7-Au) :   0.6281 B(  2-Au, 10-Mn) :   0.4852 B(  3-Au,  6-Au) :   0.3107 
B(  3-Au, 10-Mn) :   0.4786 B(  4-Au,  5-Au) :   0.6282 B(  4-Au, 10-Mn) :   0.4865 
B(  5-Au,  7-Au) :   0.1359 B(  5-Au,  8-Au) :   0.1365 B(  5-Au,  9-Au) :   0.2659 
B(  5-Au, 10-Mn) :   0.4872 B(  6-Au,  8-Au) :   0.3772 B(  6-Au, 10-Mn) :   0.4979 
B(  7-Au,  8-Au) :   0.1349 B(  7-Au,  9-Au) :   0.2649 B(  7-Au, 10-Mn) :   0.4877 
B(  8-Au,  9-Au) :   0.4480 B(  8-Au, 10-Mn) :   0.4973 

-------
TIMINGS
-------

Total SCF time: 0 days 0 hours 1 min 46 sec 

Total time                  ....     106.927 sec
Sum of individual times     ....     105.257 sec  ( 98.4%)

Fock matrix formation       ....      98.589 sec  ( 92.2%)
  Split-RI-J                ....      17.676 sec  ( 17.9% of F)
  XC integration            ....      80.352 sec  ( 81.5% of F)
    Basis function eval.    ....       5.037 sec  (  6.3% of XC)
    Density eval.           ....      38.140 sec  ( 47.5% of XC)
    XC-Functional eval.     ....       3.393 sec  (  4.2% of XC)
    XC-Potential eval.      ....      28.181 sec  ( 35.1% of XC)
Diagonalization             ....       3.997 sec  (  3.7%)
Density matrix formation    ....       0.183 sec  (  0.2%)
Population analysis         ....       0.128 sec  (  0.1%)
Initial guess               ....       0.297 sec  (  0.3%)
Orbital Transformation      ....       0.000 sec  (  0.0%)
Orbital Orthonormalization  ....       0.261 sec  (  0.2%)
DIIS solution               ....       0.000 sec  (  0.0%)
Grid generation             ....       2.063 sec  (  1.9%)

Maximum memory used throughout the entire SCF-calculation: 63.2 MB

-------------------------   --------------------
FINAL SINGLE POINT ENERGY     -2509.416642042237
-------------------------   --------------------


                            ***************************************
                            *     ORCA property calculations      *
                            ***************************************

                                    ---------------------
                                    Active property flags
                                    ---------------------
   (+) Dipole Moment


------------------------------------------------------------------------------
                       ORCA ELECTRIC PROPERTIES CALCULATION
------------------------------------------------------------------------------

Dipole Moment Calculation                       ... on
Quadrupole Moment Calculation                   ... off
Polarizability Calculation                      ... off
GBWName                                         ... scan_job2.gbw
Electron density                                ... scan_job2.scfp
The origin for moment calculation is the CENTER OF MASS  = (14.431286, 12.631177 14.801373)

-------------
DIPOLE MOMENT
-------------
                                X             Y             Z
Electronic contribution:      3.84030      25.82804       3.91113
Nuclear contribution   :     -3.88097     -26.08742      -3.95397
                        -----------------------------------------
Total Dipole Moment    :     -0.04067      -0.25938      -0.04284
                        -----------------------------------------
Magnitude (a.u.)       :      0.26602
Magnitude (Debye)      :      0.67617



--------------------
Rotational spectrum 
--------------------
 
Rotational constants in cm-1:     0.002128     0.001389     0.001016 
Rotational constants in MHz :    63.790126    41.641656    30.472454 

 Dipole components along the rotational axes: 
x,y,z [a.u.] :    -0.002544    -0.266004     0.001394 
x,y,z [Debye]:    -0.006467    -0.676128     0.003544 

 

Timings for individual modules:

Sum of individual times         ...      117.983 sec (=   1.966 min)
GTO integral calculation        ...       10.784 sec (=   0.180 min)   9.1 %
SCF iterations                  ...      107.199 sec (=   1.787 min)  90.9 %



                             ****ORCA TERMINATED NORMALLY****
TOTAL RUN TIME: 0 days 0 hours 3 minutes 56 seconds 381 msec
