
                                 *****************
                                 * O   R   C   A *
                                 *****************

                                            #,                                       
                                            ###                                      
                                            ####                                     
                                            #####                                    
                                            ######                                   
                                           ########,                                 
                                     ,,################,,,,,                         
                               ,,#################################,,                 
                          ,,##########################################,,             
                       ,#########################################, ''#####,          
                    ,#############################################,,   '####,        
                  ,##################################################,,,,####,       
                ,###########''''           ''''###############################       
              ,#####''   ,,,,##########,,,,          '''####'''          '####       
            ,##' ,,,,###########################,,,                        '##       
           ' ,,###''''                  '''############,,,                           
         ,,##''                                '''############,,,,        ,,,,,,###''
      ,#''                                            '''#######################'''  
     '                                                          ''''####''''         
             ,#######,   #######,   ,#######,      ##                                
            ,#'     '#,  ##    ##  ,#'     '#,    #''#        ######   ,####,        
            ##       ##  ##   ,#'  ##            #'  '#       #        #'  '#        
            ##       ##  #######   ##           ,######,      #####,   #    #        
            '#,     ,#'  ##    ##  '#,     ,#' ,#      #,         ##   #,  ,#        
             '#######'   ##     ##  '#######'  #'      '#     #####' # '####'        



                  #######################################################
                  #                        -***-                        #
                  #          Department of theory and spectroscopy      #
                  #    Directorship and core code : Frank Neese         #
                  #        Max Planck Institute fuer Kohlenforschung    #
                  #                Kaiser Wilhelm Platz 1               #
                  #                 D-45470 Muelheim/Ruhr               #
                  #                      Germany                        #
                  #                                                     #
                  #                  All rights reserved                #
                  #                        -***-                        #
                  #######################################################


                         Program Version 5.0.3 -  RELEASE  -


 With contributions from (in alphabetic order):
   Daniel Aravena         : Magnetic Suceptibility
   Michael Atanasov       : Ab Initio Ligand Field Theory (pilot matlab implementation)
   Alexander A. Auer      : GIAO ZORA, VPT2 properties, NMR spectrum
   Ute Becker             : Parallelization
   Giovanni Bistoni       : ED, misc. LED, open-shell LED, HFLD
   Martin Brehm           : Molecular dynamics
   Dmytro Bykov           : SCF Hessian
   Vijay G. Chilkuri      : MRCI spin determinant printing, contributions to CSF-ICE
   Dipayan Datta          : RHF DLPNO-CCSD density
   Achintya Kumar Dutta   : EOM-CC, STEOM-CC
   Dmitry Ganyushin       : Spin-Orbit,Spin-Spin,Magnetic field MRCI
   Miquel Garcia          : C-PCM and meta-GGA Hessian, CC/C-PCM, Gaussian charge scheme
   Yang Guo               : DLPNO-NEVPT2, F12-NEVPT2, CIM, IAO-localization
   Andreas Hansen         : Spin unrestricted coupled pair/coupled cluster methods
   Benjamin Helmich-Paris : MC-RPA, TRAH-SCF, COSX integrals
   Lee Huntington         : MR-EOM, pCC
   Robert Izsak           : Overlap fitted RIJCOSX, COSX-SCS-MP3, EOM
   Marcus Kettner         : VPT2
   Christian Kollmar      : KDIIS, OOCD, Brueckner-CCSD(T), CCSD density, CASPT2, CASPT2-K
   Simone Kossmann        : Meta GGA functionals, TD-DFT gradient, OOMP2, MP2 Hessian
   Martin Krupicka        : Initial AUTO-CI
   Lucas Lang             : DCDCAS
   Marvin Lechner         : AUTO-CI (C++ implementation), FIC-MRCC
   Dagmar Lenk            : GEPOL surface, SMD
   Dimitrios Liakos       : Extrapolation schemes; Compound Job, initial MDCI parallelization
   Dimitrios Manganas     : Further ROCIS development; embedding schemes
   Dimitrios Pantazis     : SARC Basis sets
   Anastasios Papadopoulos: AUTO-CI, single reference methods and gradients
   Taras Petrenko         : DFT Hessian,TD-DFT gradient, ASA, ECA, R-Raman, ABS, FL, XAS/XES, NRVS
   Peter Pinski           : DLPNO-MP2, DLPNO-MP2 Gradient
   Christoph Reimann      : Effective Core Potentials
   Marius Retegan         : Local ZFS, SOC
   Christoph Riplinger    : Optimizer, TS searches, QM/MM, DLPNO-CCSD(T), (RO)-DLPNO pert. Triples
   Tobias Risthaus        : Range-separated hybrids, TD-DFT gradient, RPA, STAB
   Michael Roemelt        : Original ROCIS implementation
   Masaaki Saitow         : Open-shell DLPNO-CCSD energy and density
   Barbara Sandhoefer     : DKH picture change effects
   Avijit Sen             : IP-ROCIS
   Kantharuban Sivalingam : CASSCF convergence, NEVPT2, FIC-MRCI
   Bernardo de Souza      : ESD, SOC TD-DFT
   Georgi Stoychev        : AutoAux, RI-MP2 NMR, DLPNO-MP2 response
   Willem Van den Heuvel  : Paramagnetic NMR
   Boris Wezisla          : Elementary symmetry handling
   Frank Wennmohs         : Technical directorship


 We gratefully acknowledge several colleagues who have allowed us to
 interface, adapt or use parts of their codes:
   Stefan Grimme, W. Hujo, H. Kruse, P. Pracht,  : VdW corrections, initial TS optimization,
                  C. Bannwarth, S. Ehlert          DFT functionals, gCP, sTDA/sTD-DF
   Ed Valeev, F. Pavosevic, A. Kumar             : LibInt (2-el integral package), F12 methods
   Garnet Chan, S. Sharma, J. Yang, R. Olivares  : DMRG
   Ulf Ekstrom                                   : XCFun DFT Library
   Mihaly Kallay                                 : mrcc  (arbitrary order and MRCC methods)
   Jiri Pittner, Ondrej Demel                    : Mk-CCSD
   Frank Weinhold                                : gennbo (NPA and NBO analysis)
   Christopher J. Cramer and Donald G. Truhlar   : smd solvation model
   Lars Goerigk                                  : TD-DFT with DH, B97 family of functionals
   V. Asgeirsson, H. Jonsson                     : NEB implementation
   FAccTs GmbH                                   : IRC, NEB, NEB-TS, DLPNO-Multilevel, CI-OPT
                                                   MM, QMMM, 2- and 3-layer-ONIOM, Crystal-QMMM,
                                                   LR-CPCM, SF, NACMEs, symmetry and pop. for TD-DFT,
                                                   nearIR, NL-DFT gradient (VV10), updates on ESD,
                                                   ML-optimized integration grids
   S Lehtola, MJT Oliveira, MAL Marques          : LibXC Library
   Liviu Ungur et al                             : ANISO software


 Your calculation uses the libint2 library for the computation of 2-el integrals
 For citations please refer to: http://libint.valeyev.net

 Your ORCA version has been built with support for libXC version: 5.1.0
 For citations please refer to: https://tddft.org/programs/libxc/

 This ORCA versions uses:
   CBLAS   interface :  Fast vector & matrix operations
   LAPACKE interface :  Fast linear algebra routines
   SCALAPACK package :  Parallel linear algebra routines
   Shared memory     :  Shared parallel matrices
   BLAS/LAPACK       :  OpenBLAS 0.3.15  USE64BITINT DYNAMIC_ARCH NO_AFFINITY Sandybridge SINGLE_THREADED
        Core in use  :  Sandybridge
   Copyright (c) 2011-2014, The OpenBLAS Project




***************************************
The coordinates will be read from file: pbe.xyz
***************************************


================================================================================

cite the ECPs for Au [Def2-ECP] as follows:
Ce-Yb(ecp-28): M. Dolg, H. Stoll, H.Preuss, J. Chem. Phys., 1989, 90, 1730-1734.
Y-Cd(ecp-28), Hf-Hg(ecp-46): D. Andrae,U. Haeussermann, M. Dolg, H. Stoll, H. Preuss, Theor. Chim. Acta, 1990, 77, 123-141.
In-Sb(ecp-28), Tl-Bi(ecp-46): B. Metz, H. Stoll, M. Dolg, J. Chem. Phys., 2000, 113, 2563-2569.
Te-Xe(ecp-28), Po-Rn(ecp-46): K. A. Peterson, D. Figgen, E. Goll, H. Stoll, M. Dolg, J. Chem. Phys., 2003, 119, 11113-11123.
Rb(ecp-28), Cs(ecp-46): T. Leininger, A. Nicklass, W. Kuechle, H. Stoll, M. Dolg, A. Bergner, Chem. Phys. Lett., 1996, 255, 274-280.
Sr(ecp-28), Ba(ecp-46): M. Kaupp, P. V. Schleyer, H. Stoll and H. Preuss, J. Chem. Phys., 1991, 94, 1360-1366.
La(ecp-46): M. Dolg, H. Stoll, A. Savin, H. Preuss, Theor. Chim. Acta, 1989, 75, 173-194.
Lu(ecp-28): X. Cao, M. Dolg, J. Chem. Phys., 2001, 115, 7348-7355.

ECP parameters for Au [Def2-ECP] have been obtained from:
TURBOMOLE (7.0.2)

----- Orbital basis set information -----
Your calculation utilizes the basis: def2-TZVP
   F. Weigend and R. Ahlrichs, Phys. Chem. Chem. Phys. 7, 3297 (2005).

----- AuxJ basis set information -----
Your calculation utilizes the auxiliary basis: def2/J
   F. Weigend, Phys. Chem. Chem. Phys. 8, 1057 (2006).

----- AuxC basis set information -----
Your calculation utilizes the auxiliary basis: def2-TZVP/C
  H-La, Hf-Rn : A. Hellweg, C. Hattig, S. Hofener and W. Klopper, Theor. Chem. Acc. 117, 587 (2007).
        Ce-Lu : J. Chmela and M. E. Harding, Mol. Phys. (2018).

================================================================================
                                        WARNINGS
                       Please study these warnings very carefully!
================================================================================


INFO   : the flag for use of the SHARK integral package has been found!

================================================================================
                                       INPUT FILE
================================================================================
NAME = casscf.inp
|  1> !CASSCF def2-TZVP def2-TZVP/C
|  2> !MOREAD RIJCOSX
|  3> %maxcore 6000
|  4> %moinp "pbe.qro"
|  5> %pal nprocs 6 end 
|  6> 
|  7> %casscf
|  8>  mult 6,4
|  9>  bweight 1,1
| 10>  nroots 1,24
| 11>  nel 5
| 12>  norb 5
| 13> end
| 14> 
| 15> 
| 16> *xyzfile 0 6 pbe.xyz
| 17> 
| 18> 
| 19>                          ****END OF INPUT****
================================================================================

                       ****************************
                       * Single Point Calculation *
                       ****************************

---------------------------------
CARTESIAN COORDINATES (ANGSTROEM)
---------------------------------
  Au     7.553850    8.069317   10.553548
  Au     5.994455    9.970893    9.090443
  Au     8.821568    9.924720    9.137025
  Au     6.281978    5.805841   11.444159
  Au     4.836749    7.463285    9.802049
  Au     9.097764    7.371364    8.102407
  Au     7.729776    5.470403    6.518810
  Au     4.451216    8.749633    5.077740
  Au     3.802784    8.787044    7.744193
  Au     6.479374    7.008604    4.527386
  Au     5.139796    6.485235    6.980795
  Au     7.551486   11.625891    7.362685
  Au     4.978902   11.035154    6.644026
  Au     7.096526    9.556746    5.502119
  Au     9.087445    7.598898    5.283834
  Au     9.668351    9.955571    6.530355
  Mn     6.932899    6.025766    8.905481

----------------------------
CARTESIAN COORDINATES (A.U.)
----------------------------
  NO LB      ZA    FRAG     MASS         X           Y           Z
   0 Au   19.0000*   0   196.966   14.274708   15.248800   19.943315
   1 Au   19.0000*   0   196.966   11.327879   18.842257   17.178447
   2 Au   19.0000*   0   196.966   16.670348   18.755004   17.266475
   3 Au   19.0000*   0   196.966   11.871218   10.971450   21.626326
   4 Au   19.0000*   0   196.966    9.140131   14.103564   18.523188
   5 Au   19.0000*   0   196.966   17.192282   13.929859   15.311331
   6 Au   19.0000*   0   196.966   14.607161   10.337564   12.318766
   7 Au   19.0000*   0   196.966    8.411579   16.534411    9.595539
   8 Au   19.0000*   0   196.966    7.186220   16.605106   14.634403
   9 Au   19.0000*   0   196.966   12.244242   13.244343    8.555519
  10 Au   19.0000*   0   196.966    9.712806   12.255317   13.191790
  11 Au   19.0000*   0   196.966   14.270240   21.969750   13.913458
  12 Au   19.0000*   0   196.966    9.408762   20.853419   12.555390
  13 Au   19.0000*   0   196.966   13.410490   18.059633   10.397498
  14 Au   19.0000*   0   196.966   17.172782   14.359836    9.985000
  15 Au   19.0000*   0   196.966   18.270535   18.813302   12.340583
  16 Mn   25.0000    0    54.940   13.101281   11.387047   16.828920
* core charge reduced due to ECP

--------------------------------
INTERNAL COORDINATES (ANGSTROEM)
--------------------------------
 Au     0   0   0     0.000000000000     0.00000000     0.00000000
 Au     1   0   0     2.861534409471     0.00000000     0.00000000
 Au     1   2   0     2.656344416522    61.52702176     0.00000000
 Au     1   2   3     2.744844599109   117.47606105   195.86279070
 Au     4   1   2     2.744509349630    63.37586922     6.86233637
 Au     3   1   2     2.768816963471    66.59311031   249.17983349
 Au     6   3   1     2.827157940659   141.36206915    80.80373870
 Au     2   1   3     4.469322334056   117.75206385    97.30155204
 Au     5   4   1     2.656349829466   165.79924948    77.49077499
 Au     8   2   1     2.729009973144    95.66856343   331.21573788
 Au     9   5   4     2.769242189651    67.13318473    18.33897022
 Au     3   1   2     2.766834790653   123.52890943   350.77256262
 Au    12   3   1     2.735621600598   117.86425993   346.87352720
 Au    10   8   2     2.797142902190    60.82481400   312.75449204
 Au    10   8   2     2.778974129298   120.46889233   322.07755435
 Au    15  10   8     2.728584199656   120.50533675   358.42575807
 Mn     7   6   3     2.576749632004    59.06292386   288.97529772

---------------------------
INTERNAL COORDINATES (A.U.)
---------------------------
 Au     0   0   0     0.000000000000     0.00000000     0.00000000
 Au     1   0   0     5.407516356692     0.00000000     0.00000000
 Au     1   2   0     5.019763464597    61.52702176     0.00000000
 Au     1   2   3     5.187004572489   117.47606105   195.86279070
 Au     4   1   2     5.186371042787    63.37586922     6.86233637
 Au     3   1   2     5.232305775916    66.59311031   249.17983349
 Au     6   3   1     5.342554245186   141.36206915    80.80373870
 Au     2   1   3     8.445795215583   117.75206385    97.30155204
 Au     5   4   1     5.019773693579   165.79924948    77.49077499
 Au     8   2   1     5.157081465981    95.66856343   331.21573788
 Au     9   5   4     5.233109336942    67.13318473    18.33897022
 Au     3   1   2     5.228560012140   123.52890943   350.77256262
 Au    12   3   1     5.169575631169   117.86425993   346.87352720
 Au    10   8   2     5.285834042581    60.82481400   312.75449204
 Au    10   8   2     5.251500037625   120.46889233   322.07755435
 Au    15  10   8     5.156276870694   120.50533675   358.42575807
 Mn     7   6   3     4.869351120170    59.06292386   288.97529772

---------------------
BASIS SET INFORMATION
---------------------
There are 2 groups of distinct atoms

 Group   1 Type Au  : 8s7p6d1f contracted to 6s4p3d1f pattern {311111/4111/411/1}
 Group   2 Type Mn  : 17s11p7d1f contracted to 6s4p4d1f pattern {842111/6311/4111/1}

Atom   0Au   basis set group =>   1
Atom   1Au   basis set group =>   1
Atom   2Au   basis set group =>   1
Atom   3Au   basis set group =>   1
Atom   4Au   basis set group =>   1
Atom   5Au   basis set group =>   1
Atom   6Au   basis set group =>   1
Atom   7Au   basis set group =>   1
Atom   8Au   basis set group =>   1
Atom   9Au   basis set group =>   1
Atom  10Au   basis set group =>   1
Atom  11Au   basis set group =>   1
Atom  12Au   basis set group =>   1
Atom  13Au   basis set group =>   1
Atom  14Au   basis set group =>   1
Atom  15Au   basis set group =>   1
Atom  16Mn   basis set group =>   2
---------------------------------
AUXILIARY/J BASIS SET INFORMATION
---------------------------------
There are 2 groups of distinct atoms

 Group   1 Type Au  : 11s5p5d3f3g contracted to 8s5p5d2f3g pattern {41111111/11111/11111/21/111}
 Group   2 Type Mn  : 19s5p5d3f3g contracted to 8s5p5d2f3g pattern {121111111/11111/11111/21/111}

Atom   0Au   basis set group =>   1
Atom   1Au   basis set group =>   1
Atom   2Au   basis set group =>   1
Atom   3Au   basis set group =>   1
Atom   4Au   basis set group =>   1
Atom   5Au   basis set group =>   1
Atom   6Au   basis set group =>   1
Atom   7Au   basis set group =>   1
Atom   8Au   basis set group =>   1
Atom   9Au   basis set group =>   1
Atom  10Au   basis set group =>   1
Atom  11Au   basis set group =>   1
Atom  12Au   basis set group =>   1
Atom  13Au   basis set group =>   1
Atom  14Au   basis set group =>   1
Atom  15Au   basis set group =>   1
Atom  16Mn   basis set group =>   2
---------------------------------
AUXILIARY/C BASIS SET INFORMATION
---------------------------------
There are 2 groups of distinct atoms

 Group   1 Type Au  : 8s8p7d5f3g2h contracted to 8s8p7d5f3g2h pattern {11111111/11111111/1111111/11111/111/11}
 Group   2 Type Mn  : 11s9p8d6f5g2h contracted to 9s8p8d6f5g2h pattern {311111111/21111111/11111111/111111/11111/11}

Atom   0Au   basis set group =>   1
Atom   1Au   basis set group =>   1
Atom   2Au   basis set group =>   1
Atom   3Au   basis set group =>   1
Atom   4Au   basis set group =>   1
Atom   5Au   basis set group =>   1
Atom   6Au   basis set group =>   1
Atom   7Au   basis set group =>   1
Atom   8Au   basis set group =>   1
Atom   9Au   basis set group =>   1
Atom  10Au   basis set group =>   1
Atom  11Au   basis set group =>   1
Atom  12Au   basis set group =>   1
Atom  13Au   basis set group =>   1
Atom  14Au   basis set group =>   1
Atom  15Au   basis set group =>   1
Atom  16Mn   basis set group =>   2
-------------------------
ECP PARAMETER INFORMATION
-------------------------

 Group 1, Type Au ECP Def2-ECP (replacing 60 core electrons, lmax=3)

Atom   0Au   ECP group =>   1
Atom   1Au   ECP group =>   1
Atom   2Au   ECP group =>   1
Atom   3Au   ECP group =>   1
Atom   4Au   ECP group =>   1
Atom   5Au   ECP group =>   1
Atom   6Au   ECP group =>   1
Atom   7Au   ECP group =>   1
Atom   8Au   ECP group =>   1
Atom   9Au   ECP group =>   1
Atom  10Au   ECP group =>   1
Atom  11Au   ECP group =>   1
Atom  12Au   ECP group =>   1
Atom  13Au   ECP group =>   1
Atom  14Au   ECP group =>   1
Atom  15Au   ECP group =>   1



           ************************************************************
           *        Program running with 6 parallel MPI-processes     *
           *              working on a common directory               *
           ************************************************************
------------------------------------------------------------------------------
                           ORCA GTO INTEGRAL CALCULATION
                           -- RI-GTO INTEGRALS CHOSEN --
------------------------------------------------------------------------------
------------------------------------------------------------------------------
                   ___                                                        
                  /   \      - P O W E R E D   B Y -                         
                 /     \                                                     
                 |  |  |   _    _      __       _____    __    __             
                 |  |  |  | |  | |    /  \     |  _  \  |  |  /  |          
                  \  \/   | |  | |   /    \    | | | |  |  | /  /          
                 / \  \   | |__| |  /  /\  \   | |_| |  |  |/  /          
                |  |  |   |  __  | /  /__\  \  |    /   |      \           
                |  |  |   | |  | | |   __   |  |    \   |  |\   \          
                \     /   | |  | | |  |  |  |  | |\  \  |  | \   \       
                 \___/    |_|  |_| |__|  |__|  |_| \__\ |__|  \__/        
                                                                              
                      - O R C A' S   B I G   F R I E N D -                    
                                      &                                       
                       - I N T E G R A L  F E E D E R -                       
                                                                              
 v1 FN, 2020, v2 2021                                                         
------------------------------------------------------------------------------


Reading SHARK input file casscf.SHARKINP.tmp ... ok
----------------------
SHARK INTEGRAL PACKAGE
----------------------

Number of atoms                             ...     17
Number of basis functions                   ...    685
Number of shells                            ...    239
Maximum angular momentum                    ...      3
Integral batch strategy                     ... SHARK/LIBINT Hybrid
RI-J (if used) integral strategy            ... SPLIT-RIJ (Revised 2003 algorithm where possible)
Printlevel                                  ...      1
Contraction scheme used                     ... SEGMENTED contraction
Coulomb Range Separation                    ... NOT USED
Exchange Range Separation                   ... NOT USED
Finite Nucleus Model                        ... NOT USED
Auxiliary Coulomb fitting basis             ... AVAILABLE
   # of basis functions in Aux-J            ...   1513
   # of shells in Aux-J                     ...    391
   Maximum angular momentum in Aux-J        ...      4
Auxiliary J/K fitting basis                 ... NOT available
Auxiliary Correlation fitting basis         ... AVAILABLE
   # of basis functions in Aux-C            ...   2598
   # of shells in Aux-C                     ...    566
   Maximum angular momentum in Aux-C        ...      5
Auxiliary 'external' fitting basis          ... NOT available
Integral threshold                          ...     1.000000e-10
Primitive cut-off                           ...     1.000000e-11
Primitive pair pre-selection threshold      ...     1.000000e-11

Calculating pre-screening integrals         ... done (  0.2 sec) Dimension = 239
Organizing shell pair data                  ... done (  1.1 sec)
Shell pair information
Total number of shell pairs                 ...     28680
Shell pairs after pre-screening             ...     21709
Total number of primitive shell pairs       ...     75765
Primitive shell pairs kept                  ...     40648
          la=0 lb=0:   3447 shell pairs
          la=1 lb=0:   4942 shell pairs
          la=1 lb=1:   1853 shell pairs
          la=2 lb=0:   4313 shell pairs
          la=2 lb=1:   3060 shell pairs
          la=2 lb=2:   1273 shell pairs
          la=3 lb=0:   1105 shell pairs
          la=3 lb=1:    848 shell pairs
          la=3 lb=2:    760 shell pairs
          la=3 lb=3:    108 shell pairs

Calculating one electron integrals          ... done (  0.1 sec)
Calculating ECP integrals                   ... done ( 14.4 sec)
Calculating RI/J V-Matrix + Cholesky decomp.... done (  0.1 sec)
Calculating RI/C V-Matrix + Cholesky decomp.... done (  0.5 sec)
Calculating Nuclear repulsion               ... done (  0.0 sec) ENN=   6758.870789720933 Eh

SHARK setup successfully completed in  17.4 seconds

Maximum memory used throughout the entire GTOINT-calculation: 60.2 MB


           ************************************************************
           *        Program running with 6 parallel MPI-processes     *
           *              working on a common directory               *
           ************************************************************
-------------------------------------------------------------------------------
                                 ORCA SCF
-------------------------------------------------------------------------------

------------
SCF SETTINGS
------------
Hamiltonian:
 Ab initio Hamiltonian  Method          .... Hartree-Fock(GTOs)
 RI-approximation to the Coulomb term is turned on
   Number of AuxJ basis functions       .... 1513
   RIJ-COSX (HFX calculated with COS-X)).... on


General Settings:
 Integral files         IntName         .... casscf
 Hartree-Fock type      HFTyp           .... CASSCF
 Total Charge           Charge          ....    0
 Multiplicity           Mult            ....    6
 Number of Electrons    NEL             ....  329
 Basis Dimension        Dim             ....  685
 Nuclear Repulsion      ENuc            ....   6758.8707897209 Eh


Diagonalization of the overlap matrix:
Smallest eigenvalue                        ... 5.499e-04
Time for diagonalization                   ...    0.140 sec
Threshold for overlap eigenvalues          ... 1.000e-08
Number of eigenvalues below threshold      ... 0
Time for construction of square roots      ...    0.078 sec
Total time needed                          ...    0.221 sec

---------------------
INITIAL GUESS: MOREAD
---------------------
Guess MOs are being read from file: pbe.qro
Input Geometry matches current geometry (good)
Input basis set matches current basis set (good)
MOs were renormalized
Gram-Schmidt orthogonalization of all MOs with pivot on actives
                      ------------------
                      INITIAL GUESS DONE (  11.6 sec)
                      ------------------
--------------------
COSX GRID GENERATION
--------------------

GRIDX 1
-------
General Integration Accuracy     IntAcc      ... 3.816
Radial Grid Type                 RadialGrid  ... OptM3 with GC (2021)
Angular Grid (max. ang.)         AngularGrid ... 1 (Lebedev-50)
Angular grid pruning method      GridPruning ... 4 (adaptive)
Weight generation scheme         WeightScheme... Becke
Basis function cutoff            BFCut       ... 1.0000e-10
Integration weight cutoff        WCut        ... 1.0000e-14
Angular grids for H and He will be reduced by one unit
Partially contracted basis set               ... on
Rotationally invariant grid construction     ... off

Total number of grid points                  ...    19558
Total number of batches                      ...      314
Average number of points per batch           ...       62
Average number of grid points per atom       ...     1150
UseSFitting                                  ... on

GRIDX 2
-------
General Integration Accuracy     IntAcc      ... 4.020
Radial Grid Type                 RadialGrid  ... OptM3 with GC (2021)
Angular Grid (max. ang.)         AngularGrid ... 2 (Lebedev-110)
Angular grid pruning method      GridPruning ... 4 (adaptive)
Weight generation scheme         WeightScheme... Becke
Basis function cutoff            BFCut       ... 1.0000e-10
Integration weight cutoff        WCut        ... 1.0000e-14
Angular grids for H and He will be reduced by one unit
Partially contracted basis set               ... on
Rotationally invariant grid construction     ... off

Total number of grid points                  ...    59406
Total number of batches                      ...      937
Average number of points per batch           ...       63
Average number of grid points per atom       ...     3494
UseSFitting                                  ... on

GRIDX 3
-------
General Integration Accuracy     IntAcc      ... 4.338
Radial Grid Type                 RadialGrid  ... OptM3 with GC (2021)
Angular Grid (max. ang.)         AngularGrid ... 3 (Lebedev-194)
Angular grid pruning method      GridPruning ... 4 (adaptive)
Weight generation scheme         WeightScheme... Becke
Basis function cutoff            BFCut       ... 1.0000e-10
Integration weight cutoff        WCut        ... 1.0000e-14
Angular grids for H and He will be reduced by one unit
Partially contracted basis set               ... on
Rotationally invariant grid construction     ... off

Total number of grid points                  ...   107607
Total number of batches                      ...     1690
Average number of points per batch           ...       63
Average number of grid points per atom       ...     6330
UseSFitting                                  ... on

Time for X-Grid setup             =    2.092 sec



 ... the calculation is a CASSCF calculation -I'm leaving here GOOD LUCK!!!



           ************************************************************
           *        Program running with 6 parallel MPI-processes     *
           *              working on a common directory               *
           ************************************************************
-------------------------------------------------------------------------------
                              ORCA-CASSCF
-------------------------------------------------------------------------------

Setting up the integral package       ... done
Setting up the integral package (RI)  ... done
Building the CAS space                ... done (1 configurations for Mult=6)
Building the CAS space                ... done (21 configurations for Mult=4)

SYSTEM-SPECIFIC SETTINGS:
Number of active electrons          ...    5
Number of active orbitals           ...    5
Total number of electrons           ...  329
Total number of orbitals            ...  685
Total number aux. functions         ... 2598

Determined orbital ranges:
   Internal       0 -  161 ( 162 orbitals)
   Active       162 -  166 (   5 orbitals)
   External     167 -  684 ( 518 orbitals)
Number of rotation parameters      ...  87316

CI-STEP:
CI strategy                         ... General CI
Number of multiplicity blocks       ...    2
BLOCK  1 WEIGHT=   0.5000
  Multiplicity                      ...    6
  #(Configurations)                 ...    1
  #(CSFs)                           ...    1
  #(Roots)                          ...    1
    ROOT=0 WEIGHT=    0.500000

BLOCK  2 WEIGHT=   0.5000
  Multiplicity                      ...    4
  #(Configurations)                 ...   21
  #(CSFs)                           ...   24
  #(Roots)                          ...   24
    ROOT=0 WEIGHT=    0.020833
    ROOT=1 WEIGHT=    0.020833
    ROOT=2 WEIGHT=    0.020833
    ROOT=3 WEIGHT=    0.020833
    ROOT=4 WEIGHT=    0.020833
    ROOT=5 WEIGHT=    0.020833
    ROOT=6 WEIGHT=    0.020833
    ROOT=7 WEIGHT=    0.020833
    ROOT=8 WEIGHT=    0.020833
    ROOT=9 WEIGHT=    0.020833
    ROOT=10 WEIGHT=    0.020833
    ROOT=11 WEIGHT=    0.020833
    ROOT=12 WEIGHT=    0.020833
    ROOT=13 WEIGHT=    0.020833
    ROOT=14 WEIGHT=    0.020833
    ROOT=15 WEIGHT=    0.020833
    ROOT=16 WEIGHT=    0.020833
    ROOT=17 WEIGHT=    0.020833
    ROOT=18 WEIGHT=    0.020833
    ROOT=19 WEIGHT=    0.020833
    ROOT=20 WEIGHT=    0.020833
    ROOT=21 WEIGHT=    0.020833
    ROOT=22 WEIGHT=    0.020833
    ROOT=23 WEIGHT=    0.020833

  PrintLevel                        ...    1
  N(GuessMat)                       ...       512
  MaxDim(CI)                        ...        10
  MaxIter(CI)                       ...        64
  Energy Tolerance CI               ...  1.00e-08
  Residual Tolerance CI             ...  1.00e-08
  Shift(CI)                         ...  1.00e-04

INTEGRAL-TRANSFORMATION-STEP:
  Algorithm                         ... RI-MO

ORBITAL-IMPROVEMENT-STEP:
  Algorithm                         ... SuperCI(PT)
  Default Parametrization           ... CAYLEY
  Act-Act rotations                 ... depends on algorithm used

  Note: SuperCI(PT) will ignore FreezeIE, FreezeAct and FreezeGrad. In general Default settings are encouraged.
        In conjunction with ShiftUp, ShiftDn or GradScaling the performance of SuperCI(PT) is less optimal.  

  MaxRot                            ... 2.00e-01 
  Max. no of vectors (DIIS)         ... 15
  DThresh (cut-off) metric          ... 1.00e-06
  Switch step at gradient           ...  3.00e-02 
  Switch step at iteration          ...        50   
  Switch step to                    ... SuperCI(PT)    

SCF-SETTINGS:
  Incremental                       ... off
  RIJCOSX approximation             ... on
  UseFinalGrid                      ... on
  RI-JK approximation               ... off
  AO integral handling              ... DIRECT
  Integral Neglect Thresh           ...  1.00e-10
  Primitive cutoff TCut             ...  1.00e-11
  Energy convergence tolerance      ...  1.00e-07
  Orbital gradient convergence      ...  1.00e-03
  Max. number of iterations         ...        75  


FINAL ORBITALS:
  Active   Orbitals                 ... natural 
  Internal Orbitals                 ... canonical 
  External Orbitals                 ... canonical 

------------------
CAS-SCF ITERATIONS
------------------


MACRO-ITERATION   1: 
   --- Inactive Energy E0 = -3297.24546330 Eh
CI-ITERATION   0: 
 -3306.378715799   0.000000000000 (    0.00)
   CI-PROBLEM SOLVED
   DENSITIES MADE
CI-ITERATION   0: 
 -3306.272150059   0.000000000000 (    0.00)
 -3306.272026208   0.000000000000
 -3306.270073969   0.000000000000
 -3306.268824401   0.000000000000
 -3306.267077058   0.000000000000
 -3306.266258991   0.000000000000
 -3306.265719649   0.000000000000
 -3306.264221183   0.000000000000
 -3306.264087699   0.000000000000
 -3306.253820551   0.000000000000
 -3306.248628448   0.000000000000
 -3306.247776805   0.000000000000
 -3306.242424109   0.000000000000
 -3306.242355159   0.000000000000
 -3306.239754027   0.000000000000
 -3306.237095196   0.000000000000
 -3306.237065647   0.000000000000
 -3306.195339932   0.000000000000
 -3306.194799188   0.000000000000
 -3306.191222957   0.000000000000
 -3306.190863138   0.000000000000
 -3306.188851274   0.000000000000
 -3306.188029679   0.000000000000
 -3306.187066394   0.000000000000
   CI-PROBLEM SOLVED
   DENSITIES MADE

                 <<<<<<<<<<<<<<<<<<INITIAL CI STATE CHECK>>>>>>>>>>>>>>>>>>

BLOCK  1 MULT= 6 NROOTS= 1 
ROOT   0:  E=   -3306.3787157991 Eh
      1.00000 [     0]: 11111

BLOCK  2 MULT= 4 NROOTS=24 
ROOT   0:  E=   -3306.2721500591 Eh
      0.52995 [     9]: 11120
      0.29588 [    11]: 11102
      0.03525 [    15]: 10121
      0.03368 [    10]: 11111
      0.03289 [     5]: 12101
      0.01840 [     6]: 12011
      0.01621 [     4]: 12110
      0.00733 [     7]: 11210
      0.00730 [    16]: 10112
      0.00576 [    19]: 01121
      0.00477 [    13]: 11012
      0.00394 [    14]: 10211
      0.00338 [     1]: 21101
      0.00302 [    12]: 11021
ROOT   1:  E=   -3306.2720262079 Eh  0.003 eV     27.2 cm**-1
      0.60534 [    10]: 11111
      0.18840 [     4]: 12110
      0.09029 [    16]: 10112
      0.03381 [     9]: 11120
      0.03307 [    12]: 11021
      0.01956 [    11]: 11102
      0.01654 [     8]: 11201
      0.00259 [     5]: 12101
      0.00257 [    17]: 02111
      0.00255 [    15]: 10121
ROOT   2:  E=   -3306.2700739692 Eh  0.056 eV    455.6 cm**-1
      0.36774 [    10]: 11111
      0.26547 [     4]: 12110
      0.11888 [    12]: 11021
      0.10612 [    16]: 10112
      0.05547 [    17]: 02111
      0.04213 [     8]: 11201
      0.02959 [     0]: 21110
      0.00674 [     3]: 20111
      0.00667 [    20]: 01112
ROOT   3:  E=   -3306.2688244008 Eh  0.090 eV    729.9 cm**-1
      0.27627 [     5]: 12101
      0.19929 [    15]: 10121
      0.16060 [     6]: 12011
      0.14061 [    13]: 11012
      0.11439 [     7]: 11210
      0.06899 [    14]: 10211
      0.03298 [     9]: 11120
      0.00365 [    11]: 11102
ROOT   4:  E=   -3306.2670770582 Eh  0.138 eV   1113.4 cm**-1
      0.64261 [    10]: 11111
      0.11867 [     0]: 21110
      0.09137 [    20]: 01112
      0.04377 [     8]: 11201
      0.03877 [     4]: 12110
      0.03041 [    12]: 11021
      0.02654 [    17]: 02111
      0.00414 [    16]: 10112
      0.00368 [     3]: 20111
ROOT   5:  E=   -3306.2662589907 Eh  0.160 eV   1292.9 cm**-1
      0.26971 [     6]: 12011
      0.20462 [    19]: 01121
      0.19083 [     1]: 21101
      0.14636 [    14]: 10211
      0.06642 [     7]: 11210
      0.05893 [    13]: 11012
      0.02837 [    11]: 11102
      0.01779 [    15]: 10121
      0.01067 [     5]: 12101
      0.00312 [    18]: 01211
ROOT   6:  E=   -3306.2657196494 Eh  0.175 eV   1411.3 cm**-1
      0.27553 [    17]: 02111
      0.17247 [     3]: 20111
      0.13054 [    12]: 11021
      0.12680 [     8]: 11201
      0.11262 [    10]: 11111
      0.09586 [    20]: 01112
      0.07429 [     0]: 21110
      0.01134 [     4]: 12110
ROOT   7:  E=   -3306.2642211832 Eh  0.216 eV   1740.2 cm**-1
      0.84698 [    10]: 11111
      0.05203 [    17]: 02111
      0.04045 [     3]: 20111
      0.02263 [    12]: 11021
      0.02181 [     8]: 11201
      0.00519 [    20]: 01112
      0.00459 [    16]: 10112
      0.00413 [     4]: 12110
ROOT   8:  E=   -3306.2640876987 Eh  0.219 eV   1769.5 cm**-1
      0.47903 [     2]: 21011
      0.36269 [    18]: 01211
      0.03280 [     1]: 21101
      0.02279 [    19]: 01121
      0.02140 [    15]: 10121
      0.02034 [    13]: 11012
      0.01694 [     6]: 12011
      0.01678 [     5]: 12101
      0.00999 [    14]: 10211
      0.00891 [     7]: 11210
      0.00789 [     9]: 11120
ROOT   9:  E=   -3306.2538205509 Eh  0.499 eV   4022.9 cm**-1
      0.46750 [    11]: 11102
      0.23835 [     9]: 11120
      0.14480 [    14]: 10211
      0.04544 [    19]: 01121
      0.03269 [    15]: 10121
      0.03029 [     5]: 12101
      0.02637 [     6]: 12011
      0.00634 [     1]: 21101
      0.00611 [    18]: 01211
ROOT  10:  E=   -3306.2486284479 Eh  0.640 eV   5162.4 cm**-1
      0.37101 [    16]: 10112
      0.13074 [    12]: 11021
      0.11958 [     3]: 20111
      0.10442 [    17]: 02111
      0.09677 [    20]: 01112
      0.06469 [     8]: 11201
      0.05680 [     4]: 12110
      0.04505 [    10]: 11111
      0.01048 [     0]: 21110
ROOT  11:  E=   -3306.2477768050 Eh  0.663 eV   5349.3 cm**-1
      0.37641 [    18]: 01211
      0.17920 [    15]: 10121
      0.16506 [     2]: 21011
      0.07126 [    14]: 10211
      0.05702 [     6]: 12011
      0.03984 [    13]: 11012
      0.03212 [    19]: 01121
      0.02753 [     1]: 21101
      0.02112 [     5]: 12101
      0.01855 [     9]: 11120
      0.01082 [    11]: 11102
ROOT  12:  E=   -3306.2424241087 Eh  0.809 eV   6524.1 cm**-1
      0.25541 [     7]: 11210
      0.20789 [    13]: 11012
      0.20551 [     5]: 12101
      0.09012 [    15]: 10121
      0.07369 [    10]: 11111
      0.07111 [     2]: 21011
      0.02276 [     1]: 21101
      0.01865 [     0]: 21110
      0.01354 [    11]: 11102
      0.00968 [    16]: 10112
      0.00930 [    20]: 01112
      0.00852 [    14]: 10211
      0.00517 [     4]: 12110
ROOT  13:  E=   -3306.2423551590 Eh  0.811 eV   6539.2 cm**-1
      0.53762 [    10]: 11111
      0.13122 [     0]: 21110
      0.07018 [    20]: 01112
      0.07001 [    16]: 10112
      0.03981 [     4]: 12110
      0.03473 [     7]: 11210
      0.02827 [     5]: 12101
      0.02743 [    13]: 11012
      0.01978 [    12]: 11021
      0.01140 [    15]: 10121
      0.01124 [     2]: 21011
      0.00735 [    17]: 02111
      0.00397 [     1]: 21101
      0.00316 [     8]: 11201
ROOT  14:  E=   -3306.2397540266 Eh  0.882 eV   7110.1 cm**-1
      0.23302 [    10]: 11111
      0.22163 [     8]: 11201
      0.16268 [    12]: 11021
      0.12745 [     3]: 20111
      0.10569 [     4]: 12110
      0.06843 [     0]: 21110
      0.05206 [    17]: 02111
      0.02211 [    20]: 01112
      0.00671 [    16]: 10112
ROOT  15:  E=   -3306.2370951960 Eh  0.954 eV   7693.7 cm**-1
      0.27574 [    19]: 01121
      0.17297 [     1]: 21101
      0.14782 [     6]: 12011
      0.10378 [    14]: 10211
      0.05757 [    10]: 11111
      0.04731 [     2]: 21011
      0.03431 [     9]: 11120
      0.02820 [    18]: 01211
      0.01961 [    13]: 11012
      0.01841 [    20]: 01112
      0.01702 [     5]: 12101
      0.01480 [    11]: 11102
      0.01447 [     7]: 11210
      0.01349 [    17]: 02111
      0.01316 [     3]: 20111
      0.00997 [     0]: 21110
      0.00746 [    15]: 10121
      0.00284 [     4]: 12110
ROOT  16:  E=   -3306.2370656469 Eh  0.955 eV   7700.1 cm**-1
      0.43916 [    10]: 11111
      0.14477 [    20]: 01112
      0.09435 [    17]: 02111
      0.09013 [     3]: 20111
      0.08254 [     0]: 21110
      0.03695 [    19]: 01121
      0.02349 [     1]: 21101
      0.02039 [     4]: 12110
      0.01917 [     6]: 12011
      0.01352 [    14]: 10211
      0.00664 [     2]: 21011
      0.00599 [    12]: 11021
      0.00502 [    16]: 10112
      0.00412 [     9]: 11120
      0.00375 [    18]: 01211
ROOT  17:  E=   -3306.1953399317 Eh  2.090 eV  16857.9 cm**-1
      0.35682 [    15]: 10121
      0.31095 [     5]: 12101
      0.08453 [     7]: 11210
      0.07343 [    14]: 10211
      0.06913 [    13]: 11012
      0.04065 [     6]: 12011
      0.02861 [    18]: 01211
      0.02653 [     2]: 21011
      0.00510 [    11]: 11102
      0.00256 [     9]: 11120
ROOT  18:  E=   -3306.1947991882 Eh  2.105 eV  16976.6 cm**-1
      0.28689 [    16]: 10112
      0.23366 [     8]: 11201
      0.21080 [     4]: 12110
      0.16508 [    12]: 11021
      0.05446 [     3]: 20111
      0.04294 [    17]: 02111
ROOT  19:  E=   -3306.1912229571 Eh  2.202 eV  17761.4 cm**-1
      0.38892 [     7]: 11210
      0.38619 [    13]: 11012
      0.05115 [     2]: 21011
      0.04393 [    15]: 10121
      0.04126 [    18]: 01211
      0.04109 [     5]: 12101
      0.01307 [     1]: 21101
      0.01005 [    19]: 01121
      0.00972 [    11]: 11102
      0.00887 [     9]: 11120
      0.00307 [     6]: 12011
      0.00253 [    14]: 10211
ROOT  20:  E=   -3306.1908631382 Eh  2.212 eV  17840.4 cm**-1
      0.31043 [    14]: 10211
      0.20288 [     6]: 12011
      0.12495 [    11]: 11102
      0.08659 [     9]: 11120
      0.08109 [     1]: 21101
      0.06008 [    18]: 01211
      0.04534 [    19]: 01121
      0.04262 [     2]: 21011
      0.02132 [    13]: 11012
      0.01940 [     7]: 11210
      0.00392 [     5]: 12101
ROOT  21:  E=   -3306.1888512740 Eh  2.267 eV  18282.0 cm**-1
      0.21390 [     8]: 11201
      0.18792 [     3]: 20111
      0.16737 [    12]: 11021
      0.15480 [    17]: 02111
      0.10961 [    20]: 01112
      0.09908 [     0]: 21110
      0.03354 [    16]: 10112
      0.03204 [     4]: 12110
ROOT  22:  E=   -3306.1880296790 Eh  2.289 eV  18462.3 cm**-1
      0.35271 [     0]: 21110
      0.32570 [    20]: 01112
      0.18221 [     3]: 20111
      0.11643 [    17]: 02111
      0.00818 [     8]: 11201
      0.00633 [    12]: 11021
      0.00272 [    16]: 10112
ROOT  23:  E=   -3306.1870663943 Eh  2.315 eV  18673.7 cm**-1
      0.42046 [     1]: 21101
      0.31789 [    19]: 01121
      0.09585 [     2]: 21011
      0.08648 [    18]: 01211
      0.04075 [    14]: 10211
      0.03347 [     6]: 12011

                 <<<<<<<<<<<<<<<<<<INITIAL CI STATE CHECK>>>>>>>>>>>>>>>>>>

   E(CAS)= -3306.308014810 Eh DE=    0.000000e+00
   --- Energy gap subspaces: Ext-Act = 0.084   Act-Int = 0.097
   N(occ)=  1.00000 1.00000 1.00000 1.00000 1.00000
   ||g|| =     2.737355e+00 Max(G)=    4.561781e-01 Rot=592,1
   --- Orbital Update [SuperCI(PT)]
   --- Canonicalize Internal Space
   --- Canonicalize External Space
   --- SX_PT (Skipped TA=0 IT=0): ||X|| =      0.516340104 Max(X)(165,160) =     -0.068784255 
   --- SFit(Active Orbitals)

MACRO-ITERATION   2: 
   --- Inactive Energy E0 = -3296.38901941 Eh
CI-ITERATION   0: 
 -3306.833180125   0.000000000000 (    0.00)
   CI-PROBLEM SOLVED
   DENSITIES MADE
CI-ITERATION   0: 
 -3306.707787781   0.000000000000 (    0.00)
 -3306.707644423   0.000000000000
 -3306.707030499   0.000000000000
 -3306.706382346   0.000000000000
 -3306.706095660   0.000000000000
 -3306.705211848   0.000000000000
 -3306.704811773   0.000000000000
 -3306.704080082   0.000000000000
 -3306.703597156   0.000000000000
 -3306.687662378   0.000000000000
 -3306.687010890   0.000000000000
 -3306.684612784   0.000000000000
 -3306.676477456   0.000000000000
 -3306.675176391   0.000000000000
 -3306.672859274   0.000000000000
 -3306.672645952   0.000000000000
 -3306.671710298   0.000000000000
 -3306.619858062   0.000000000000
 -3306.619462889   0.000000000000
 -3306.618364087   0.000000000000
 -3306.617773095   0.000000000000
 -3306.616634417   0.000000000000
 -3306.615881883   0.000000000000
 -3306.615560940   0.000000000000
   CI-PROBLEM SOLVED
   DENSITIES MADE
   E(CAS)= -3306.752096987 Eh DE=   -4.440822e-01
   --- Energy gap subspaces: Ext-Act = 0.187   Act-Int = -0.006
   N(occ)=  1.00000 1.00000 1.00000 1.00000 1.00000
   ||g|| =     9.177010e-01 Max(G)=   -4.844067e-02 Rot=576,73
   --- Orbital Update [SuperCI(PT)]
   --- Canonicalize Internal Space
   --- Canonicalize External Space
   --- SX_PT (Skipped TA=0 IT=0): ||X|| =      0.203075306 Max(X)(168,165) =      0.028047155 
   --- SFit(Active Orbitals)

MACRO-ITERATION   3: 
   --- Inactive Energy E0 = -3296.48170239 Eh
CI-ITERATION   0: 
 -3306.879559132   0.000000000000 (    0.00)
   CI-PROBLEM SOLVED
   DENSITIES MADE
CI-ITERATION   0: 
 -3306.744416735   0.000000000000 (    0.00)
 -3306.744382788   0.000000000000
 -3306.743931592   0.000000000000
 -3306.743555728   0.000000000000
 -3306.743365803   0.000000000000
 -3306.742740142   0.000000000000
 -3306.742560146   0.000000000000
 -3306.742267192   0.000000000000
 -3306.741913046   0.000000000000
 -3306.722767751   0.000000000000
 -3306.722224658   0.000000000000
 -3306.720962040   0.000000000000
 -3306.710753146   0.000000000000
 -3306.710295154   0.000000000000
 -3306.708899779   0.000000000000
 -3306.708758555   0.000000000000
 -3306.708342625   0.000000000000
 -3306.651114435   0.000000000000
 -3306.650714342   0.000000000000
 -3306.650327354   0.000000000000
 -3306.649949026   0.000000000000
 -3306.649127351   0.000000000000
 -3306.648778045   0.000000000000
 -3306.648151969   0.000000000000
   CI-PROBLEM SOLVED
   DENSITIES MADE
   E(CAS)= -3306.792910803 Eh DE=   -4.081382e-02
   --- Energy gap subspaces: Ext-Act = 0.061   Act-Int = 0.132
   N(occ)=  1.00000 1.00000 1.00000 1.00000 1.00000
   ||g|| =     6.424182e-01 Max(G)=    8.234995e-02 Rot=592,21
   --- Orbital Update [SuperCI(PT)]
   --- Canonicalize Internal Space
   --- Canonicalize External Space
   --- SX_PT (Skipped TA=0 IT=0): ||X|| =      0.168513115 Max(X)(174,161) =     -0.027373361 
   --- SFit(Active Orbitals)

MACRO-ITERATION   4: 
   --- Inactive Energy E0 = -3296.19601885 Eh
CI-ITERATION   0: 
 -3306.900396952   0.000000000000 (    0.00)
   CI-PROBLEM SOLVED
   DENSITIES MADE
CI-ITERATION   0: 
 -3306.763797639   0.000000000000 (    0.00)
 -3306.763662862   0.000000000000
 -3306.763338278   0.000000000000
 -3306.763039459   0.000000000000
 -3306.763034108   0.000000000000
 -3306.762502248   0.000000000000
 -3306.762330459   0.000000000000
 -3306.762187578   0.000000000000
 -3306.761799225   0.000000000000
 -3306.741910844   0.000000000000
 -3306.741751983   0.000000000000
 -3306.740476194   0.000000000000
 -3306.730025946   0.000000000000
 -3306.729502506   0.000000000000
 -3306.728280308   0.000000000000
 -3306.728163309   0.000000000000
 -3306.727509893   0.000000000000
 -3306.669507685   0.000000000000
 -3306.669106692   0.000000000000
 -3306.668873274   0.000000000000
 -3306.668619383   0.000000000000
 -3306.667947928   0.000000000000
 -3306.667734203   0.000000000000
 -3306.667320394   0.000000000000
   CI-PROBLEM SOLVED
   DENSITIES MADE
   E(CAS)= -3306.812957276 Eh DE=   -2.004647e-02
   --- Energy gap subspaces: Ext-Act = 0.124   Act-Int = 0.066
   N(occ)=  1.00000 1.00000 1.00000 1.00000 1.00000
   ||g|| =     2.357713e-01 Max(G)=    1.174199e-02 Rot=592,21
   --- Orbital Update [SuperCI(PT)]
   --- Canonicalize Internal Space
   --- Canonicalize External Space
   --- SX_PT (Skipped TA=0 IT=0): ||X|| =      0.061441471 Max(X)(167,157) =     -0.015049009 
   --- SFit(Active Orbitals)

MACRO-ITERATION   5: 
   --- Inactive Energy E0 = -3296.15267279 Eh
CI-ITERATION   0: 
 -3306.903056159   0.000000000000 (    0.00)
   CI-PROBLEM SOLVED
   DENSITIES MADE
CI-ITERATION   0: 
 -3306.766121876   0.000000000000 (    0.00)
 -3306.765922313   0.000000000000
 -3306.765631554   0.000000000000
 -3306.765414410   0.000000000000
 -3306.765384715   0.000000000000
 -3306.764923805   0.000000000000
 -3306.764726270   0.000000000000
 -3306.764630542   0.000000000000
 -3306.764229310   0.000000000000
 -3306.744173975   0.000000000000
 -3306.744137471   0.000000000000
 -3306.742912355   0.000000000000
 -3306.732290455   0.000000000000
 -3306.731643987   0.000000000000
 -3306.730605147   0.000000000000
 -3306.730527962   0.000000000000
 -3306.729675888   0.000000000000
 -3306.671514037   0.000000000000
 -3306.671150133   0.000000000000
 -3306.670944090   0.000000000000
 -3306.670722729   0.000000000000
 -3306.670020866   0.000000000000
 -3306.669878845   0.000000000000
 -3306.669502957   0.000000000000
   CI-PROBLEM SOLVED
   DENSITIES MADE
   E(CAS)= -3306.815417364 Eh DE=   -2.460089e-03
   --- Energy gap subspaces: Ext-Act = 0.126   Act-Int = 0.064
   N(occ)=  1.00000 1.00000 1.00000 1.00000 1.00000
   ||g|| =     5.878050e-02 Max(G)=    4.807004e-03 Rot=603,165
   --- Orbital Update [SuperCI(PT)]
   --- Canonicalize Internal Space
   --- Canonicalize External Space
   --- SX_PT (Skipped TA=0 IT=0): ||X|| =      0.017681302 Max(X)(169,161) =     -0.005328095 
   --- SFit(Active Orbitals)

MACRO-ITERATION   6: 
   --- Inactive Energy E0 = -3296.15249693 Eh
CI-ITERATION   0: 
 -3306.903663921   0.000000000000 (    0.00)
   CI-PROBLEM SOLVED
   DENSITIES MADE
CI-ITERATION   0: 
 -3306.766206365   0.000000000000 (    0.00)
 -3306.765986976   0.000000000000
 -3306.765710382   0.000000000000
 -3306.765531443   0.000000000000
 -3306.765498824   0.000000000000
 -3306.765069673   0.000000000000
 -3306.764885109   0.000000000000
 -3306.764807310   0.000000000000
 -3306.764423607   0.000000000000
 -3306.744213349   0.000000000000
 -3306.744151830   0.000000000000
 -3306.743026390   0.000000000000
 -3306.732234422   0.000000000000
 -3306.731622287   0.000000000000
 -3306.730657841   0.000000000000
 -3306.730590371   0.000000000000
 -3306.729762229   0.000000000000
 -3306.671275246   0.000000000000
 -3306.670935750   0.000000000000
 -3306.670736349   0.000000000000
 -3306.670554408   0.000000000000
 -3306.669899070   0.000000000000
 -3306.669740786   0.000000000000
 -3306.669425626   0.000000000000
   CI-PROBLEM SOLVED
   DENSITIES MADE
   E(CAS)= -3306.815726661 Eh DE=   -3.092970e-04
   --- Energy gap subspaces: Ext-Act = 0.121   Act-Int = 0.069
   N(occ)=  1.00000 1.00000 1.00000 1.00000 1.00000
   ||g|| =     3.698919e-02 Max(G)=    2.050824e-03 Rot=173,160
   --- Orbital Update [SuperCI(PT)]
   --- Canonicalize Internal Space
   --- Canonicalize External Space
   --- SX_PT (Skipped TA=0 IT=0): ||X|| =      0.009767088 Max(X)(173,160) =     -0.002106283 
   --- SFit(Active Orbitals)

MACRO-ITERATION   7: 
   --- Inactive Energy E0 = -3296.13845074 Eh
CI-ITERATION   0: 
 -3306.903778148   0.000000000000 (    0.00)
   CI-PROBLEM SOLVED
   DENSITIES MADE
CI-ITERATION   0: 
 -3306.766269582   0.000000000000 (    0.00)
 -3306.766050319   0.000000000000
 -3306.765775968   0.000000000000
 -3306.765599360   0.000000000000
 -3306.765568978   0.000000000000
 -3306.765147699   0.000000000000
 -3306.764965453   0.000000000000
 -3306.764887755   0.000000000000
 -3306.764508039   0.000000000000
 -3306.744265044   0.000000000000
 -3306.744213188   0.000000000000
 -3306.743099739   0.000000000000
 -3306.732280690   0.000000000000
 -3306.731684788   0.000000000000
 -3306.730719159   0.000000000000
 -3306.730656202   0.000000000000
 -3306.729861075   0.000000000000
 -3306.671299901   0.000000000000
 -3306.670981205   0.000000000000
 -3306.670779370   0.000000000000
 -3306.670606528   0.000000000000
 -3306.669972678   0.000000000000
 -3306.669795580   0.000000000000
 -3306.669517047   0.000000000000
   CI-PROBLEM SOLVED
   DENSITIES MADE
   E(CAS)= -3306.815816268 Eh DE=   -8.960702e-05
   --- Energy gap subspaces: Ext-Act = 0.123   Act-Int = 0.067
   N(occ)=  1.00000 1.00000 1.00000 1.00000 1.00000
   ||g|| =     1.463225e-02 Max(G)=   -1.477754e-03 Rot=167,159
   --- Orbital Update [SuperCI(PT)]
   --- Canonicalize Internal Space
   --- Canonicalize External Space
   --- SX_PT (Skipped TA=0 IT=0): ||X|| =      0.004902204 Max(X)(167,159) =     -0.002007941 
   --- SFit(Active Orbitals)

MACRO-ITERATION   8: 
   --- Inactive Energy E0 = -3296.13753692 Eh
CI-ITERATION   0: 
 -3306.903779797   0.000000000000 (    0.16)
   CI-PROBLEM SOLVED
   DENSITIES MADE
CI-ITERATION   0: 
 -3306.766302740   0.000000000000 (    0.00)
 -3306.766087830   0.000000000000
 -3306.765814879   0.000000000000
 -3306.765630665   0.000000000000
 -3306.765606019   0.000000000000
 -3306.765182032   0.000000000000
 -3306.764998969   0.000000000000
 -3306.764916851   0.000000000000
 -3306.764537667   0.000000000000
 -3306.744297337   0.000000000000
 -3306.744256548   0.000000000000
 -3306.743141709   0.000000000000
 -3306.732318491   0.000000000000
 -3306.731724846   0.000000000000
 -3306.730753579   0.000000000000
 -3306.730696470   0.000000000000
 -3306.729920758   0.000000000000
 -3306.671347942   0.000000000000
 -3306.671043946   0.000000000000
 -3306.670835224   0.000000000000
 -3306.670664245   0.000000000000
 -3306.670037933   0.000000000000
 -3306.669849300   0.000000000000
 -3306.669586559   0.000000000000
   CI-PROBLEM SOLVED
   DENSITIES MADE
   E(CAS)= -3306.815838909 Eh DE=   -2.264084e-05
   --- Energy gap subspaces: Ext-Act = 0.124   Act-Int = 0.067
   N(occ)=  1.00000 1.00000 1.00000 1.00000 1.00000
   ||g|| =     7.525471e-03 Max(G)=   -1.097365e-03 Rot=592,21
   --- Orbital Update [SuperCI(PT)]
   --- Canonicalize Internal Space
   --- Canonicalize External Space
   --- SX_PT (Skipped TA=0 IT=0): ||X|| =      0.002924463 Max(X)(167,159) =     -0.001323735 
   --- SFit(Active Orbitals)

MACRO-ITERATION   9: 
   --- Inactive Energy E0 = -3296.14171982 Eh
CI-ITERATION   0: 
 -3306.903790871   0.000000000000 (    0.14)
   CI-PROBLEM SOLVED
   DENSITIES MADE
CI-ITERATION   0: 
 -3306.766305950   0.000000000000 (    0.00)
 -3306.766094909   0.000000000000
 -3306.765821860   0.000000000000
 -3306.765633130   0.000000000000
 -3306.765611306   0.000000000000
 -3306.765184601   0.000000000000
 -3306.765001504   0.000000000000
 -3306.764915634   0.000000000000
 -3306.764537539   0.000000000000
 -3306.744299352   0.000000000000
 -3306.744262807   0.000000000000
 -3306.743144873   0.000000000000
 -3306.732319082   0.000000000000
 -3306.731726667   0.000000000000
 -3306.730752378   0.000000000000
 -3306.730696722   0.000000000000
 -3306.729929047   0.000000000000
 -3306.671346390   0.000000000000
 -3306.671046823   0.000000000000
 -3306.670833867   0.000000000000
 -3306.670662469   0.000000000000
 -3306.670040270   0.000000000000
 -3306.669845385   0.000000000000
 -3306.669589324   0.000000000000
   CI-PROBLEM SOLVED
   DENSITIES MADE
   E(CAS)= -3306.815845475 Eh DE=   -6.565564e-06
   --- Energy gap subspaces: Ext-Act = 0.123   Act-Int = 0.068
   N(occ)=  1.00000 1.00000 1.00000 1.00000 1.00000
   ||g|| =     4.479194e-03 Max(G)=   -6.133167e-04 Rot=167,159
   --- Orbital Update [SuperCI(PT)]
   --- Canonicalize Internal Space
   --- Canonicalize External Space
   --- SX_PT (Skipped TA=0 IT=0): ||X|| =      0.001891757 Max(X)(167,159) =      0.000864823 
   --- SFit(Active Orbitals)

MACRO-ITERATION  10: 
   --- Inactive Energy E0 = -3296.14090547 Eh
CI-ITERATION   0: 
 -3306.903795432   0.000000000000 (    0.00)
   CI-PROBLEM SOLVED
   DENSITIES MADE
CI-ITERATION   0: 
 -3306.766308591   0.000000000000 (    0.00)
 -3306.766099681   0.000000000000
 -3306.765826976   0.000000000000
 -3306.765633991   0.000000000000
 -3306.765614383   0.000000000000
 -3306.765186072   0.000000000000
 -3306.765002452   0.000000000000
 -3306.764915186   0.000000000000
 -3306.764536958   0.000000000000
 -3306.744296120   0.000000000000
 -3306.744265668   0.000000000000
 -3306.743145304   0.000000000000
 -3306.732318053   0.000000000000
 -3306.731727322   0.000000000000
 -3306.730752209   0.000000000000
 -3306.730699048   0.000000000000
 -3306.729939916   0.000000000000
 -3306.671350079   0.000000000000
 -3306.671052098   0.000000000000
 -3306.670836667   0.000000000000
 -3306.670663241   0.000000000000
 -3306.670044563   0.000000000000
 -3306.669847283   0.000000000000
 -3306.669591845   0.000000000000
   CI-PROBLEM SOLVED
   DENSITIES MADE
   E(CAS)= -3306.815848835 Eh DE=   -3.360085e-06
   --- Energy gap subspaces: Ext-Act = 0.123   Act-Int = 0.068
   N(occ)=  1.00000 1.00000 1.00000 1.00000 1.00000
   ||g|| =     3.226892e-03 Max(G)=    3.411524e-04 Rot=592,21
   --- Orbital Update [SuperCI(PT)]
   --- Canonicalize Internal Space
   --- Canonicalize External Space
   --- SX_PT (Skipped TA=0 IT=0): ||X|| =      0.001047303 Max(X)(167,159) =     -0.000451373 
   --- SFit(Active Orbitals)

MACRO-ITERATION  11: 
   --- Inactive Energy E0 = -3296.14134019 Eh
CI-ITERATION   0: 
 -3306.903790797   0.000000000000 (    0.16)
   CI-PROBLEM SOLVED
   DENSITIES MADE
CI-ITERATION   0: 
 -3306.766313124   0.000000000000 (    0.00)
 -3306.766104840   0.000000000000
 -3306.765832199   0.000000000000
 -3306.765638149   0.000000000000
 -3306.765618961   0.000000000000
 -3306.765190297   0.000000000000
 -3306.765006348   0.000000000000
 -3306.764918455   0.000000000000
 -3306.764540328   0.000000000000
 -3306.744301672   0.000000000000
 -3306.744271973   0.000000000000
 -3306.743151219   0.000000000000
 -3306.732324481   0.000000000000
 -3306.731733158   0.000000000000
 -3306.730757999   0.000000000000
 -3306.730705822   0.000000000000
 -3306.729947656   0.000000000000
 -3306.671362186   0.000000000000
 -3306.671063264   0.000000000000
 -3306.670847648   0.000000000000
 -3306.670672439   0.000000000000
 -3306.670055898   0.000000000000
 -3306.669857321   0.000000000000
 -3306.669601827   0.000000000000
   CI-PROBLEM SOLVED
   DENSITIES MADE
   E(CAS)= -3306.815849924 Eh DE=   -1.089579e-06
   --- Energy gap subspaces: Ext-Act = 0.123   Act-Int = 0.068
   N(occ)=  1.00000 1.00000 1.00000 1.00000 1.00000
   ||g|| =     1.590540e-03 Max(G)=   -1.697746e-04 Rot=167,161
   --- Orbital Update [SuperCI(PT)]
   --- Canonicalize Internal Space
   --- Canonicalize External Space
   --- SX_PT (Skipped TA=0 IT=0): ||X|| =      0.000514388 Max(X)(167,161) =      0.000205072 
   --- SFit(Active Orbitals)

MACRO-ITERATION  12: 
   --- Inactive Energy E0 = -3296.14114796 Eh
CI-ITERATION   0: 
 -3306.903789691   0.000000000000 (    0.08)
   CI-PROBLEM SOLVED
   DENSITIES MADE
CI-ITERATION   0: 
 -3306.766314418   0.000000000000 (    0.00)
 -3306.766105576   0.000000000000
 -3306.765833194   0.000000000000
 -3306.765639479   0.000000000000
 -3306.765620043   0.000000000000
 -3306.765191882   0.000000000000
 -3306.765007556   0.000000000000
 -3306.764920167   0.000000000000
 -3306.764541958   0.000000000000
 -3306.744303472   0.000000000000
 -3306.744273187   0.000000000000
 -3306.743153640   0.000000000000
 -3306.732326116   0.000000000000
 -3306.731733517   0.000000000000
 -3306.730760515   0.000000000000
 -3306.730709088   0.000000000000
 -3306.729949016   0.000000000000
 -3306.671366988   0.000000000000
 -3306.671065689   0.000000000000
 -3306.670851022   0.000000000000
 -3306.670674106   0.000000000000
 -3306.670058975   0.000000000000
 -3306.669860485   0.000000000000
 -3306.669603275   0.000000000000
   CI-PROBLEM SOLVED
   DENSITIES MADE
   E(CAS)= -3306.815850332 Eh DE=   -4.074595e-07
   --- Energy gap subspaces: Ext-Act = 0.123   Act-Int = 0.068
   N(occ)=  1.00000 1.00000 1.00000 1.00000 1.00000
   ||g|| =     7.615966e-04 Max(G)=   -9.851347e-05 Rot=592,21
                     ---- THE CAS-SCF GRADIENT HAS CONVERGED ----
                            --- FINALIZING ORBITALS ---
                    ---- DOING ONE FINAL ITERATION FOR PRINTING ----
   --- Forming Natural Orbitals
   --- Canonicalize Internal Space
   --- Canonicalize External Space

MACRO-ITERATION  13: 
   --- Inactive Energy E0 = -3296.14114796 Eh
   --- All densities will be recomputed
CI-ITERATION   0: 
 -3306.903789690   0.000000000000 (    0.08)
   CI-PROBLEM SOLVED
   DENSITIES MADE
CI-ITERATION   0: 
 -3306.766314417   0.000000000000 (    0.00)
 -3306.766105576   0.000000000000
 -3306.765833193   0.000000000000
 -3306.765639478   0.000000000000
 -3306.765620043   0.000000000000
 -3306.765191881   0.000000000000
 -3306.765007555   0.000000000000
 -3306.764920167   0.000000000000
 -3306.764541958   0.000000000000
 -3306.744303472   0.000000000000
 -3306.744273187   0.000000000000
 -3306.743153639   0.000000000000
 -3306.732326115   0.000000000000
 -3306.731733517   0.000000000000
 -3306.730760514   0.000000000000
 -3306.730709088   0.000000000000
 -3306.729949016   0.000000000000
 -3306.671366988   0.000000000000
 -3306.671065689   0.000000000000
 -3306.670851022   0.000000000000
 -3306.670674106   0.000000000000
 -3306.670058975   0.000000000000
 -3306.669860484   0.000000000000
 -3306.669603274   0.000000000000
   CI-PROBLEM SOLVED
   DENSITIES MADE
   E(CAS)= -3306.815850332 Eh DE=    3.938112e-10
   --- Energy gap subspaces: Ext-Act = 0.113   Act-Int = 0.047
   N(occ)=  1.00000 1.00000 1.00000 1.00000 1.00000
   ||g|| =     7.615966e-04 Max(G)=    1.026551e-04 Rot=592,21
--------------
CASSCF RESULTS
--------------

Final CASSCF energy       : -3306.815850332 Eh  -89983.0339 eV

----------------
ORBITAL ENERGIES
----------------

  NO   OCC          E(Eh)            E(eV) 
   0   2.0000    -240.563674     -6546.0704 
   1   2.0000     -29.143164      -793.0258 
   2   2.0000     -24.847787      -676.1427 
   3   2.0000     -24.847416      -676.1326 
   4   2.0000     -24.847107      -676.1242 
   5   2.0000      -4.731609      -128.7536 
   6   2.0000      -4.725985      -128.6006 
   7   2.0000      -4.725872      -128.5975 
   8   2.0000      -4.720682      -128.4563 
   9   2.0000      -4.717717      -128.3756 
  10   2.0000      -4.711282      -128.2005 
  11   2.0000      -4.711252      -128.1997 
  12   2.0000      -4.708844      -128.1342 
  13   2.0000      -4.708692      -128.1300 
  14   2.0000      -4.708595      -128.1274 
  15   2.0000      -4.708245      -128.1179 
  16   2.0000      -4.706625      -128.0738 
  17   2.0000      -4.706422      -128.0683 
  18   2.0000      -4.705194      -128.0348 
  19   2.0000      -4.704943      -128.0280 
  20   2.0000      -4.699487      -127.8796 
  21   2.0000      -3.847428      -104.6938 
  22   2.0000      -2.772553       -75.4450 
  23   2.0000      -2.766673       -75.2850 
  24   2.0000      -2.766408       -75.2778 
  25   2.0000      -2.763151       -75.1892 
  26   2.0000      -2.761895       -75.1550 
  27   2.0000      -2.761366       -75.1406 
  28   2.0000      -2.761121       -75.1339 
  29   2.0000      -2.759945       -75.1019 
  30   2.0000      -2.759465       -75.0889 
  31   2.0000      -2.758459       -75.0615 
  32   2.0000      -2.758058       -75.0506 
  33   2.0000      -2.757246       -75.0285 
  34   2.0000      -2.755302       -74.9756 
  35   2.0000      -2.755087       -74.9697 
  36   2.0000      -2.752168       -74.8903 
  37   2.0000      -2.750289       -74.8392 
  38   2.0000      -2.749419       -74.8155 
  39   2.0000      -2.749354       -74.8137 
  40   2.0000      -2.748656       -74.7947 
  41   2.0000      -2.748174       -74.7816 
  42   2.0000      -2.747842       -74.7726 
  43   2.0000      -2.747045       -74.7509 
  44   2.0000      -2.745924       -74.7204 
  45   2.0000      -2.745731       -74.7151 
  46   2.0000      -2.745180       -74.7002 
  47   2.0000      -2.745116       -74.6984 
  48   2.0000      -2.744671       -74.6863 
  49   2.0000      -2.744262       -74.6752 
  50   2.0000      -2.743966       -74.6671 
  51   2.0000      -2.743422       -74.6523 
  52   2.0000      -2.742422       -74.6251 
  53   2.0000      -2.742218       -74.6195 
  54   2.0000      -2.741930       -74.6117 
  55   2.0000      -2.741781       -74.6077 
  56   2.0000      -2.741531       -74.6008 
  57   2.0000      -2.741122       -74.5897 
  58   2.0000      -2.740974       -74.5857 
  59   2.0000      -2.740323       -74.5680 
  60   2.0000      -2.739716       -74.5515 
  61   2.0000      -2.739574       -74.5476 
  62   2.0000      -2.739180       -74.5369 
  63   2.0000      -2.739082       -74.5342 
  64   2.0000      -2.738751       -74.5252 
  65   2.0000      -2.738477       -74.5177 
  66   2.0000      -2.737097       -74.4802 
  67   2.0000      -2.735894       -74.4475 
  68   2.0000      -2.735049       -74.4245 
  69   2.0000      -2.732537       -74.3561 
  70   2.0000      -2.514277       -68.4170 
  71   2.0000      -2.513744       -68.4024 
  72   2.0000      -2.512966       -68.3813 
  73   2.0000      -0.576014       -15.6741 
  74   2.0000      -0.559773       -15.2322 
  75   2.0000      -0.559509       -15.2250 
  76   2.0000      -0.556099       -15.1322 
  77   2.0000      -0.555242       -15.1089 
  78   2.0000      -0.549544       -14.9539 
  79   2.0000      -0.547447       -14.8968 
  80   2.0000      -0.544006       -14.8031 
  81   2.0000      -0.541424       -14.7329 
  82   2.0000      -0.540449       -14.7064 
  83   2.0000      -0.540225       -14.7003 
  84   2.0000      -0.540102       -14.6969 
  85   2.0000      -0.538247       -14.6464 
  86   2.0000      -0.537025       -14.6132 
  87   2.0000      -0.532810       -14.4985 
  88   2.0000      -0.532080       -14.4786 
  89   2.0000      -0.531498       -14.4628 
  90   2.0000      -0.529879       -14.4187 
  91   2.0000      -0.527549       -14.3553 
  92   2.0000      -0.526643       -14.3307 
  93   2.0000      -0.526052       -14.3146 
  94   2.0000      -0.524575       -14.2744 
  95   2.0000      -0.524208       -14.2644 
  96   2.0000      -0.522399       -14.2152 
  97   2.0000      -0.520571       -14.1655 
  98   2.0000      -0.516218       -14.0470 
  99   2.0000      -0.515274       -14.0213 
 100   2.0000      -0.509784       -13.8719 
 101   2.0000      -0.509541       -13.8653 
 102   2.0000      -0.505269       -13.7491 
 103   2.0000      -0.503966       -13.7136 
 104   2.0000      -0.498112       -13.5543 
 105   2.0000      -0.497440       -13.5360 
 106   2.0000      -0.495706       -13.4888 
 107   2.0000      -0.495376       -13.4799 
 108   2.0000      -0.492489       -13.4013 
 109   2.0000      -0.489035       -13.3073 
 110   2.0000      -0.485377       -13.2078 
 111   2.0000      -0.484421       -13.1818 
 112   2.0000      -0.480385       -13.0719 
 113   2.0000      -0.477177       -12.9846 
 114   2.0000      -0.475416       -12.9367 
 115   2.0000      -0.470987       -12.8162 
 116   2.0000      -0.470397       -12.8002 
 117   2.0000      -0.468679       -12.7534 
 118   2.0000      -0.467420       -12.7191 
 119   2.0000      -0.467208       -12.7134 
 120   2.0000      -0.465482       -12.6664 
 121   2.0000      -0.461160       -12.5488 
 122   2.0000      -0.460567       -12.5327 
 123   2.0000      -0.460083       -12.5195 
 124   2.0000      -0.459681       -12.5086 
 125   2.0000      -0.454913       -12.3788 
 126   2.0000      -0.453606       -12.3433 
 127   2.0000      -0.449601       -12.2343 
 128   2.0000      -0.447478       -12.1765 
 129   2.0000      -0.446870       -12.1599 
 130   2.0000      -0.442572       -12.0430 
 131   2.0000      -0.442200       -12.0329 
 132   2.0000      -0.440433       -11.9848 
 133   2.0000      -0.438487       -11.9318 
 134   2.0000      -0.436115       -11.8673 
 135   2.0000      -0.431648       -11.7457 
 136   2.0000      -0.430580       -11.7167 
 137   2.0000      -0.429559       -11.6889 
 138   2.0000      -0.429434       -11.6855 
 139   2.0000      -0.426497       -11.6056 
 140   2.0000      -0.426237       -11.5985 
 141   2.0000      -0.423690       -11.5292 
 142   2.0000      -0.422095       -11.4858 
 143   2.0000      -0.419092       -11.4041 
 144   2.0000      -0.418512       -11.3883 
 145   2.0000      -0.413391       -11.2489 
 146   2.0000      -0.411480       -11.1970 
 147   2.0000      -0.410916       -11.1816 
 148   2.0000      -0.409740       -11.1496 
 149   2.0000      -0.407975       -11.1016 
 150   2.0000      -0.400666       -10.9027 
 151   2.0000      -0.396619       -10.7926 
 152   2.0000      -0.395804       -10.7704 
 153   2.0000      -0.389954       -10.6112 
 154   2.0000      -0.383939       -10.4475 
 155   2.0000      -0.364865        -9.9285 
 156   2.0000      -0.364801        -9.9267 
 157   2.0000      -0.280925        -7.6444 
 158   2.0000      -0.255349        -6.9484 
 159   2.0000      -0.247499        -6.7348 
 160   2.0000      -0.227024        -6.1776 
 161   2.0000      -0.216364        -5.8876 
 162   1.0000      -0.166337        -4.5263 
 163   1.0000      -0.169474        -4.6116 
 164   1.0000      -0.161747        -4.4014 
 165   1.0000      -0.167537        -4.5589 
 166   1.0000      -0.166562        -4.5324 
 167   0.0000      -0.048443        -1.3182 
 168   0.0000      -0.009811        -0.2670 
 169   0.0000      -0.007574        -0.2061 
 170   0.0000      -0.002619        -0.0713 
 171   0.0000       0.001665         0.0453 
 172   0.0000       0.006022         0.1639 
 173   0.0000       0.008274         0.2251 
 174   0.0000       0.009747         0.2652 
 175   0.0000       0.019173         0.5217 
 176   0.0000       0.041789         1.1371 
 177   0.0000       0.042670         1.1611 
 178   0.0000       0.058082         1.5805 
 179   0.0000       0.074530         2.0281 
 180   0.0000       0.078200         2.1279 
 181   0.0000       0.095045         2.5863 
 182   0.0000       0.099429         2.7056 
 183   0.0000       0.103670         2.8210 
 184   0.0000       0.104061         2.8316 
 185   0.0000       0.108101         2.9416 
 186   0.0000       0.108852         2.9620 
 187   0.0000       0.109449         2.9783 
 188   0.0000       0.113387         3.0854 
 189   0.0000       0.118769         3.2319 
 190   0.0000       0.124590         3.3903 
 191   0.0000       0.125873         3.4252 
 192   0.0000       0.128249         3.4898 
 193   0.0000       0.138369         3.7652 
 194   0.0000       0.143491         3.9046 
 195   0.0000       0.147455         4.0124 
 196   0.0000       0.149829         4.0770 
 197   0.0000       0.153861         4.1868 
 198   0.0000       0.158032         4.3003 
 199   0.0000       0.160636         4.3711 
 200   0.0000       0.163692         4.4543 
 201   0.0000       0.171599         4.6694 
 202   0.0000       0.181907         4.9499 
 203   0.0000       0.182180         4.9574 
 204   0.0000       0.185247         5.0408 
 205   0.0000       0.186608         5.0779 
 206   0.0000       0.187993         5.1156 
 207   0.0000       0.190723         5.1898 
 208   0.0000       0.192665         5.2427 
 209   0.0000       0.194067         5.2808 
 210   0.0000       0.196512         5.3474 
 211   0.0000       0.199291         5.4230 
 212   0.0000       0.201775         5.4906 
 213   0.0000       0.218552         5.9471 
 214   0.0000       0.222395         6.0517 
 215   0.0000       0.227779         6.1982 
 216   0.0000       0.236054         6.4234 
 217   0.0000       0.240158         6.5350 
 218   0.0000       0.240783         6.5520 
 219   0.0000       0.244075         6.6416 
 220   0.0000       0.245113         6.6699 
 221   0.0000       0.255856         6.9622 
 222   0.0000       0.260741         7.0951 
 223   0.0000       0.261795         7.1238 
 224   0.0000       0.283770         7.7218 
 225   0.0000       0.294118         8.0034 
 226   0.0000       0.295247         8.0341 
 227   0.0000       0.310511         8.4494 
 228   0.0000       0.317409         8.6371 
 229   0.0000       0.321581         8.7507 
 230   0.0000       0.338382         9.2078 
 231   0.0000       0.344145         9.3647 
 232   0.0000       0.345455         9.4003 
 233   0.0000       0.354106         9.6357 
 234   0.0000       0.359240         9.7754 
 235   0.0000       0.365223         9.9382 
 236   0.0000       0.366707         9.9786 
 237   0.0000       0.378416        10.2972 
 238   0.0000       0.383073        10.4239 
 239   0.0000       0.387420        10.5422 
 240   0.0000       0.393655        10.7119 
 241   0.0000       0.402440        10.9510 
 242   0.0000       0.403261        10.9733 
 243   0.0000       0.406723        11.0675 
 244   0.0000       0.415446        11.3048 
 245   0.0000       0.418162        11.3788 
 246   0.0000       0.420600        11.4451 
 247   0.0000       0.428817        11.6687 
 248   0.0000       0.432006        11.7555 
 249   0.0000       0.434989        11.8366 
 250   0.0000       0.445975        12.1356 
 251   0.0000       0.447196        12.1688 
 252   0.0000       0.447245        12.1702 
 253   0.0000       0.461556        12.5596 
 254   0.0000       0.463793        12.6204 
 255   0.0000       0.475437        12.9373 
 256   0.0000       0.476253        12.9595 
 257   0.0000       0.488201        13.2846 
 258   0.0000       0.490180        13.3385 
 259   0.0000       0.490454        13.3459 
 260   0.0000       0.496965        13.5231 
 261   0.0000       0.500486        13.6189 
 262   0.0000       0.504295        13.7226 
 263   0.0000       0.506518        13.7831 
 264   0.0000       0.511526        13.9193 
 265   0.0000       0.512689        13.9510 
 266   0.0000       0.513855        13.9827 
 267   0.0000       0.516554        14.0561 
 268   0.0000       0.522666        14.2225 
 269   0.0000       0.533035        14.5046 
 270   0.0000       0.534161        14.5353 
 271   0.0000       0.536160        14.5897 
 272   0.0000       0.537484        14.6257 
 273   0.0000       0.540893        14.7184 
 274   0.0000       0.544077        14.8051 
 275   0.0000       0.547793        14.9062 
 276   0.0000       0.555063        15.1040 
 277   0.0000       0.559275        15.2186 
 278   0.0000       0.560156        15.2426 
 279   0.0000       0.571407        15.5488 
 280   0.0000       0.575723        15.6662 
 281   0.0000       0.577564        15.7163 
 282   0.0000       0.579163        15.7598 
 283   0.0000       0.582180        15.8419 
 284   0.0000       0.586499        15.9594 
 285   0.0000       0.594542        16.1783 
 286   0.0000       0.595548        16.2057 
 287   0.0000       0.596910        16.2427 
 288   0.0000       0.603953        16.4344 
 289   0.0000       0.604858        16.4590 
 290   0.0000       0.607297        16.5254 
 291   0.0000       0.609946        16.5975 
 292   0.0000       0.620807        16.8930 
 293   0.0000       0.623453        16.9650 
 294   0.0000       0.632444        17.2097 
 295   0.0000       0.644897        17.5485 
 296   0.0000       0.645645        17.5689 
 297   0.0000       0.646317        17.5872 
 298   0.0000       0.650654        17.7052 
 299   0.0000       0.655357        17.8332 
 300   0.0000       0.661706        18.0059 
 301   0.0000       0.669490        18.2177 
 302   0.0000       0.671421        18.2703 
 303   0.0000       0.672859        18.3094 
 304   0.0000       0.673981        18.3400 
 305   0.0000       0.677109        18.4251 
 306   0.0000       0.680009        18.5040 
 307   0.0000       0.690511        18.7898 
 308   0.0000       0.691450        18.8153 
 309   0.0000       0.698325        19.0024 
 310   0.0000       0.699227        19.0269 
 311   0.0000       0.702717        19.1219 
 312   0.0000       0.710593        19.3362 
 313   0.0000       0.712912        19.3993 
 314   0.0000       0.716434        19.4952 
 315   0.0000       0.726876        19.7793 
 316   0.0000       0.735307        20.0087 
 317   0.0000       0.741682        20.1822 
 318   0.0000       0.742545        20.2057 
 319   0.0000       0.749976        20.4079 
 320   0.0000       0.759461        20.6660 
 321   0.0000       0.762756        20.7556 
 322   0.0000       0.766548        20.8588 
 323   0.0000       0.770185        20.9578 
 324   0.0000       0.781949        21.2779 
 325   0.0000       0.787197        21.4207 
 326   0.0000       0.818983        22.2857 
 327   0.0000       0.830146        22.5894 
 328   0.0000       0.919932        25.0326 
 329   0.0000       0.928281        25.2598 
 330   0.0000       0.931425        25.3454 
 331   0.0000       0.936494        25.4833 
 332   0.0000       0.955554        26.0020 
 333   0.0000       0.979100        26.6427 
 334   0.0000       0.994448        27.0603 
 335   0.0000       0.998672        27.1752 
 336   0.0000       1.000987        27.2382 
 337   0.0000       1.015997        27.6467 
 338   0.0000       1.020740        27.7757 
 339   0.0000       1.025119        27.8949 
 340   0.0000       1.027903        27.9707 
 341   0.0000       1.031726        28.0747 
 342   0.0000       1.045059        28.4375 
 343   0.0000       1.054241        28.6874 
 344   0.0000       1.059282        28.8245 
 345   0.0000       1.077560        29.3219 
 346   0.0000       1.083545        29.4847 
 347   0.0000       1.095709        29.8158 
 348   0.0000       1.097354        29.8605 
 349   0.0000       1.098999        29.9053 
 350   0.0000       1.105564        30.0839 
 351   0.0000       1.121067        30.5058 
 352   0.0000       1.124515        30.5996 
 353   0.0000       1.128455        30.7068 
 354   0.0000       1.145298        31.1651 
 355   0.0000       1.153485        31.3879 
 356   0.0000       1.157184        31.4886 
 357   0.0000       1.177957        32.0538 
 358   0.0000       1.181815        32.1588 
 359   0.0000       1.188873        32.3509 
 360   0.0000       1.193041        32.4643 
 361   0.0000       1.202942        32.7337 
 362   0.0000       1.205867        32.8133 
 363   0.0000       1.210273        32.9332 
 364   0.0000       1.223453        33.2918 
 365   0.0000       1.235078        33.6082 
 366   0.0000       1.236518        33.6474 
 367   0.0000       1.238961        33.7139 
 368   0.0000       1.242940        33.8221 
 369   0.0000       1.245278        33.8857 
 370   0.0000       1.250317        34.0228 
 371   0.0000       1.256004        34.1776 
 372   0.0000       1.290156        35.1069 
 373   0.0000       1.290796        35.1243 
 374   0.0000       1.309442        35.6317 
 375   0.0000       1.333348        36.2822 
 376   0.0000       1.334097        36.3026 
 377   0.0000       1.335929        36.3525 
 378   0.0000       1.371980        37.3335 
 379   0.0000       1.386157        37.7192 
 380   0.0000       1.423157        38.7261 
 381   0.0000       1.538218        41.8571 
 382   0.0000       1.548328        42.1321 
 383   0.0000       1.552138        42.2358 
 384   0.0000       1.582568        43.0639 
 385   0.0000       1.592436        43.3324 
 386   0.0000       1.613450        43.9042 
 387   0.0000       1.628317        44.3088 
 388   0.0000       1.634661        44.4814 
 389   0.0000       1.635799        44.5123 
 390   0.0000       1.647424        44.8287 
 391   0.0000       1.653078        44.9825 
 392   0.0000       1.655710        45.0542 
[...]
      f-2     :     0.000954
      f+3     :     0.000664
      f-3     :     0.000684
 12 Aus       :     2.517527  s :     2.517527
      pz      :     2.148356  p :     6.429888
      px      :     2.155515
      py      :     2.126018
      dz2     :     1.994857  d :     9.999429
      dxz     :     1.991354
      dyz     :     2.011778
      dx2y2   :     2.011809
      dxy     :     1.989631
      f0      :     0.000579  f :     0.004599
      f+1     :     0.000519
      f-1     :     0.000532
      f+2     :     0.000758
      f-2     :     0.000743
      f+3     :     0.000778
      f-3     :     0.000690
 13 Aus       :     2.351439  s :     2.351439
      pz      :     2.121086  p :     6.675260
      px      :     2.310545
      py      :     2.243629
      dz2     :     2.010598  d :    10.076211
      dxz     :     2.009388
      dyz     :     2.016060
      dx2y2   :     2.019748
      dxy     :     2.020418
      f0      :     0.000627  f :     0.005693
      f+1     :     0.000613
      f-1     :     0.000559
      f+2     :     0.000927
      f-2     :     0.000698
      f+3     :     0.001077
      f-3     :     0.001192
 14 Aus       :     2.526694  s :     2.526694
      pz      :     2.149177  p :     6.480164
      px      :     2.144437
      py      :     2.186550
      dz2     :     2.005777  d :     9.999765
      dxz     :     1.997144
      dyz     :     2.005255
      dx2y2   :     2.004150
      dxy     :     1.987438
      f0      :     0.000874  f :     0.004712
      f+1     :     0.000503
      f-1     :     0.000544
      f+2     :     0.000573
      f-2     :     0.000585
      f+3     :     0.000859
      f-3     :     0.000774
 15 Aus       :     2.533439  s :     2.533439
      pz      :     2.141471  p :     6.412686
      px      :     2.087543
      py      :     2.183672
      dz2     :     1.998406  d :     9.999589
      dxz     :     1.997583
      dyz     :     1.999844
      dx2y2   :     1.998979
      dxy     :     2.004778
      f0      :     0.000825  f :     0.004410
      f+1     :     0.000666
      f-1     :     0.000488
      f+2     :     0.000692
      f-2     :     0.000530
      f+3     :     0.000579
      f-3     :     0.000631
 16 Mns       :     6.404998  s :     6.404998
      pz      :     4.295659  p :    12.622954
      px      :     4.221741
      py      :     4.105554
      dz2     :     1.198443  d :     5.651891
      dxz     :     1.157961
      dyz     :     1.100744
      dx2y2   :     1.082668
      dxy     :     1.112076
      f0      :     0.000185  f :     0.000803
      f+1     :     0.000168
      f-1     :     0.000101
      f+2     :     0.000095
      f-2     :     0.000111
      f+3     :     0.000057
      f-3     :     0.000086

SPIN
  0 Aus       :     0.000591  s :     0.000591
      pz      :     0.000238  p :     0.002398
      px      :     0.000375
      py      :     0.001786
      dz2     :     0.001344  d :     0.009337
      dxz     :     0.001180
      dyz     :     0.004098
      dx2y2   :     0.001572
      dxy     :     0.001144
      f0      :     0.000019  f :     0.000170
      f+1     :     0.000007
      f-1     :     0.000033
      f+2     :     0.000049
      f-2     :     0.000033
      f+3     :     0.000013
      f-3     :     0.000016
  1 Aus       :     0.000348  s :     0.000348
      pz      :     0.000094  p :     0.000796
      px      :     0.000612
      py      :     0.000090
      dz2     :     0.000011  d :     0.000275
      dxz     :     0.000027
      dyz     :     0.000045
      dx2y2   :     0.000135
      dxy     :     0.000057
      f0      :     0.000000  f :     0.000002
      f+1     :     0.000000
      f-1     :     0.000000
      f+2     :     0.000000
      f-2     :     0.000000
      f+3     :     0.000000
      f-3     :     0.000001
  2 Aus       :     0.000817  s :     0.000817
      pz      :     0.000295  p :     0.000758
      px      :     0.000194
      py      :     0.000269
      dz2     :     0.000026  d :     0.000286
      dxz     :     0.000052
      dyz     :     0.000073
      dx2y2   :     0.000086
      dxy     :     0.000049
      f0      :     0.000001  f :     0.000004
      f+1     :     0.000001
      f-1     :     0.000000
      f+2     :     0.000001
      f-2     :     0.000001
      f+3     :     0.000000
      f-3     :     0.000000
  3 Aus       :     0.001540  s :     0.001540
      pz      :     0.000717  p :     0.002167
      px      :     0.001004
      py      :     0.000445
      dz2     :     0.004295  d :     0.011608
      dxz     :     0.003747
      dyz     :     0.002769
      dx2y2   :     0.000297
      dxy     :     0.000500
      f0      :     0.000117  f :     0.000265
      f+1     :     0.000077
      f-1     :     0.000047
      f+2     :     0.000011
      f-2     :     0.000011
      f+3     :     0.000001
      f-3     :     0.000000
  4 Aus       :     0.000594  s :     0.000594
      pz      :     0.000150  p :     0.002413
      px      :     0.000998
      py      :     0.001265
      dz2     :     0.000951  d :     0.009419
      dxz     :     0.002591
      dyz     :     0.001447
      dx2y2   :     0.002414
      dxy     :     0.002016
      f0      :     0.000025  f :     0.000173
      f+1     :     0.000015
      f-1     :     0.000008
      f+2     :     0.000017
      f-2     :     0.000037
      f+3     :     0.000024
      f-3     :     0.000045
  5 Aus       :     0.000516  s :     0.000516
      pz      :     0.000330  p :     0.001844
      px      :     0.000811
      py      :     0.000703
      dz2     :     0.001889  d :     0.011195
      dxz     :     0.002104
      dyz     :     0.001817
      dx2y2   :     0.003179
      dxy     :     0.002206
      f0      :     0.000024  f :     0.000202
      f+1     :     0.000026
      f-1     :     0.000007
      f+2     :     0.000015
      f-2     :     0.000045
      f+3     :     0.000030
      f-3     :     0.000054
  6 Aus       :     0.000749  s :     0.000749
      pz      :     0.001207  p :     0.001952
      px      :     0.000398
      py      :     0.000347
      dz2     :     0.004697  d :     0.012948
      dxz     :     0.003691
      dyz     :     0.003426
      dx2y2   :     0.000531
      dxy     :     0.000604
      f0      :     0.000105  f :     0.000330
      f+1     :     0.000100
      f-1     :     0.000071
      f+2     :     0.000019
      f-2     :     0.000031
      f+3     :     0.000003
      f-3     :     0.000001
  7 Aus       :     0.000417  s :     0.000417
      pz      :     0.000158  p :     0.000772
      px      :     0.000162
      py      :     0.000452
      dz2     :     0.000031  d :     0.000215
      dxz     :     0.000008
      dyz     :     0.000075
      dx2y2   :     0.000079
      dxy     :     0.000022
      f0      :     0.000000  f :     0.000002
      f+1     :     0.000000
      f-1     :     0.000000
      f+2     :     0.000001
      f-2     :     0.000000
      f+3     :     0.000000
      f-3     :     0.000000
  8 Aus       :     0.000813  s :     0.000813
      pz      :     0.000413  p :     0.000756
      px      :     0.000020
      py      :     0.000322
      dz2     :     0.000083  d :     0.000282
      dxz     :     0.000023
      dyz     :     0.000081
      dx2y2   :     0.000039
      dxy     :     0.000055
      f0      :     0.000001  f :     0.000005
      f+1     :     0.000001
      f-1     :     0.000001
      f+2     :     0.000000
      f-2     :     0.000001
      f+3     :     0.000000
      f-3     :     0.000000
  9 Aus       :     0.000478  s :     0.000478
      pz      :     0.000085  p :     0.000839
      px      :     0.000680
      py      :     0.000075
      dz2     :     0.000084  d :     0.000284
      dxz     :     0.000052
      dyz     :     0.000042
      dx2y2   :     0.000055
      dxy     :     0.000051
      f0      :     0.000001  f :     0.000003
      f+1     :     0.000001
      f-1     :     0.000000
      f+2     :     0.000001
      f-2     :     0.000000
      f+3     :     0.000000
      f-3     :     0.000000
 10 Aus       :     0.000507  s :     0.000507
      pz      :     0.000745  p :     0.001851
      px      :     0.000704
      py      :     0.000402
      dz2     :     0.002873  d :     0.011230
      dxz     :     0.004096
      dyz     :     0.001566
      dx2y2   :     0.001303
      dxy     :     0.001392
      f0      :     0.000020  f :     0.000205
      f+1     :     0.000068
      f-1     :     0.000014
      f+2     :     0.000053
      f-2     :     0.000033
      f+3     :     0.000010
      f-3     :     0.000008
 11 Aus       :     0.000269  s :     0.000269
      pz      :     0.000260  p :     0.000486
      px      :     0.000178
      py      :     0.000048
      dz2     :     0.000019  d :     0.000125
      dxz     :     0.000025
      dyz     :     0.000063
      dx2y2   :     0.000007
      dxy     :     0.000012
      f0      :     0.000000  f :     0.000001
      f+1     :     0.000000
      f-1     :     0.000000
      f+2     :     0.000000
      f-2     :     0.000000
      f+3     :     0.000000
      f-3     :     0.000000
 12 Aus       :     0.000266  s :     0.000266
      pz      :     0.000157  p :     0.000493
      px      :     0.000208
      py      :     0.000128
      dz2     :     0.000014  d :     0.000125
      dxz     :     0.000020
      dyz     :     0.000061
      dx2y2   :     0.000014
      dxy     :     0.000016
      f0      :     0.000000  f :     0.000001
      f+1     :     0.000000
      f-1     :     0.000000
      f+2     :     0.000000
      f-2     :     0.000000
      f+3     :     0.000000
      f-3     :     0.000000
 13 Aus       :     0.000257  s :     0.000257
      pz      :     0.000060  p :     0.000162
      px      :     0.000087
      py      :     0.000015
      dz2     :     0.000019  d :     0.000384
      dxz     :     0.000049
      dyz     :     0.000050
      dx2y2   :     0.000134
      dxy     :     0.000131
      f0      :     0.000000  f :     0.000001
      f+1     :     0.000000
      f-1     :     0.000000
      f+2     :     0.000000
      f-2     :     0.000000
      f+3     :     0.000000
      f-3     :     0.000000
 14 Aus       :     0.000479  s :     0.000479
      pz      :     0.000346  p :     0.000841
      px      :     0.000287
      py      :     0.000209
      dz2     :     0.000116  d :     0.000283
      dxz     :     0.000036
      dyz     :     0.000066
      dx2y2   :     0.000019
      dxy     :     0.000046
      f0      :     0.000000  f :     0.000003
      f+1     :     0.000001
      f-1     :     0.000000
      f+2     :     0.000000
      f-2     :     0.000001
      f+3     :     0.000001
      f-3     :     0.000000
 15 Aus       :     0.000392  s :     0.000392
      pz      :     0.000293  p :     0.000771
      px      :     0.000121
      py      :     0.000357
      dz2     :     0.000009  d :     0.000211
      dxz     :     0.000042
      dyz     :     0.000065
      dx2y2   :     0.000079
      dxy     :     0.000016
      f0      :     0.000000  f :     0.000002
      f+1     :     0.000000
      f-1     :     0.000000
      f+2     :     0.000000
      f-2     :     0.000000
      f+3     :     0.000000
      f-3     :     0.000000
 16 Mns       :     0.004019  s :     0.004019
      pz      :     0.000705  p :     0.003829
      px      :     0.002170
      py      :     0.000953
      dz2     :     0.769641  d :     3.894238
      dxz     :     0.773835
      dyz     :     0.782160
      dx2y2   :     0.786439
      dxy     :     0.782163
      f0      :     0.000001  f :     0.000004
      f+1     :     0.000001
      f-1     :     0.000000
      f+2     :     0.000000
      f-2     :     0.000001
      f+3     :     0.000000
      f-3     :     0.000001


                      *****************************
                      * MAYER POPULATION ANALYSIS *
                      *****************************

  NA   - Mulliken gross atomic population
  ZA   - Total nuclear charge
  QA   - Mulliken gross atomic charge
  VA   - Mayer's total valence
  BVA  - Mayer's bonded valence
  FA   - Mayer's free valence

  ATOM       NA         ZA         QA         VA         BVA        FA
  0 Au    19.0736    19.0000    -0.0736     1.8557     1.8523     0.0034
  1 Au    19.4377    19.0000    -0.4377     1.6358     1.6351     0.0006
  2 Au    18.9125    19.0000     0.0875     1.5553     1.5543     0.0010
  3 Au    18.5934    19.0000     0.4066     1.1687     1.1640     0.0048
  4 Au    19.0769    19.0000    -0.0769     1.8558     1.8523     0.0034
  5 Au    19.1606    19.0000    -0.1606     1.4961     1.4926     0.0036
  6 Au    18.7490    19.0000     0.2510     1.3602     1.3551     0.0051
  7 Au    18.7374    19.0000     0.2626     1.4050     1.4045     0.0004
  8 Au    18.8995    19.0000     0.1005     1.5443     1.5434     0.0009
  9 Au    18.9175    19.0000     0.0825     1.5411     1.5406     0.0006
 10 Au    19.1716    19.0000    -0.1716     1.5073     1.5037     0.0036
 11 Au    18.7694    19.0000     0.2306     1.4220     1.4217     0.0003
 12 Au    18.7761    19.0000     0.2239     1.4249     1.4246     0.0003
 13 Au    19.8605    19.0000    -0.8605     2.6182     2.6180     0.0003
 14 Au    18.9308    19.0000     0.0692     1.5528     1.5522     0.0006
 15 Au    18.7309    19.0000     0.2691     1.3929     1.3925     0.0004
 16 Mn    25.2027    25.0000    -0.2027     7.5797     2.7114     4.8683

  Mayer bond orders larger than 0.100000
B(  0-Au,  1-Au) :   0.2976 B(  0-Au,  2-Au) :   0.4047 B(  0-Au,  3-Au) :   0.2940 
B(  0-Au,  4-Au) :   0.1723 B(  0-Au,  5-Au) :   0.1596 B(  0-Au, 16-Mn) :   0.3612 
B(  1-Au,  2-Au) :   0.1927 B(  1-Au,  4-Au) :   0.3053 B(  1-Au,  8-Au) :   0.1915 
B(  1-Au, 11-Au) :   0.2211 B(  1-Au, 12-Au) :   0.2217 B(  2-Au,  5-Au) :   0.2571 
B(  2-Au, 11-Au) :   0.2042 B(  2-Au, 15-Au) :   0.2328 B(  3-Au,  4-Au) :   0.2945 
B(  3-Au, 16-Mn) :   0.4637 B(  4-Au,  8-Au) :   0.4016 B(  4-Au, 10-Au) :   0.1520 
B(  4-Au, 16-Mn) :   0.3627 B(  5-Au,  6-Au) :   0.1585 B(  5-Au, 14-Au) :   0.2450 
B(  5-Au, 15-Au) :   0.1399 B(  5-Au, 16-Mn) :   0.4198 B(  6-Au,  9-Au) :   0.1828 
B(  6-Au, 10-Au) :   0.1629 B(  6-Au, 14-Au) :   0.1839 B(  6-Au, 16-Mn) :   0.4690 
B(  7-Au,  8-Au) :   0.2311 B(  7-Au,  9-Au) :   0.2741 B(  7-Au, 10-Au) :   0.1530 
B(  7-Au, 12-Au) :   0.1983 B(  7-Au, 13-Au) :   0.3554 B(  8-Au, 10-Au) :   0.2597 
B(  8-Au, 12-Au) :   0.2054 B(  9-Au, 10-Au) :   0.2375 B(  9-Au, 13-Au) :   0.4043 
B(  9-Au, 14-Au) :   0.2750 B( 10-Au, 16-Mn) :   0.4216 B( 11-Au, 12-Au) :   0.2839 
B( 11-Au, 13-Au) :   0.3573 B( 11-Au, 15-Au) :   0.1950 B( 12-Au, 13-Au) :   0.3556 
B( 13-Au, 14-Au) :   0.4046 B( 13-Au, 15-Au) :   0.3550 B( 14-Au, 15-Au) :   0.2759 



-------------------------------------------------------------
 Forming the transition density       ... done in 0.017200 sec
-------------------------------------------------------------



==========================================
CASSCF UV, CD spectra and dipole moments
==========================================
-------------------
ABSORPTION SPECTRUM
-------------------

Center of mass           = ( 12.8280, 15.8524, 14.2535)
Nuclear contribution to the dipole moment =     5.384194,  -87.968505,   50.737332 au

Calculating the Dipole integrals                  ... done
Transforming integrals                            ... done
Calculating the Linear Momentum integrals         ... done
Transforming integrals                            ... done
Calculating the Angular Momentum integrals        ... done
Transforming integrals                            ... done

------------------------------------------------------------------------------
                                 DIPOLE MOMENTS
------------------------------------------------------------------------------
  Root  Block           TX        TY        TZ           |T|
                      (Debye)   (Debye)   (Debye)      (Debye)
------------------------------------------------------------------------------
    0    0           -0.15767  -1.55484   1.85879      2.42847

--------------
CASSCF TIMINGS
--------------

Total time                       ...     2718.7 sec
Sum of individual times          ...     2309.8 sec ( 85.0%)

Calculation of AO operators
   F(Core) operator              ...      711.2 sec ( 26.2%)
   G(Act) operator               ...      518.9 sec ( 19.1%)
   J(AO) operators               ...        0.0 sec (  0.0%)
Calculation of MO transformed quantities
   J(MO) operators               ...      988.9 sec ( 36.4%)
   (pq|rs) integrals             ...        0.0 sec (  0.0%)
   AO->MO one electron integrals ...        1.9 sec (  0.1%)
Configuration interaction steps
   CI-setup phase                ...        0.0 sec (  0.0%)
   CI-solution phase             ...       78.2 sec (  2.9%)
   Generation of densities       ...        0.0 sec (  0.0%)
Orbital improvement steps
   Orbital gradient              ...        2.2 sec (  0.1%)
   O(1) converger                ...        8.6 sec (  0.3%)
Properties                       ...        0.0 sec (  0.0%)
   SOC integral calculation      ...        0.0 sec (  0.0%)
   SSC RMEs (incl. integrals)    ...        0.0 sec (  0.0%)
   SOC RMEs                      ...        0.0 sec (  0.0%)

Maximum memory used throughout the entire CASSCF-calculation: 367.3 MB

-------------------------   --------------------
FINAL SINGLE POINT ENERGY     -3306.815850331513
-------------------------   --------------------


                            ***************************************
                            *     ORCA property calculations      *
                            ***************************************

                                    ---------------------
                                    Active property flags
                                    ---------------------
   (+) Dipole Moment


------------------------------------------------------------------------------
                       ORCA ELECTRIC PROPERTIES CALCULATION
------------------------------------------------------------------------------

Dipole Moment Calculation                       ... on
Quadrupole Moment Calculation                   ... off
Polarizability Calculation                      ... off
GBWName                                         ... casscf.gbw
Electron density                                ... casscf.scfp
The origin for moment calculation is the CENTER OF MASS  = (12.827976, 15.852381 14.253463)

-------------
DIPOLE MOMENT
-------------
                                X             Y             Z
Electronic contribution:     -5.44622      87.35680     -50.00604
Nuclear contribution   :      5.38419     -87.96850      50.73733
                        -----------------------------------------
Total Dipole Moment    :     -0.06203      -0.61171       0.73129
                        -----------------------------------------
Magnitude (a.u.)       :      0.95541
Magnitude (Debye)      :      2.42847



--------------------
Rotational spectrum 
--------------------
 
Rotational constants in cm-1:     0.000876     0.000748     0.000731 
Rotational constants in MHz :    26.268852    22.437778    21.909043 

 Dipole components along the rotational axes: 
x,y,z [a.u.] :     0.926056    -0.009631     0.234828 
x,y,z [Debye]:     2.353848    -0.024481     0.596885 

 

Timings for individual modules:

Sum of individual times         ...     2785.317 sec (=  46.422 min)
GTO integral calculation        ...       18.231 sec (=   0.304 min)   0.7 %
SCF iterations                  ...       43.418 sec (=   0.724 min)   1.6 %
CASSCF iterations               ...     2723.669 sec (=  45.394 min)  97.8 %
                             ****ORCA TERMINATED NORMALLY****
TOTAL RUN TIME: 0 days 0 hours 46 minutes 28 seconds 156 msec
