
                                 *****************
                                 * O   R   C   A *
                                 *****************

                                            #,                                       
                                            ###                                      
                                            ####                                     
                                            #####                                    
                                            ######                                   
                                           ########,                                 
                                     ,,################,,,,,                         
                               ,,#################################,,                 
                          ,,##########################################,,             
                       ,#########################################, ''#####,          
                    ,#############################################,,   '####,        
                  ,##################################################,,,,####,       
                ,###########''''           ''''###############################       
              ,#####''   ,,,,##########,,,,          '''####'''          '####       
            ,##' ,,,,###########################,,,                        '##       
           ' ,,###''''                  '''############,,,                           
         ,,##''                                '''############,,,,        ,,,,,,###''
      ,#''                                            '''#######################'''  
     '                                                          ''''####''''         
             ,#######,   #######,   ,#######,      ##                                
            ,#'     '#,  ##    ##  ,#'     '#,    #''#        ######   ,####,        
            ##       ##  ##   ,#'  ##            #'  '#       #        #'  '#        
            ##       ##  #######   ##           ,######,      #####,   #    #        
            '#,     ,#'  ##    ##  '#,     ,#' ,#      #,         ##   #,  ,#        
             '#######'   ##     ##  '#######'  #'      '#     #####' # '####'        



                  #######################################################
                  #                        -***-                        #
                  #          Department of theory and spectroscopy      #
                  #    Directorship and core code : Frank Neese         #
                  #        Max Planck Institute fuer Kohlenforschung    #
                  #                Kaiser Wilhelm Platz 1               #
                  #                 D-45470 Muelheim/Ruhr               #
                  #                      Germany                        #
                  #                                                     #
                  #                  All rights reserved                #
                  #                        -***-                        #
                  #######################################################


                         Program Version 5.0.3 -  RELEASE  -


 With contributions from (in alphabetic order):
   Daniel Aravena         : Magnetic Suceptibility
   Michael Atanasov       : Ab Initio Ligand Field Theory (pilot matlab implementation)
   Alexander A. Auer      : GIAO ZORA, VPT2 properties, NMR spectrum
   Ute Becker             : Parallelization
   Giovanni Bistoni       : ED, misc. LED, open-shell LED, HFLD
   Martin Brehm           : Molecular dynamics
   Dmytro Bykov           : SCF Hessian
   Vijay G. Chilkuri      : MRCI spin determinant printing, contributions to CSF-ICE
   Dipayan Datta          : RHF DLPNO-CCSD density
   Achintya Kumar Dutta   : EOM-CC, STEOM-CC
   Dmitry Ganyushin       : Spin-Orbit,Spin-Spin,Magnetic field MRCI
   Miquel Garcia          : C-PCM and meta-GGA Hessian, CC/C-PCM, Gaussian charge scheme
   Yang Guo               : DLPNO-NEVPT2, F12-NEVPT2, CIM, IAO-localization
   Andreas Hansen         : Spin unrestricted coupled pair/coupled cluster methods
   Benjamin Helmich-Paris : MC-RPA, TRAH-SCF, COSX integrals
   Lee Huntington         : MR-EOM, pCC
   Robert Izsak           : Overlap fitted RIJCOSX, COSX-SCS-MP3, EOM
   Marcus Kettner         : VPT2
   Christian Kollmar      : KDIIS, OOCD, Brueckner-CCSD(T), CCSD density, CASPT2, CASPT2-K
   Simone Kossmann        : Meta GGA functionals, TD-DFT gradient, OOMP2, MP2 Hessian
   Martin Krupicka        : Initial AUTO-CI
   Lucas Lang             : DCDCAS
   Marvin Lechner         : AUTO-CI (C++ implementation), FIC-MRCC
   Dagmar Lenk            : GEPOL surface, SMD
   Dimitrios Liakos       : Extrapolation schemes; Compound Job, initial MDCI parallelization
   Dimitrios Manganas     : Further ROCIS development; embedding schemes
   Dimitrios Pantazis     : SARC Basis sets
   Anastasios Papadopoulos: AUTO-CI, single reference methods and gradients
   Taras Petrenko         : DFT Hessian,TD-DFT gradient, ASA, ECA, R-Raman, ABS, FL, XAS/XES, NRVS
   Peter Pinski           : DLPNO-MP2, DLPNO-MP2 Gradient
   Christoph Reimann      : Effective Core Potentials
   Marius Retegan         : Local ZFS, SOC
   Christoph Riplinger    : Optimizer, TS searches, QM/MM, DLPNO-CCSD(T), (RO)-DLPNO pert. Triples
   Tobias Risthaus        : Range-separated hybrids, TD-DFT gradient, RPA, STAB
   Michael Roemelt        : Original ROCIS implementation
   Masaaki Saitow         : Open-shell DLPNO-CCSD energy and density
   Barbara Sandhoefer     : DKH picture change effects
   Avijit Sen             : IP-ROCIS
   Kantharuban Sivalingam : CASSCF convergence, NEVPT2, FIC-MRCI
   Bernardo de Souza      : ESD, SOC TD-DFT
   Georgi Stoychev        : AutoAux, RI-MP2 NMR, DLPNO-MP2 response
   Willem Van den Heuvel  : Paramagnetic NMR
   Boris Wezisla          : Elementary symmetry handling
   Frank Wennmohs         : Technical directorship


 We gratefully acknowledge several colleagues who have allowed us to
 interface, adapt or use parts of their codes:
   Stefan Grimme, W. Hujo, H. Kruse, P. Pracht,  : VdW corrections, initial TS optimization,
                  C. Bannwarth, S. Ehlert          DFT functionals, gCP, sTDA/sTD-DF
   Ed Valeev, F. Pavosevic, A. Kumar             : LibInt (2-el integral package), F12 methods
   Garnet Chan, S. Sharma, J. Yang, R. Olivares  : DMRG
   Ulf Ekstrom                                   : XCFun DFT Library
   Mihaly Kallay                                 : mrcc  (arbitrary order and MRCC methods)
   Jiri Pittner, Ondrej Demel                    : Mk-CCSD
   Frank Weinhold                                : gennbo (NPA and NBO analysis)
   Christopher J. Cramer and Donald G. Truhlar   : smd solvation model
   Lars Goerigk                                  : TD-DFT with DH, B97 family of functionals
   V. Asgeirsson, H. Jonsson                     : NEB implementation
   FAccTs GmbH                                   : IRC, NEB, NEB-TS, DLPNO-Multilevel, CI-OPT
                                                   MM, QMMM, 2- and 3-layer-ONIOM, Crystal-QMMM,
                                                   LR-CPCM, SF, NACMEs, symmetry and pop. for TD-DFT,
                                                   nearIR, NL-DFT gradient (VV10), updates on ESD,
                                                   ML-optimized integration grids
   S Lehtola, MJT Oliveira, MAL Marques          : LibXC Library
   Liviu Ungur et al                             : ANISO software


 Your calculation uses the libint2 library for the computation of 2-el integrals
 For citations please refer to: http://libint.valeyev.net

 Your ORCA version has been built with support for libXC version: 5.1.0
 For citations please refer to: https://tddft.org/programs/libxc/

 This ORCA versions uses:
   CBLAS   interface :  Fast vector & matrix operations
   LAPACKE interface :  Fast linear algebra routines
   SCALAPACK package :  Parallel linear algebra routines
   Shared memory     :  Shared parallel matrices
   BLAS/LAPACK       :  OpenBLAS 0.3.15  USE64BITINT DYNAMIC_ARCH NO_AFFINITY Sandybridge SINGLE_THREADED
        Core in use  :  Sandybridge
   Copyright (c) 2011-2014, The OpenBLAS Project




***************************************
The coordinates will be read from file: pbe.xyz
***************************************


================================================================================

cite the ECPs for Au [Def2-ECP] as follows:
Ce-Yb(ecp-28): M. Dolg, H. Stoll, H.Preuss, J. Chem. Phys., 1989, 90, 1730-1734.
Y-Cd(ecp-28), Hf-Hg(ecp-46): D. Andrae,U. Haeussermann, M. Dolg, H. Stoll, H. Preuss, Theor. Chim. Acta, 1990, 77, 123-141.
In-Sb(ecp-28), Tl-Bi(ecp-46): B. Metz, H. Stoll, M. Dolg, J. Chem. Phys., 2000, 113, 2563-2569.
Te-Xe(ecp-28), Po-Rn(ecp-46): K. A. Peterson, D. Figgen, E. Goll, H. Stoll, M. Dolg, J. Chem. Phys., 2003, 119, 11113-11123.
Rb(ecp-28), Cs(ecp-46): T. Leininger, A. Nicklass, W. Kuechle, H. Stoll, M. Dolg, A. Bergner, Chem. Phys. Lett., 1996, 255, 274-280.
Sr(ecp-28), Ba(ecp-46): M. Kaupp, P. V. Schleyer, H. Stoll and H. Preuss, J. Chem. Phys., 1991, 94, 1360-1366.
La(ecp-46): M. Dolg, H. Stoll, A. Savin, H. Preuss, Theor. Chim. Acta, 1989, 75, 173-194.
Lu(ecp-28): X. Cao, M. Dolg, J. Chem. Phys., 2001, 115, 7348-7355.

ECP parameters for Au [Def2-ECP] have been obtained from:
TURBOMOLE (7.0.2)

----- Orbital basis set information -----
Your calculation utilizes the basis: def2-TZVP
   F. Weigend and R. Ahlrichs, Phys. Chem. Chem. Phys. 7, 3297 (2005).

----- AuxJ basis set information -----
Your calculation utilizes the auxiliary basis: def2/J
   F. Weigend, Phys. Chem. Chem. Phys. 8, 1057 (2006).

----- AuxC basis set information -----
Your calculation utilizes the auxiliary basis: def2-TZVP/C
  H-La, Hf-Rn : A. Hellweg, C. Hattig, S. Hofener and W. Klopper, Theor. Chem. Acc. 117, 587 (2007).
        Ce-Lu : J. Chmela and M. E. Harding, Mol. Phys. (2018).

================================================================================
                                        WARNINGS
                       Please study these warnings very carefully!
================================================================================


INFO   : the flag for use of the SHARK integral package has been found!

================================================================================
                                       INPUT FILE
================================================================================
NAME = casscf.inp
|  1> !CASSCF def2-TZVP def2-TZVP/C
|  2> !MOREAD RIJCOSX
|  3> %maxcore 6000
|  4> %moinp "pbe.qro"
|  5> %pal nprocs 2 end 
|  6> 
|  7> %casscf
|  8>  mult 5,3
|  9>  bweight 1,1
| 10>  nroots 5,45
| 11>  nel 6
| 12>  norb 5
| 13> end
| 14> 
| 15> 
| 16> *xyzfile 0 5 pbe.xyz
| 17> 
| 18> 
| 19>                          ****END OF INPUT****
================================================================================

                       ****************************
                       * Single Point Calculation *
                       ****************************

---------------------------------
CARTESIAN COORDINATES (ANGSTROEM)
---------------------------------
  Au     8.264599    9.367137    7.574941
  Au     6.726181    9.563667    2.701539
  Au     7.885634    7.438359    3.980912
  Au     7.067436   10.227403    5.387282
  Au     4.310427    8.986876    6.560550
  Au     4.514166   10.531455    4.310859
  Au     5.064247    7.781743    4.100229
  Au     8.148163    5.613481    5.960077
  Au     6.431637    4.521173    7.941059
  Au     5.263444    5.582960    5.677193
  Au     5.013579    6.966267    8.214927
  Au     7.863900    6.862186    8.525623
  Fe     6.659324    7.778560    6.307192

----------------------------
CARTESIAN COORDINATES (A.U.)
----------------------------
  NO LB      ZA    FRAG     MASS         X           Y           Z
   0 Au   19.0000*   0   196.966   15.617828   17.701324   14.314564
   1 Au   19.0000*   0   196.966   12.710641   18.072712    5.105168
   2 Au   19.0000*   0   196.966   14.901688   14.056461    7.522834
   3 Au   19.0000*   0   196.966   13.355519   19.326991   10.180487
   4 Au   19.0000*   0   196.966    8.145527   16.982735   12.397644
   5 Au   19.0000*   0   196.966    8.530537   19.901566    8.146344
   6 Au   19.0000*   0   196.966    9.570041   14.705364    7.748309
   7 Au   19.0000*   0   196.966   15.397797   10.607942   11.262913
   8 Au   19.0000*   0   196.966   12.154033    8.543778   15.006427
   9 Au   19.0000*   0   196.966    9.946469   10.550265   10.728341
  10 Au   19.0000*   0   196.966    9.474292   13.164337   15.523962
  11 Au   19.0000*   0   196.966   14.860618   12.967652   16.111093
  12 Fe   26.0000    0    55.850   12.584300   14.699348   11.918866
* core charge reduced due to ECP

--------------------------------
INTERNAL COORDINATES (ANGSTROEM)
--------------------------------
 Au     0   0   0     0.000000000000     0.00000000     0.00000000
 Au     1   0   0     5.114235528907     0.00000000     0.00000000
 Au     2   1   0     2.738259086655    52.95678350     0.00000000
 Au     1   2   3     2.638012144909    20.06985672   193.00159953
 Au     4   1   2     3.242925391711    87.76713555   101.28850005
 Au     5   4   1     2.736483626670    54.78491243   172.60016858
 Au     2   1   3     2.809557404428    71.28724599    68.16945174
 Au     3   2   1     2.704845929767   155.04172961    52.24538437
 Au     8   3   2     2.839699182909   135.33996123    21.30226792
 Au     7   2   1     2.713142918579   139.45751143   306.16312836
 Au     5   4   1     2.704486035323   106.62341980   333.61973383
 Au     1   2   3     2.709084216893   108.99212771   325.62837767
 Fe     1   2   3     2.589917434611    50.99999959   305.93472560

---------------------------
INTERNAL COORDINATES (A.U.)
---------------------------
 Au     0   0   0     0.000000000000     0.00000000     0.00000000
 Au     1   0   0     9.664504534004     0.00000000     0.00000000
 Au     2   1   0     5.174559757499    52.95678350     0.00000000
 Au     1   2   3     4.985120491836    20.06985672   193.00159953
 Au     4   1   2     6.128240863072    87.76713555   101.28850005
 Au     5   4   1     5.171204624365    54.78491243   172.60016858
 Au     2   1   3     5.309294051900    71.28724599    68.16945174
 Au     3   2   1     5.111418041712   155.04172961    52.24538437
 Au     8   3   2     5.366253758418   135.33996123    21.30226792
 Au     7   2   1     5.127097078301   139.45751143   306.16312836
 Au     5   4   1     5.110737939774   106.62341980   333.61973383
 Au     1   2   3     5.119427243656   108.99212771   325.62837767
 Fe     1   2   3     4.894234660882    50.99999959   305.93472560

---------------------
BASIS SET INFORMATION
---------------------
There are 2 groups of distinct atoms

 Group   1 Type Au  : 8s7p6d1f contracted to 6s4p3d1f pattern {311111/4111/411/1}
 Group   2 Type Fe  : 17s11p7d1f contracted to 6s4p4d1f pattern {842111/6311/4111/1}

Atom   0Au   basis set group =>   1
Atom   1Au   basis set group =>   1
Atom   2Au   basis set group =>   1
Atom   3Au   basis set group =>   1
Atom   4Au   basis set group =>   1
Atom   5Au   basis set group =>   1
Atom   6Au   basis set group =>   1
Atom   7Au   basis set group =>   1
Atom   8Au   basis set group =>   1
Atom   9Au   basis set group =>   1
Atom  10Au   basis set group =>   1
Atom  11Au   basis set group =>   1
Atom  12Fe   basis set group =>   2
---------------------------------
AUXILIARY/J BASIS SET INFORMATION
---------------------------------
There are 2 groups of distinct atoms

 Group   1 Type Au  : 11s5p5d3f3g contracted to 8s5p5d2f3g pattern {41111111/11111/11111/21/111}
 Group   2 Type Fe  : 19s5p5d3f3g contracted to 8s5p5d2f3g pattern {121111111/11111/11111/21/111}

Atom   0Au   basis set group =>   1
Atom   1Au   basis set group =>   1
Atom   2Au   basis set group =>   1
Atom   3Au   basis set group =>   1
Atom   4Au   basis set group =>   1
Atom   5Au   basis set group =>   1
Atom   6Au   basis set group =>   1
Atom   7Au   basis set group =>   1
Atom   8Au   basis set group =>   1
Atom   9Au   basis set group =>   1
Atom  10Au   basis set group =>   1
Atom  11Au   basis set group =>   1
Atom  12Fe   basis set group =>   2
---------------------------------
AUXILIARY/C BASIS SET INFORMATION
---------------------------------
There are 2 groups of distinct atoms

 Group   1 Type Au  : 8s8p7d5f3g2h contracted to 8s8p7d5f3g2h pattern {11111111/11111111/1111111/11111/111/11}
 Group   2 Type Fe  : 11s9p8d6f5g2h contracted to 9s8p8d6f5g2h pattern {311111111/21111111/11111111/111111/11111/11}

Atom   0Au   basis set group =>   1
Atom   1Au   basis set group =>   1
Atom   2Au   basis set group =>   1
Atom   3Au   basis set group =>   1
Atom   4Au   basis set group =>   1
Atom   5Au   basis set group =>   1
Atom   6Au   basis set group =>   1
Atom   7Au   basis set group =>   1
Atom   8Au   basis set group =>   1
Atom   9Au   basis set group =>   1
Atom  10Au   basis set group =>   1
Atom  11Au   basis set group =>   1
Atom  12Fe   basis set group =>   2
-------------------------
ECP PARAMETER INFORMATION
-------------------------

 Group 1, Type Au ECP Def2-ECP (replacing 60 core electrons, lmax=3)

Atom   0Au   ECP group =>   1
Atom   1Au   ECP group =>   1
Atom   2Au   ECP group =>   1
Atom   3Au   ECP group =>   1
Atom   4Au   ECP group =>   1
Atom   5Au   ECP group =>   1
Atom   6Au   ECP group =>   1
Atom   7Au   ECP group =>   1
Atom   8Au   ECP group =>   1
Atom   9Au   ECP group =>   1
Atom  10Au   ECP group =>   1
Atom  11Au   ECP group =>   1



           ************************************************************
           *        Program running with 2 parallel MPI-processes     *
           *              working on a common directory               *
           ************************************************************
------------------------------------------------------------------------------
                           ORCA GTO INTEGRAL CALCULATION
                           -- RI-GTO INTEGRALS CHOSEN --
------------------------------------------------------------------------------
------------------------------------------------------------------------------
                   ___                                                        
                  /   \      - P O W E R E D   B Y -                         
                 /     \                                                     
                 |  |  |   _    _      __       _____    __    __             
                 |  |  |  | |  | |    /  \     |  _  \  |  |  /  |          
                  \  \/   | |  | |   /    \    | | | |  |  | /  /          
                 / \  \   | |__| |  /  /\  \   | |_| |  |  |/  /          
                |  |  |   |  __  | /  /__\  \  |    /   |      \           
                |  |  |   | |  | | |   __   |  |    \   |  |\   \          
                \     /   | |  | | |  |  |  |  | |\  \  |  | \   \       
                 \___/    |_|  |_| |__|  |__|  |_| \__\ |__|  \__/        
                                                                              
                      - O R C A' S   B I G   F R I E N D -                    
                                      &                                       
                       - I N T E G R A L  F E E D E R -                       
                                                                              
 v1 FN, 2020, v2 2021                                                         
------------------------------------------------------------------------------


Reading SHARK input file casscf.SHARKINP.tmp ... ok
----------------------
SHARK INTEGRAL PACKAGE
----------------------

Number of atoms                             ...     13
Number of basis functions                   ...    525
Number of shells                            ...    183
Maximum angular momentum                    ...      3
Integral batch strategy                     ... SHARK/LIBINT Hybrid
RI-J (if used) integral strategy            ... SPLIT-RIJ (Revised 2003 algorithm where possible)
Printlevel                                  ...      1
Contraction scheme used                     ... SEGMENTED contraction
Coulomb Range Separation                    ... NOT USED
Exchange Range Separation                   ... NOT USED
Finite Nucleus Model                        ... NOT USED
Auxiliary Coulomb fitting basis             ... AVAILABLE
   # of basis functions in Aux-J            ...   1157
   # of shells in Aux-J                     ...    299
   Maximum angular momentum in Aux-J        ...      4
Auxiliary J/K fitting basis                 ... NOT available
Auxiliary Correlation fitting basis         ... AVAILABLE
   # of basis functions in Aux-C            ...   1994
   # of shells in Aux-C                     ...    434
   Maximum angular momentum in Aux-C        ...      5
Auxiliary 'external' fitting basis          ... NOT available
Integral threshold                          ...     1.000000e-10
Primitive cut-off                           ...     1.000000e-11
Primitive pair pre-selection threshold      ...     1.000000e-11

Calculating pre-screening integrals         ... done (  2.1 sec) Dimension = 183
Organizing shell pair data                  ... done (  1.5 sec)
Shell pair information
Total number of shell pairs                 ...     16836
Shell pairs after pre-screening             ...     13481
Total number of primitive shell pairs       ...     45389
Primitive shell pairs kept                  ...     26395
          la=0 lb=0:   2117 shell pairs
          la=1 lb=0:   3073 shell pairs
          la=1 lb=1:   1169 shell pairs
          la=2 lb=0:   2659 shell pairs
          la=2 lb=1:   1888 shell pairs
          la=2 lb=2:    778 shell pairs
          la=3 lb=0:    712 shell pairs
          la=3 lb=1:    548 shell pairs
          la=3 lb=2:    462 shell pairs
          la=3 lb=3:     75 shell pairs

Calculating one electron integrals          ... done (  0.8 sec)
Calculating ECP integrals                   ... done ( 52.5 sec)
Calculating RI/J V-Matrix + Cholesky decomp.... done (  1.0 sec)
Calculating RI/C V-Matrix + Cholesky decomp.... done (  3.1 sec)
Calculating Nuclear repulsion               ... done (  0.0 sec) ENN=   4363.464262303629 Eh

SHARK setup successfully completed in  64.7 seconds

Maximum memory used throughout the entire GTOINT-calculation: 69.2 MB


           ************************************************************
           *        Program running with 2 parallel MPI-processes     *
           *              working on a common directory               *
           ************************************************************
-------------------------------------------------------------------------------
                                 ORCA SCF
-------------------------------------------------------------------------------

------------
SCF SETTINGS
------------
Hamiltonian:
 Ab initio Hamiltonian  Method          .... Hartree-Fock(GTOs)
 RI-approximation to the Coulomb term is turned on
   Number of AuxJ basis functions       .... 1157
   RIJ-COSX (HFX calculated with COS-X)).... on


General Settings:
 Integral files         IntName         .... casscf
 Hartree-Fock type      HFTyp           .... CASSCF
 Total Charge           Charge          ....    0
 Multiplicity           Mult            ....    5
 Number of Electrons    NEL             ....  254
 Basis Dimension        Dim             ....  525
 Nuclear Repulsion      ENuc            ....   4363.4642623036 Eh


Diagonalization of the overlap matrix:
Smallest eigenvalue                        ... 4.900e-04
Time for diagonalization                   ...    0.465 sec
Threshold for overlap eigenvalues          ... 1.000e-08
Number of eigenvalues below threshold      ... 0
Time for construction of square roots      ...    0.577 sec
Total time needed                          ...    1.044 sec

---------------------
INITIAL GUESS: MOREAD
---------------------
Guess MOs are being read from file: pbe.qro
Input Geometry matches current geometry (good)
Input basis set matches current basis set (good)
MOs were renormalized
Gram-Schmidt orthogonalization of all MOs with pivot on actives
                      ------------------
                      INITIAL GUESS DONE (  15.8 sec)
                      ------------------
--------------------
COSX GRID GENERATION
--------------------

GRIDX 1
-------
General Integration Accuracy     IntAcc      ... 3.816
Radial Grid Type                 RadialGrid  ... OptM3 with GC (2021)
Angular Grid (max. ang.)         AngularGrid ... 1 (Lebedev-50)
Angular grid pruning method      GridPruning ... 4 (adaptive)
Weight generation scheme         WeightScheme... Becke
Basis function cutoff            BFCut       ... 1.0000e-10
Integration weight cutoff        WCut        ... 1.0000e-14
Angular grids for H and He will be reduced by one unit
Partially contracted basis set               ... on
Rotationally invariant grid construction     ... off

Total number of grid points                  ...    15244
Total number of batches                      ...      246
Average number of points per batch           ...       61
Average number of grid points per atom       ...     1173
UseSFitting                                  ... on

GRIDX 2
-------
General Integration Accuracy     IntAcc      ... 4.020
Radial Grid Type                 RadialGrid  ... OptM3 with GC (2021)
Angular Grid (max. ang.)         AngularGrid ... 2 (Lebedev-110)
Angular grid pruning method      GridPruning ... 4 (adaptive)
Weight generation scheme         WeightScheme... Becke
Basis function cutoff            BFCut       ... 1.0000e-10
Integration weight cutoff        WCut        ... 1.0000e-14
Angular grids for H and He will be reduced by one unit
Partially contracted basis set               ... on
Rotationally invariant grid construction     ... off

Total number of grid points                  ...    46063
Total number of batches                      ...      725
Average number of points per batch           ...       63
Average number of grid points per atom       ...     3543
UseSFitting                                  ... on

GRIDX 3
-------
General Integration Accuracy     IntAcc      ... 4.338
Radial Grid Type                 RadialGrid  ... OptM3 with GC (2021)
Angular Grid (max. ang.)         AngularGrid ... 3 (Lebedev-194)
Angular grid pruning method      GridPruning ... 4 (adaptive)
Weight generation scheme         WeightScheme... Becke
Basis function cutoff            BFCut       ... 1.0000e-10
Integration weight cutoff        WCut        ... 1.0000e-14
Angular grids for H and He will be reduced by one unit
Partially contracted basis set               ... on
Rotationally invariant grid construction     ... off

Total number of grid points                  ...    84340
Total number of batches                      ...     1324
Average number of points per batch           ...       63
Average number of grid points per atom       ...     6488
UseSFitting                                  ... on

Time for X-Grid setup             =   21.051 sec



 ... the calculation is a CASSCF calculation -I'm leaving here GOOD LUCK!!!



           ************************************************************
           *        Program running with 2 parallel MPI-processes     *
           *              working on a common directory               *
           ************************************************************
-------------------------------------------------------------------------------
                              ORCA-CASSCF
-------------------------------------------------------------------------------

Setting up the integral package       ... done
Setting up the integral package (RI)  ... done
Building the CAS space                ... done (5 configurations for Mult=5)
Building the CAS space                ... done (35 configurations for Mult=3)

SYSTEM-SPECIFIC SETTINGS:
Number of active electrons          ...    6
Number of active orbitals           ...    5
Total number of electrons           ...  254
Total number of orbitals            ...  525
Total number aux. functions         ... 1994

Determined orbital ranges:
   Internal       0 -  123 ( 124 orbitals)
   Active       124 -  128 (   5 orbitals)
   External     129 -  524 ( 396 orbitals)
Number of rotation parameters      ...  51704

CI-STEP:
CI strategy                         ... General CI
Number of multiplicity blocks       ...    2
BLOCK  1 WEIGHT=   0.5000
  Multiplicity                      ...    5
  #(Configurations)                 ...    5
  #(CSFs)                           ...    5
  #(Roots)                          ...    5
    ROOT=0 WEIGHT=    0.100000
    ROOT=1 WEIGHT=    0.100000
    ROOT=2 WEIGHT=    0.100000
    ROOT=3 WEIGHT=    0.100000
    ROOT=4 WEIGHT=    0.100000

BLOCK  2 WEIGHT=   0.5000
  Multiplicity                      ...    3
  #(Configurations)                 ...   35
  #(CSFs)                           ...   45
  #(Roots)                          ...   45
    ROOT=0 WEIGHT=    0.011111
    ROOT=1 WEIGHT=    0.011111
    ROOT=2 WEIGHT=    0.011111
    ROOT=3 WEIGHT=    0.011111
    ROOT=4 WEIGHT=    0.011111
    ROOT=5 WEIGHT=    0.011111
    ROOT=6 WEIGHT=    0.011111
    ROOT=7 WEIGHT=    0.011111
    ROOT=8 WEIGHT=    0.011111
    ROOT=9 WEIGHT=    0.011111
    ROOT=10 WEIGHT=    0.011111
    ROOT=11 WEIGHT=    0.011111
    ROOT=12 WEIGHT=    0.011111
    ROOT=13 WEIGHT=    0.011111
    ROOT=14 WEIGHT=    0.011111
    ROOT=15 WEIGHT=    0.011111
    ROOT=16 WEIGHT=    0.011111
    ROOT=17 WEIGHT=    0.011111
    ROOT=18 WEIGHT=    0.011111
    ROOT=19 WEIGHT=    0.011111
    ROOT=20 WEIGHT=    0.011111
    ROOT=21 WEIGHT=    0.011111
    ROOT=22 WEIGHT=    0.011111
    ROOT=23 WEIGHT=    0.011111
    ROOT=24 WEIGHT=    0.011111
    ROOT=25 WEIGHT=    0.011111
    ROOT=26 WEIGHT=    0.011111
    ROOT=27 WEIGHT=    0.011111
    ROOT=28 WEIGHT=    0.011111
    ROOT=29 WEIGHT=    0.011111
    ROOT=30 WEIGHT=    0.011111
    ROOT=31 WEIGHT=    0.011111
    ROOT=32 WEIGHT=    0.011111
    ROOT=33 WEIGHT=    0.011111
    ROOT=34 WEIGHT=    0.011111
    ROOT=35 WEIGHT=    0.011111
    ROOT=36 WEIGHT=    0.011111
    ROOT=37 WEIGHT=    0.011111
    ROOT=38 WEIGHT=    0.011111
    ROOT=39 WEIGHT=    0.011111
    ROOT=40 WEIGHT=    0.011111
    ROOT=41 WEIGHT=    0.011111
    ROOT=42 WEIGHT=    0.011111
    ROOT=43 WEIGHT=    0.011111
    ROOT=44 WEIGHT=    0.011111

  PrintLevel                        ...    1
  N(GuessMat)                       ...       512
  MaxDim(CI)                        ...        10
  MaxIter(CI)                       ...        64
  Energy Tolerance CI               ...  1.00e-08
  Residual Tolerance CI             ...  1.00e-08
  Shift(CI)                         ...  1.00e-04

INTEGRAL-TRANSFORMATION-STEP:
  Algorithm                         ... RI-MO

ORBITAL-IMPROVEMENT-STEP:
  Algorithm                         ... SuperCI(PT)
  Default Parametrization           ... CAYLEY
  Act-Act rotations                 ... depends on algorithm used

  Note: SuperCI(PT) will ignore FreezeIE, FreezeAct and FreezeGrad. In general Default settings are encouraged.
        In conjunction with ShiftUp, ShiftDn or GradScaling the performance of SuperCI(PT) is less optimal.  

  MaxRot                            ... 2.00e-01 
  Max. no of vectors (DIIS)         ... 15
  DThresh (cut-off) metric          ... 1.00e-06
  Switch step at gradient           ...  3.00e-02 
  Switch step at iteration          ...        50   
  Switch step to                    ... SuperCI(PT)    

SCF-SETTINGS:
  Incremental                       ... off
  RIJCOSX approximation             ... on
  UseFinalGrid                      ... on
  RI-JK approximation               ... off
  AO integral handling              ... DIRECT
  Integral Neglect Thresh           ...  1.00e-10
  Primitive cutoff TCut             ...  1.00e-11
  Energy convergence tolerance      ...  1.00e-07
  Orbital gradient convergence      ...  1.00e-03
  Max. number of iterations         ...        75  


FINAL ORBITALS:
  Active   Orbitals                 ... natural 
  Internal Orbitals                 ... canonical 
  External Orbitals                 ... canonical 

------------------
CAS-SCF ITERATIONS
------------------


MACRO-ITERATION   1: 
   --- Inactive Energy E0 = -2870.52798526 Eh
CI-ITERATION   0: 
 -2879.634754161   0.000000000000 (    0.00)
 -2879.573884532   0.000000000000
 -2879.549346170   0.000000000000
 -2879.528832149   0.000000000000
 -2879.488183156   0.000000000000
   CI-PROBLEM SOLVED
   DENSITIES MADE
CI-ITERATION   0: 
 -2879.572694274   0.000000000000 (    0.00)
 -2879.566538332   0.000000000000
 -2879.566471312   0.000000000000
 -2879.563222335   0.000000000000
 -2879.558704538   0.000000000000
 -2879.547818135   0.000000000000
 -2879.539141259   0.000000000000
 -2879.538416687   0.000000000000
 -2879.536098382   0.000000000000
 -2879.532410015   0.000000000000
 -2879.531086597   0.000000000000
 -2879.530426847   0.000000000000
 -2879.520173762   0.000000000000
 -2879.513114016   0.000000000000
 -2879.508872007   0.000000000000
 -2879.503397188   0.000000000000
 -2879.501268687   0.000000000000
 -2879.494296449   0.000000000000
 -2879.492217179   0.000000000000
 -2879.488749273   0.000000000000
 -2879.487274764   0.000000000000
 -2879.480502194   0.000000000000
 -2879.476767897   0.000000000000
 -2879.469776211   0.000000000000
 -2879.468041889   0.000000000000
 -2879.466341049   0.000000000000
 -2879.455928017   0.000000000000
 -2879.454607641   0.000000000000
 -2879.449505214   0.000000000000
 -2879.445675651   0.000000000000
 -2879.439279765   0.000000000000
 -2879.426377783   0.000000000000
 -2879.423746375   0.000000000000
 -2879.421502170   0.000000000000
 -2879.419372107   0.000000000000
 -2879.380822783   0.000000000000
 -2879.366044193   0.000000000000
 -2879.358464906   0.000000000000
 -2879.355235609   0.000000000000
 -2879.332144903   0.000000000000
 -2879.277706424   0.000000000000
 -2879.250405651   0.000000000000
 -2879.212912957   0.000000000000
 -2879.189322022   0.000000000000
 -2879.148463032   0.000000000000
   CI-PROBLEM SOLVED
   DENSITIES MADE

                 <<<<<<<<<<<<<<<<<<INITIAL CI STATE CHECK>>>>>>>>>>>>>>>>>>

BLOCK  1 MULT= 5 NROOTS= 5 
ROOT   0:  E=   -2879.6347541612 Eh
      0.86425 [     4]: 21111
      0.13569 [     0]: 11112
ROOT   1:  E=   -2879.5738845319 Eh  1.656 eV  13359.3 cm**-1
      0.98996 [     1]: 11121
      0.00999 [     3]: 12111
ROOT   2:  E=   -2879.5493461698 Eh  2.324 eV  18744.9 cm**-1
      0.86396 [     0]: 11112
      0.13553 [     4]: 21111
ROOT   3:  E=   -2879.5288321494 Eh  2.882 eV  23247.2 cm**-1
      0.99947 [     2]: 11211
ROOT   4:  E=   -2879.4881831559 Eh  3.988 eV  32168.6 cm**-1
      0.99000 [     3]: 12111
      0.00999 [     1]: 11121

BLOCK  2 MULT= 3 NROOTS=45 
ROOT   0:  E=   -2879.5726942739 Eh
      0.67935 [    29]: 21120
      0.13502 [    27]: 21102
      0.09303 [    11]: 11121
      0.02452 [     0]: 01122
      0.02141 [    24]: 20211
      0.01693 [    26]: 21021
      0.01247 [    32]: 22011
      0.00763 [    14]: 11220
      0.00290 [     7]: 10212
ROOT   1:  E=   -2879.5665383320 Eh  0.168 eV   1351.1 cm**-1
      0.91507 [    28]: 21111
      0.03024 [    10]: 11112
      0.02508 [    31]: 21210
      0.01030 [    23]: 20121
      0.00736 [    33]: 22101
      0.00606 [    25]: 21012
ROOT   2:  E=   -2879.5664713117 Eh  0.169 eV   1365.8 cm**-1
      0.47846 [    31]: 21210
      0.21799 [    28]: 21111
      0.16669 [    13]: 11211
      0.09565 [    25]: 21012
      0.02645 [    10]: 11112
      0.00574 [    33]: 22101
      0.00310 [     1]: 01212
      0.00289 [     8]: 10221
ROOT   3:  E=   -2879.5632223347 Eh  0.258 eV   2078.9 cm**-1
      0.68748 [    28]: 21111
      0.12166 [    31]: 21210
      0.09001 [    10]: 11112
      0.05522 [    13]: 11211
      0.02086 [    25]: 21012
      0.01247 [    33]: 22101
      0.00658 [    17]: 12102
      0.00267 [     1]: 01212
ROOT   4:  E=   -2879.5587045378 Eh  0.381 eV   3070.4 cm**-1
      0.46576 [    30]: 21201
      0.32840 [    26]: 21021
      0.11821 [    12]: 11202
      0.02603 [    34]: 22110
      0.01724 [    22]: 20112
      0.01549 [    18]: 12111
      0.00868 [    27]: 21102
      0.00831 [    29]: 21120
      0.00357 [    11]: 11121
ROOT   5:  E=   -2879.5478181354 Eh  0.677 eV   5459.7 cm**-1
      0.31027 [    27]: 21102
      0.17006 [    11]: 11121
      0.10778 [    26]: 21021
      0.10584 [    24]: 20211
      0.07380 [    32]: 22011
      0.06596 [     0]: 01122
      0.06416 [    30]: 21201
      0.04184 [    29]: 21120
      0.01519 [     7]: 10212
      0.01177 [    15]: 12012
      0.01068 [    34]: 22110
      0.00733 [    12]: 11202
      0.00544 [    22]: 20112
      0.00527 [    18]: 12111
ROOT   6:  E=   -2879.5391412590 Eh  0.913 eV   7364.0 cm**-1
      0.54224 [    28]: 21111
      0.14153 [    10]: 11112
      0.09489 [    25]: 21012
      0.09398 [    33]: 22101
      0.07628 [    23]: 20121
      0.02816 [    17]: 12102
      0.01868 [     6]: 10122
ROOT   7:  E=   -2879.5384166872 Eh  0.933 eV   7523.1 cm**-1
      0.54588 [    23]: 20121
      0.25775 [    25]: 21012
      0.05785 [    31]: 21210
      0.04862 [    33]: 22101
      0.03288 [    28]: 21111
      0.02351 [    10]: 11112
      0.01176 [    13]: 11211
      0.00752 [     8]: 10221
      0.00609 [    17]: 12102
      0.00434 [    19]: 12120
ROOT   8:  E=   -2879.5360983823 Eh  0.996 eV   8031.9 cm**-1
      0.37574 [    26]: 21021
      0.09315 [    24]: 20211
      0.09178 [    34]: 22110
      0.07786 [    30]: 21201
      0.07097 [     9]: 11022
      0.05041 [    18]: 12111
      0.04959 [    32]: 22011
      0.04749 [    12]: 11202
      0.04169 [    29]: 21120
      0.02792 [    11]: 11121
      0.02767 [    27]: 21102
      0.02035 [    15]: 12012
      0.01330 [    22]: 20112
      0.00345 [     0]: 01122
      0.00326 [     3]: 02112
      0.00261 [     7]: 10212
ROOT   9:  E=   -2879.5324100149 Eh  1.096 eV   8841.4 cm**-1
      0.32695 [    22]: 20112
      0.16607 [    34]: 22110
      0.11159 [    24]: 20211
      0.10039 [    27]: 21102
      0.08975 [    18]: 12111
      0.08510 [    30]: 21201
      0.04896 [    32]: 22011
      0.01667 [    11]: 11121
      0.01168 [     7]: 10212
      0.01082 [    12]: 11202
      0.00894 [     3]: 02112
      0.00769 [     9]: 11022
      0.00657 [    15]: 12012
ROOT  10:  E=   -2879.5310865965 Eh  1.132 eV   9131.8 cm**-1
      0.33799 [    25]: 21012
      0.31899 [    28]: 21111
      0.12137 [    33]: 22101
      0.07970 [    10]: 11112
      0.06629 [    23]: 20121
      0.03036 [    17]: 12102
      0.01811 [    31]: 21210
      0.01590 [     8]: 10221
      0.00404 [     6]: 10122
ROOT  11:  E=   -2879.5304268465 Eh  1.150 eV   9276.6 cm**-1
      0.28206 [    27]: 21102
      0.20354 [    24]: 20211
      0.09544 [    32]: 22011
      0.06589 [    34]: 22110
      0.06561 [    22]: 20112
      0.05574 [    26]: 21021
      0.03870 [    30]: 21201
      0.03810 [    12]: 11202
      0.03762 [     0]: 01122
      0.03235 [    18]: 12111
      0.02766 [    29]: 21120
      0.02463 [    11]: 11121
      0.01564 [     7]: 10212
      0.00893 [    15]: 12012
      0.00316 [     2]: 01221
ROOT  12:  E=   -2879.5201737623 Eh  1.429 eV  11526.9 cm**-1
      0.66060 [    11]: 11121
      0.08099 [    29]: 21120
      0.04852 [    24]: 20211
      0.03551 [    27]: 21102
      0.03013 [     9]: 11022
      0.02564 [    34]: 22110
      0.02437 [    14]: 11220
      0.01901 [    26]: 21021
      0.01861 [    18]: 12111
      0.01583 [     7]: 10212
      0.01552 [     2]: 01221
      0.01009 [    32]: 22011
      0.00810 [     0]: 01122
      0.00610 [    15]: 12012
ROOT  13:  E=   -2879.5131140162 Eh  1.621 eV  13076.4 cm**-1
      0.68311 [    10]: 11112
      0.11563 [    25]: 21012
      0.05386 [     6]: 10122
      0.04063 [    31]: 21210
      0.03518 [    23]: 20121
      0.02021 [    13]: 11211
      0.01698 [     1]: 01212
      0.01610 [    28]: 21111
      0.00867 [    17]: 12102
      0.00500 [    33]: 22101
ROOT  14:  E=   -2879.5088720065 Eh  1.737 eV  14007.4 cm**-1
      0.48734 [     9]: 11022
      0.19378 [    11]: 11121
      0.07779 [    22]: 20112
      0.06049 [    34]: 22110
      0.05839 [    24]: 20211
      0.03657 [    14]: 11220
      0.02841 [    32]: 22011
      0.02023 [    18]: 12111
      0.01787 [    15]: 12012
      0.01010 [     2]: 01221
      0.00261 [    30]: 21201
ROOT  15:  E=   -2879.5033971881 Eh  1.886 eV  15209.0 cm**-1
      0.26976 [    10]: 11112
      0.24683 [    33]: 22101
      0.14466 [    17]: 12102
      0.13776 [    23]: 20121
      0.08874 [     6]: 10122
      0.02743 [    28]: 21111
      0.02386 [    13]: 11211
      0.02016 [    31]: 21210
      0.01395 [    19]: 12120
      0.01064 [     1]: 01212
      0.01008 [     4]: 02121
ROOT  16:  E=   -2879.5012686868 Eh  1.944 eV  15676.1 cm**-1
      0.51377 [    11]: 11121
      0.17208 [     0]: 01122
      0.13436 [    22]: 20112
      0.05599 [    27]: 21102
      0.03803 [    14]: 11220
      0.01661 [     2]: 01221
      0.01598 [    32]: 22011
      0.01479 [    18]: 12111
      0.00771 [    24]: 20211
      0.00756 [     3]: 02112
      0.00513 [    15]: 12012
      0.00490 [    12]: 11202
      0.00434 [    30]: 21201
      0.00299 [    26]: 21021
ROOT  17:  E=   -2879.4942964493 Eh  2.133 eV  17206.3 cm**-1
      0.39087 [    10]: 11112
      0.15094 [     6]: 10122
      0.13235 [     8]: 10221
      0.11566 [    16]: 12021
      0.05573 [    33]: 22101
      0.05541 [    28]: 21111
      0.04866 [    13]: 11211
      0.01324 [    19]: 12120
      0.01104 [     1]: 01212
      0.01100 [    17]: 12102
      0.00722 [     4]: 02121
      0.00410 [    25]: 21012
ROOT  18:  E=   -2879.4922171788 Eh  2.190 eV  17662.7 cm**-1
      0.62971 [    13]: 11211
      0.17113 [     1]: 01212
      0.12133 [    10]: 11112
      0.02122 [    31]: 21210
      0.01442 [    16]: 12021
      0.00804 [    25]: 21012
      0.00789 [    28]: 21111
      0.00741 [    19]: 12120
      0.00692 [     6]: 10122
      0.00590 [    17]: 12102
      0.00312 [     4]: 02121
ROOT  19:  E=   -2879.4887492732 Eh  2.284 eV  18423.8 cm**-1
      0.55383 [    11]: 11121
      0.19132 [     9]: 11022
      0.05117 [     0]: 01122
      0.04185 [    26]: 21021
      0.03694 [    30]: 21201
      0.02774 [    15]: 12012
      0.02493 [     7]: 10212
      0.02186 [    32]: 22011
      0.01821 [    22]: 20112
      0.00850 [    18]: 12111
      0.00732 [    29]: 21120
      0.00631 [    27]: 21102
      0.00393 [    34]: 22110
      0.00259 [     3]: 02112
ROOT  20:  E=   -2879.4872747636 Eh  2.324 eV  18747.4 cm**-1
      0.40680 [     8]: 10221
      0.21993 [     6]: 10122
      0.13274 [    16]: 12021
      0.07259 [    10]: 11112
      0.05690 [    13]: 11211
      0.04962 [    28]: 21111
      0.02048 [    33]: 22101
      0.01975 [    19]: 12120
      0.00963 [     4]: 02121
      0.00511 [    23]: 20121
      0.00316 [    20]: 12201
ROOT  21:  E=   -2879.4805021943 Eh  2.509 eV  20233.8 cm**-1
      0.24954 [    34]: 22110
      0.24029 [    22]: 20112
      0.11060 [    15]: 12012
      0.08522 [     7]: 10212
      0.08442 [    24]: 20211
      0.07875 [    11]: 11121
      0.03721 [     0]: 01122
      0.03242 [    18]: 12111
      0.02407 [    26]: 21021
      0.01237 [     3]: 02112
      0.01217 [     9]: 11022
      0.00990 [    30]: 21201
      0.00846 [    32]: 22011
      0.00620 [    12]: 11202
      0.00428 [    21]: 12210
      0.00323 [     5]: 02211
ROOT  22:  E=   -2879.4767678974 Eh  2.610 eV  21053.4 cm**-1
      0.58180 [    10]: 11112
      0.10526 [    16]: 12021
      0.09183 [    13]: 11211
      0.07470 [    28]: 21111
      0.04470 [     6]: 10122
      0.03744 [     8]: 10221
      0.01837 [    23]: 20121
      0.01678 [    25]: 21012
      0.01276 [    31]: 21210
      0.00925 [    17]: 12102
      0.00334 [     1]: 01212
ROOT  23:  E=   -2879.4697762108 Eh  2.801 eV  22587.9 cm**-1
      0.29740 [    14]: 11220
      0.19943 [    32]: 22011
      0.10793 [     2]: 01221
      0.09842 [    18]: 12111
      0.09810 [     9]: 11022
      0.04317 [    24]: 20211
      0.04002 [    11]: 11121
      0.03308 [     3]: 02112
      0.02563 [     7]: 10212
      0.01445 [    34]: 22110
      0.01228 [    12]: 11202
      0.00844 [    29]: 21120
      0.00757 [    15]: 12012
      0.00630 [     0]: 01122
      0.00295 [    27]: 21102
ROOT  24:  E=   -2879.4680418893 Eh  2.848 eV  22968.5 cm**-1
      0.28915 [    32]: 22011
      0.18997 [    14]: 11220
      0.15477 [    24]: 20211
      0.06723 [     2]: 01221
      0.05441 [    11]: 11121
      0.05392 [    18]: 12111
      0.03705 [    15]: 12012
      0.02545 [     7]: 10212
      0.02394 [    12]: 11202
      0.02173 [    22]: 20112
      0.01621 [     9]: 11022
      0.01519 [    34]: 22110
      0.01287 [    27]: 21102
      0.01223 [    21]: 12210
      0.01109 [     5]: 02211
      0.00814 [    26]: 21021
      0.00594 [    29]: 21120
ROOT  25:  E=   -2879.4663410486 Eh  2.894 eV  23341.8 cm**-1
      0.53788 [    13]: 11211
      0.16350 [     1]: 01212
      0.07028 [    10]: 11112
      0.06247 [    19]: 12120
      0.05402 [     8]: 10221
      0.04720 [    31]: 21210
      0.02406 [     4]: 02121
      0.01000 [     6]: 10122
      0.00763 [    25]: 21012
      0.00735 [    23]: 20121
      0.00670 [    20]: 12201
      0.00567 [    33]: 22101
ROOT  26:  E=   -2879.4559280169 Eh  3.177 eV  25627.2 cm**-1
      0.73634 [    13]: 11211
      0.05819 [    19]: 12120
      0.05533 [     1]: 01212
      0.02798 [    31]: 21210
      0.02777 [    17]: 12102
      0.02548 [     8]: 10221
      0.02516 [     4]: 02121
      0.01206 [    20]: 12201
      0.01143 [    16]: 12021
      0.00939 [     6]: 10122
      0.00661 [    33]: 22101
      0.00311 [    10]: 11112
ROOT  27:  E=   -2879.4546076406 Eh  3.213 eV  25917.0 cm**-1
      0.30119 [     7]: 10212
      0.16780 [    15]: 12012
      0.15953 [    18]: 12111
      0.08113 [     3]: 02112
      0.06466 [    34]: 22110
      0.04738 [    32]: 22011
      0.03877 [    11]: 11121
      0.03560 [    12]: 11202
      0.02633 [    30]: 21201
      0.01821 [     9]: 11022
      0.01713 [    22]: 20112
      0.01283 [    24]: 20211
      0.00905 [    21]: 12210
      0.00804 [     0]: 01122
      0.00385 [    14]: 11220
      0.00318 [     5]: 02211
      0.00255 [    26]: 21021
ROOT  28:  E=   -2879.4495052135 Eh  3.352 eV  27036.9 cm**-1
      0.27841 [     6]: 10122
      0.20797 [    10]: 11112
      0.16851 [    16]: 12021
      0.14971 [    33]: 22101
      0.07542 [    23]: 20121
      0.03005 [    25]: 21012
      0.02464 [    13]: 11211
      0.01901 [    19]: 12120
      0.01181 [    28]: 21111
      0.01146 [     8]: 10221
      0.01052 [    20]: 12201
      0.00517 [    17]: 12102
      0.00408 [    31]: 21210
ROOT  29:  E=   -2879.4456756511 Eh  3.456 eV  27877.4 cm**-1
      0.55675 [    18]: 12111
      0.11727 [     7]: 10212
      0.06358 [    15]: 12012
      0.05873 [     3]: 02112
      0.05304 [    12]: 11202
      0.04696 [    22]: 20112
      0.04233 [    11]: 11121
      0.02167 [    32]: 22011
      0.01399 [     9]: 11022
      0.00661 [    26]: 21021
      0.00564 [     0]: 01122
      0.00406 [    14]: 11220
ROOT  30:  E=   -2879.4392797654 Eh  3.630 eV  29281.1 cm**-1
      0.60561 [    18]: 12111
      0.12314 [    12]: 11202
      0.11451 [     3]: 02112
      0.05053 [    11]: 11121
      0.03911 [    30]: 21201
      0.01855 [    34]: 22110
      0.01412 [    32]: 22011
      0.00773 [    22]: 20112
      0.00765 [    24]: 20211
      0.00561 [    27]: 21102
      0.00377 [     0]: 01122
      0.00261 [    15]: 12012
ROOT  31:  E=   -2879.4263777835 Eh  3.981 eV  32112.8 cm**-1
      0.59496 [    18]: 12111
      0.14090 [     3]: 02112
      0.08318 [    12]: 11202
      0.05008 [    34]: 22110
      0.04018 [    11]: 11121
      0.03519 [    14]: 11220
      0.02739 [    30]: 21201
      0.01060 [     2]: 01221
      0.00476 [    27]: 21102
      0.00291 [    22]: 20112
      0.00257 [    15]: 12012
      0.00257 [    32]: 22011
ROOT  32:  E=   -2879.4237463749 Eh  4.053 eV  32690.3 cm**-1
      0.39243 [    19]: 12120
      0.17326 [    17]: 12102
      0.15952 [     4]: 02121
      0.13619 [    13]: 11211
      0.05009 [    33]: 22101
      0.03065 [     1]: 01212
      0.02612 [     6]: 10122
      0.01792 [    31]: 21210
      0.00433 [    10]: 11112
      0.00296 [    16]: 12021
      0.00260 [    28]: 21111
ROOT  33:  E=   -2879.4215021703 Eh  4.114 eV  33182.8 cm**-1
      0.37637 [    21]: 12210
      0.29049 [    15]: 12012
      0.16214 [     5]: 02211
      0.09876 [     7]: 10212
      0.02399 [    11]: 11121
      0.01418 [     9]: 11022
      0.01389 [    32]: 22011
      0.00872 [    18]: 12111
      0.00506 [    14]: 11220
ROOT  34:  E=   -2879.4193721069 Eh  4.172 eV  33650.3 cm**-1
      0.35301 [    16]: 12021
      0.19989 [     8]: 10221
      0.19710 [    20]: 12201
      0.15849 [    10]: 11112
      0.02935 [    28]: 21111
      0.01830 [     6]: 10122
      0.01254 [    33]: 22101
      0.01098 [    23]: 20121
      0.00735 [    13]: 11211
      0.00699 [    19]: 12120
      0.00255 [     4]: 02121
ROOT  35:  E=   -2879.3808227829 Eh  5.221 eV  42110.9 cm**-1
      0.43066 [    12]: 11202
      0.22517 [    18]: 12111
      0.11761 [    30]: 21201
      0.08332 [    14]: 11220
      0.03550 [     3]: 02112
      0.02919 [     9]: 11022
      0.02618 [     2]: 01221
      0.01831 [    34]: 22110
      0.00730 [     7]: 10212
      0.00665 [    27]: 21102
      0.00455 [    21]: 12210
      0.00421 [    11]: 11121
      0.00330 [     0]: 01122
      0.00303 [    26]: 21021
ROOT  36:  E=   -2879.3660441929 Eh  5.623 eV  45354.5 cm**-1
      0.27622 [    21]: 12210
      0.24430 [     7]: 10212
      0.20771 [    15]: 12012
      0.12540 [     5]: 02211
      0.04808 [    11]: 11121
      0.04507 [    32]: 22011
      0.04303 [    24]: 20211
      0.00316 [     9]: 11022
      0.00258 [    14]: 11220
ROOT  37:  E=   -2879.3584649060 Eh  5.829 eV  47017.9 cm**-1
      0.53405 [    17]: 12102
      0.15531 [    33]: 22101
      0.10601 [    19]: 12120
      0.06388 [     6]: 10122
      0.05589 [    13]: 11211
      0.04354 [     4]: 02121
      0.01947 [    10]: 11112
      0.00800 [     1]: 01212
      0.00552 [    23]: 20121
      0.00517 [    31]: 21210
ROOT  38:  E=   -2879.3552356089 Eh  5.917 eV  47726.7 cm**-1
      0.76375 [    20]: 12201
      0.09944 [     8]: 10221
      0.08935 [    16]: 12021
      0.02315 [    10]: 11112
      0.00944 [    13]: 11211
      0.00780 [    28]: 21111
      0.00390 [    17]: 12102
ROOT  39:  E=   -2879.3321449027 Eh  6.546 eV  52794.5 cm**-1
      0.56311 [     0]: 01122
      0.31572 [    11]: 11121
      0.09142 [    29]: 21120
      0.01290 [    18]: 12111
      0.00655 [    34]: 22110
      0.00415 [     2]: 01221
ROOT  40:  E=   -2879.2777064241 Eh  8.027 eV  64742.3 cm**-1
      0.69652 [     2]: 01221
      0.25173 [    14]: 11220
      0.01856 [     3]: 02112
      0.01318 [    18]: 12111
      0.00514 [    21]: 12210
      0.00452 [    11]: 11121
      0.00387 [    34]: 22110
ROOT  41:  E=   -2879.2504056505 Eh  8.770 eV  70734.2 cm**-1
      0.44640 [     4]: 02121
      0.19266 [     1]: 01212
      0.18199 [    19]: 12120
      0.13917 [    13]: 11211
      0.03682 [    31]: 21210
ROOT  42:  E=   -2879.2129129569 Eh  9.790 eV  78962.9 cm**-1
      0.32359 [     1]: 01212
      0.26190 [     4]: 02121
      0.24231 [    13]: 11211
      0.10589 [    19]: 12120
      0.06145 [    31]: 21210
ROOT  43:  E=   -2879.1893220218 Eh 10.432 eV  84140.5 cm**-1
      0.46837 [     3]: 02112
      0.37570 [    18]: 12111
      0.10324 [    34]: 22110
      0.02851 [     2]: 01221
      0.00989 [    14]: 11220
      0.00827 [     5]: 02211
      0.00315 [     0]: 01122
ROOT  44:  E=   -2879.1484630324 Eh 11.544 eV  93108.0 cm**-1
      0.68105 [     5]: 02211
      0.30303 [    21]: 12210
      0.00507 [    18]: 12111
      0.00494 [     3]: 02112
      0.00261 [     2]: 01221

                 <<<<<<<<<<<<<<<<<<INITIAL CI STATE CHECK>>>>>>>>>>>>>>>>>>

   E(CAS)= -2879.502626000 Eh DE=    0.000000e+00
   --- Energy gap subspaces: Ext-Act = 0.069   Act-Int = 0.120
   N(occ)=  1.20000 1.20000 1.20000 1.20000 1.20000
   ||g|| =     2.596651e+00 Max(G)=    4.957725e-01 Rot=452,1
   --- Orbital Update [SuperCI(PT)]
   --- Canonicalize Internal Space
   --- Canonicalize External Space
   --- SX_PT (Skipped TA=0 IT=0): ||X|| =      0.753589903 Max(X)(124,122) =      0.265328922 
   --- SFit(Active Orbitals)

MACRO-ITERATION   2: 
   --- Inactive Energy E0 = -2865.50467374 Eh
CI-ITERATION   0: 
 -2879.816935245   0.000000000000 (    0.38)
 -2879.798331331   0.000000000000
 -2879.779625263   0.000000000000
 -2879.772337457   0.000000000000
 -2879.578927716   0.000000000000
   CI-PROBLEM SOLVED
   DENSITIES MADE
CI-ITERATION   0: 
 -2879.893465511   0.000000000000 (    2.20)
 -2879.885975375   0.000000000000
 -2879.882061198   0.000000000000
 -2879.845298795   0.000000000000
 -2879.824266215   0.000000000000
 -2879.814616525   0.000000000000
 -2879.767416901   0.000000000000
 -2879.755648871   0.000000000000
 -2879.751825235   0.000000000000
 -2879.748604393   0.000000000000
 -2879.747904992   0.000000000000
 -2879.743173416   0.000000000000
 -2879.740770278   0.000000000000
 -2879.727543782   0.000000000000
 -2879.722282120   0.000000000000
 -2879.718713360   0.000000000000
 -2879.714003784   0.000000000000
 -2879.709293836   0.000000000000
 -2879.703742121   0.000000000000
 -2879.700370896   0.000000000000
 -2879.692905687   0.000000000000
 -2879.684312722   0.000000000000
 -2879.684155320   0.000000000000
 -2879.674029569   0.000000000000
 -2879.672961702   0.000000000000
 -2879.669166995   0.000000000000
 -2879.622738378   0.000000000000
 -2879.589703459   0.000000000000
 -2879.573054312   0.000000000000
 -2879.564760219   0.000000000000
 -2879.526581954   0.000000000000
 -2879.516422458   0.000000000000
 -2879.496354115   0.000000000000
 -2879.492815044   0.000000000000
 -2879.487985663   0.000000000000
 -2879.487867161   0.000000000000
 -2879.478529331   0.000000000000
 -2879.457475691   0.000000000000
 -2879.455626840   0.000000000000
 -2879.426622729   0.000000000000
 -2879.420561668   0.000000000000
 -2879.419778763   0.000000000000
 -2879.394504111   0.000000000000
 -2879.374284168   0.000000000000
 -2879.369589231   0.000000000000
   CI-PROBLEM SOLVED
   DENSITIES MADE
   E(CAS)= -2879.692724200 Eh DE=   -1.900982e-01
   --- Energy gap subspaces: Ext-Act = 0.326   Act-Int = -0.443
   N(occ)=  1.20000 1.20000 1.20000 1.20000 1.20000
   ||g|| =     2.524212e+00 Max(G)=    5.940554e-01 Rot=129,124
   --- Orbital Update [SuperCI(PT)]
   --- Canonicalize Internal Space
   --- Canonicalize External Space
   --- SX_PT (Skipped TA=0 IT=0): ||X|| =     37.768898579 Max(X)(127,123) =     36.498446793 
   --- SFit(Active Orbitals)

MACRO-ITERATION   3: 
   --- Inactive Energy E0 = -2866.95201000 Eh
CI-ITERATION   0: 
 -2879.923345182   0.000000000000 (    0.00)
 -2879.919977909   0.000000000000
 -2879.911590793   0.000000000000
 -2879.891975548   0.000000000000
 -2879.806154334   0.000000000000
   CI-PROBLEM SOLVED
   DENSITIES MADE
CI-ITERATION   0: 
 -2879.924504008   0.000000000000 (    0.05)
 -2879.917319532   0.000000000000
 -2879.903367886   0.000000000000
 -2879.888626892   0.000000000000
 -2879.885316862   0.000000000000
 -2879.869770264   0.000000000000
 -2879.865881584   0.000000000000
 -2879.861304488   0.000000000000
 -2879.858709731   0.000000000000
 -2879.856046100   0.000000000000
 -2879.850504237   0.000000000000
 -2879.848942656   0.000000000000
 -2879.847929048   0.000000000000
 -2879.847046240   0.000000000000
 -2879.844820352   0.000000000000
 -2879.837126672   0.000000000000
 -2879.833317304   0.000000000000
 -2879.830318996   0.000000000000
 -2879.828387805   0.000000000000
 -2879.821018293   0.000000000000
 -2879.818545516   0.000000000000
 -2879.814282701   0.000000000000
 -2879.805403033   0.000000000000
 -2879.800646514   0.000000000000
 -2879.799911722   0.000000000000
 -2879.792536380   0.000000000000
 -2879.749441738   0.000000000000
 -2879.744995635   0.000000000000
 -2879.742192950   0.000000000000
 -2879.730411344   0.000000000000
 -2879.720544283   0.000000000000
 -2879.718790878   0.000000000000
 -2879.714636068   0.000000000000
 -2879.710208136   0.000000000000
 -2879.709753814   0.000000000000
 -2879.692527716   0.000000000000
 -2879.691883191   0.000000000000
 -2879.683237786   0.000000000000
 -2879.681192431   0.000000000000
 -2879.666238352   0.000000000000
 -2879.658924960   0.000000000000
 -2879.644233347   0.000000000000
 -2879.624783732   0.000000000000
 -2879.616080181   0.000000000000
 -2879.606984254   0.000000000000
   CI-PROBLEM SOLVED
   DENSITIES MADE
   E(CAS)= -2879.835955994 Eh DE=   -1.432318e-01
   --- Energy gap subspaces: Ext-Act = 0.274   Act-Int = -0.219
   N(occ)=  1.20000 1.20000 1.20000 1.20000 1.20000
   ||g|| =     1.476708e+00 Max(G)=    3.824964e-01 Rot=129,124
   --- Orbital Update [SuperCI(PT)]
   --- Canonicalize Internal Space
   --- Canonicalize External Space
   --- SX_PT (Skipped TA=0 IT=0): ||X|| =      0.611251713 Max(X)(129,124) =     -0.360491483 
   --- SFit(Active Orbitals)

MACRO-ITERATION   4: 
   --- Inactive Energy E0 = -2868.30930146 Eh
CI-ITERATION   0: 
 -2880.052441605   0.000000000000 (    0.00)
 -2880.017226515   0.000000000000
 -2880.007937695   0.000000000000
 -2879.992159342   0.000000000000
 -2879.982246313   0.000000000000
   CI-PROBLEM SOLVED
   DENSITIES MADE
CI-ITERATION   0: 
 -2879.972356034   0.000000000000 (    0.05)
 -2879.967668907   0.000000000000
 -2879.965941353   0.000000000000
 -2879.965315028   0.000000000000
 -2879.960307886   0.000000000000
 -2879.959243772   0.000000000000
 -2879.952047240   0.000000000000
 -2879.947937659   0.000000000000
 -2879.945624745   0.000000000000
 -2879.939699432   0.000000000000
 -2879.938260759   0.000000000000
 -2879.936495175   0.000000000000
 -2879.936224015   0.000000000000
 -2879.933875969   0.000000000000
 -2879.933458930   0.000000000000
 -2879.930656662   0.000000000000
 -2879.929785401   0.000000000000
 -2879.924481681   0.000000000000
 -2879.921643124   0.000000000000
 -2879.921144001   0.000000000000
 -2879.915931040   0.000000000000
 -2879.914876315   0.000000000000
 -2879.911056653   0.000000000000
 -2879.906877709   0.000000000000
 -2879.905760558   0.000000000000
 -2879.901573645   0.000000000000
 -2879.899849654   0.000000000000
 -2879.895838713   0.000000000000
 -2879.891207827   0.000000000000
 -2879.887739915   0.000000000000
 -2879.883457022   0.000000000000
 -2879.879751845   0.000000000000
 -2879.872889432   0.000000000000
 -2879.862424719   0.000000000000
 -2879.857082415   0.000000000000
 -2879.834150526   0.000000000000
 -2879.819627091   0.000000000000
 -2879.813814070   0.000000000000
 -2879.808741535   0.000000000000
 -2879.799495311   0.000000000000
 -2879.793262101   0.000000000000
 -2879.790411249   0.000000000000
 -2879.781269912   0.000000000000
 -2879.774501589   0.000000000000
 -2879.766607077   0.000000000000
   CI-PROBLEM SOLVED
   DENSITIES MADE
   E(CAS)= -2879.952427432 Eh DE=   -1.164714e-01
   --- Energy gap subspaces: Ext-Act = 0.121   Act-Int = 0.125
   N(occ)=  1.20000 1.20000 1.20000 1.20000 1.20000
   ||g|| =     7.438605e-01 Max(G)=   -1.405637e-01 Rot=452,17
   --- Orbital Update [SuperCI(PT)]
   --- Canonicalize Internal Space
   --- Canonicalize External Space
   --- SX_PT (Skipped TA=0 IT=0): ||X|| =      0.391137316 Max(X)(127,123) =      0.167249381 
   --- SFit(Active Orbitals)

MACRO-ITERATION   5: 
   --- Inactive Energy E0 = -2866.74920271 Eh
CI-ITERATION   0: 
 -2880.092598642   0.000000000000 (    0.00)
 -2880.073671384   0.000000000000
 -2880.069784751   0.000000000000
 -2880.058569409   0.000000000000
 -2880.057804198   0.000000000000
   CI-PROBLEM SOLVED
   DENSITIES MADE
CI-ITERATION   0: 
 -2880.008935657   0.000000000000 (    0.00)
 -2880.006659232   0.000000000000
 -2880.002672397   0.000000000000
 -2880.002145380   0.000000000000
 -2879.997810893   0.000000000000
 -2879.996158744   0.000000000000
 -2879.994827112   0.000000000000
 -2879.992687346   0.000000000000
 -2879.988359384   0.000000000000
 -2879.987248934   0.000000000000
 -2879.985058075   0.000000000000
 -2879.983641298   0.000000000000
 -2879.983169625   0.000000000000
 -2879.981815959   0.000000000000
 -2879.979515538   0.000000000000
 -2879.977988387   0.000000000000
 -2879.976624871   0.000000000000
 -2879.975901705   0.000000000000
 -2879.975155895   0.000000000000
 -2879.973604062   0.000000000000
 -2879.972385656   0.000000000000
 -2879.969275354   0.000000000000
 -2879.967715689   0.000000000000
 -2879.967382809   0.000000000000
 -2879.965229036   0.000000000000
 -2879.963957932   0.000000000000
 -2879.962788178   0.000000000000
 -2879.959153372   0.000000000000
 -2879.957709380   0.000000000000
 -2879.950858766   0.000000000000
 -2879.941745021   0.000000000000
 -2879.938446599   0.000000000000
 -2879.937788543   0.000000000000
 -2879.935443699   0.000000000000
 -2879.934241054   0.000000000000
 -2879.871398906   0.000000000000
 -2879.867390316   0.000000000000
 -2879.862581587   0.000000000000
 -2879.861340442   0.000000000000
 -2879.855294545   0.000000000000
 -2879.848997194   0.000000000000
 -2879.847736068   0.000000000000
 -2879.844907004   0.000000000000
 -2879.838038802   0.000000000000
 -2879.833398340   0.000000000000
   CI-PROBLEM SOLVED
   DENSITIES MADE
   E(CAS)= -2880.008856002 Eh DE=   -5.642857e-02
   --- Energy gap subspaces: Ext-Act = 0.156   Act-Int = 0.060
   N(occ)=  1.20000 1.20000 1.20000 1.20000 1.20000
   ||g|| =     4.579507e-01 Max(G)=    8.912684e-02 Rot=127,15
   --- Orbital Update [SuperCI(PT)]
   --- Canonicalize Internal Space
   --- Canonicalize External Space
   --- SX_PT (Skipped TA=0 IT=0): ||X|| =      0.275628641 Max(X)(127,123) =      0.108878473 
   --- SFit(Active Orbitals)

MACRO-ITERATION   6: 
   --- Inactive Energy E0 = -2865.87787274 Eh
CI-ITERATION   0: 
 -2880.111404208   0.000000000000 (    0.38)
 -2880.106002964   0.000000000000
 -2880.099358006   0.000000000000
 -2880.093214172   0.000000000000
 -2880.090502549   0.000000000000
   CI-PROBLEM SOLVED
   DENSITIES MADE
CI-ITERATION   0: 
 -2880.024379126   0.000000000000 (    0.05)
 -2880.022799354   0.000000000000
 -2880.022017538   0.000000000000
 -2880.019364150   0.000000000000
 -2880.016705946   0.000000000000
 -2880.015889020   0.000000000000
 -2880.013908656   0.000000000000
 -2880.013401811   0.000000000000
 -2880.012754431   0.000000000000
 -2880.011453090   0.000000000000
 -2880.009108394   0.000000000000
 -2880.005738861   0.000000000000
 -2880.004765125   0.000000000000
 -2880.003933921   0.000000000000
 -2880.000541638   0.000000000000
 -2879.999284308   0.000000000000
 -2879.998961363   0.000000000000
 -2879.997077451   0.000000000000
 -2879.996493405   0.000000000000
 -2879.996193092   0.000000000000
 -2879.994950614   0.000000000000
 -2879.993475043   0.000000000000
 -2879.992400667   0.000000000000
 -2879.991572544   0.000000000000
 -2879.988570154   0.000000000000
 -2879.987642613   0.000000000000
 -2879.985337781   0.000000000000
 -2879.983966360   0.000000000000
 -2879.982693690   0.000000000000
 -2879.982127235   0.000000000000
 -2879.959824945   0.000000000000
 -2879.958513670   0.000000000000
 -2879.957763935   0.000000000000
 -2879.954582183   0.000000000000
 -2879.953045960   0.000000000000
 -2879.875528268   0.000000000000
 -2879.872052075   0.000000000000
 -2879.867501848   0.000000000000
 -2879.866158973   0.000000000000
 -2879.863205205   0.000000000000
 -2879.862475277   0.000000000000
 -2879.858087757   0.000000000000
 -2879.855416922   0.000000000000
 -2879.854543034   0.000000000000
 -2879.849520998   0.000000000000
   CI-PROBLEM SOLVED
   DENSITIES MADE
   E(CAS)= -2880.033111839 Eh DE=   -2.425584e-02
   --- Energy gap subspaces: Ext-Act = 0.131   Act-Int = 0.073
   N(occ)=  1.20000 1.20000 1.20000 1.20000 1.20000
   ||g|| =     6.040206e-01 Max(G)=    1.076263e-01 Rot=127,15
   --- Orbital Update [SuperCI(PT)]
   --- Canonicalize Internal Space
   --- Canonicalize External Space
   --- SX_PT (Skipped TA=0 IT=0): ||X|| =      0.247390015 Max(X)(128,122) =      0.095584008 
   --- SFit(Active Orbitals)

MACRO-ITERATION   7: 
   --- Inactive Energy E0 = -2864.88851484 Eh
CI-ITERATION   0: 
 -2880.130706671   0.000000000000 (    0.00)
 -2880.127156355   0.000000000000
 -2880.120777400   0.000000000000
 -2880.119843009   0.000000000000
 -2880.110514226   0.000000000000
   CI-PROBLEM SOLVED
   DENSITIES MADE
CI-ITERATION   0: 
 -2880.043995824   0.000000000000 (    0.00)
 -2880.043057310   0.000000000000
 -2880.037769633   0.000000000000
 -2880.036781693   0.000000000000
 -2880.035753225   0.000000000000
 -2880.033730977   0.000000000000
 -2880.031848538   0.000000000000
 -2880.031033462   0.000000000000
 -2880.030722991   0.000000000000
 -2880.026638355   0.000000000000
 -2880.026309431   0.000000000000
 -2880.022448670   0.000000000000
 -2880.022146968   0.000000000000
 -2880.022027608   0.000000000000
 -2880.016781352   0.000000000000
 -2880.015930752   0.000000000000
 -2880.013754219   0.000000000000
 -2880.013574000   0.000000000000
 -2880.012746605   0.000000000000
 -2880.010979497   0.000000000000
 -2880.009697539   0.000000000000
 -2880.008964436   0.000000000000
 -2880.007901867   0.000000000000
 -2880.007521640   0.000000000000
 -2880.005981369   0.000000000000
 -2880.001281339   0.000000000000
 -2879.999392177   0.000000000000
 -2879.998996837   0.000000000000
 -2879.998558600   0.000000000000
 -2879.997562899   0.000000000000
 -2879.976046120   0.000000000000
 -2879.973077280   0.000000000000
 -2879.970180799   0.000000000000
 -2879.968584287   0.000000000000
 -2879.966030976   0.000000000000
 -2879.883354878   0.000000000000
 -2879.876481300   0.000000000000
 -2879.874275812   0.000000000000
 -2879.873608416   0.000000000000
 -2879.871774208   0.000000000000
 -2879.868635316   0.000000000000
 -2879.867088433   0.000000000000
 -2879.865928828   0.000000000000
 -2879.864563550   0.000000000000
 -2879.861362188   0.000000000000
   CI-PROBLEM SOLVED
   DENSITIES MADE
   E(CAS)= -2880.051176235 Eh DE=   -1.806440e-02
   --- Energy gap subspaces: Ext-Act = 0.174   Act-Int = 0.021
   N(occ)=  1.20000 1.20000 1.20000 1.20000 1.20000
   ||g|| =     3.890766e-01 Max(G)=    1.152049e-01 Rot=127,15
   --- Orbital Update [SuperCI(PT)]
   --- Canonicalize Internal Space
   --- Canonicalize External Space
   --- SX_PT (Skipped TA=0 IT=0): ||X|| =      0.166359279 Max(X)(127,122) =     -0.043374549 
   --- SFit(Active Orbitals)

MACRO-ITERATION   8: 
   --- Inactive Energy E0 = -2864.81086923 Eh
CI-ITERATION   0: 
 -2880.134795281   0.000000000000 (    0.38)
 -2880.132067862   0.000000000000
 -2880.126242098   0.000000000000
 -2880.125959608   0.000000000000
 -2880.116051759   0.000000000000
   CI-PROBLEM SOLVED
   DENSITIES MADE
CI-ITERATION   0: 
 -2880.047612101   0.000000000000 (    0.05)
 -2880.046256071   0.000000000000
 -2880.041761447   0.000000000000
 -2880.041012453   0.000000000000
 -2880.040201411   0.000000000000
 -2880.038278640   0.000000000000
 -2880.036313391   0.000000000000
 -2880.036189522   0.000000000000
 -2880.035664285   0.000000000000
 -2880.031914522   0.000000000000
 -2880.031555419   0.000000000000
 -2880.027899514   0.000000000000
 -2880.026941342   0.000000000000
 -2880.026805199   0.000000000000
 -2880.021909149   0.000000000000
 -2880.020993360   0.000000000000
 -2880.018872504   0.000000000000
 -2880.018731237   0.000000000000
 -2880.018233052   0.000000000000
 -2880.016523045   0.000000000000
 -2880.014682114   0.000000000000
 -2880.014416169   0.000000000000
 -2880.013225290   0.000000000000
 -2880.012970958   0.000000000000
 -2880.011603195   0.000000000000
 -2880.006561248   0.000000000000
 -2880.005130166   0.000000000000
 -2880.004716240   0.000000000000
 -2880.004412283   0.000000000000
 -2880.003599251   0.000000000000
 -2879.980506730   0.000000000000
 -2879.978058818   0.000000000000
 -2879.975138829   0.000000000000
 -2879.973856869   0.000000000000
 -2879.971408787   0.000000000000
 -2879.887232929   0.000000000000
 -2879.881164281   0.000000000000
 -2879.879256644   0.000000000000
 -2879.878807335   0.000000000000
 -2879.877434329   0.000000000000
 -2879.873672369   0.000000000000
 -2879.871589647   0.000000000000
 -2879.870934506   0.000000000000
 -2879.869550791   0.000000000000
 -2879.866363641   0.000000000000
   CI-PROBLEM SOLVED
   DENSITIES MADE
   E(CAS)= -2880.056289006 Eh DE=   -5.112771e-03
   --- Energy gap subspaces: Ext-Act = 0.188   Act-Int = 0.009
   N(occ)=  1.20000 1.20000 1.20000 1.20000 1.20000
   ||g|| =     3.084615e-01 Max(G)=    1.090053e-01 Rot=127,15
   --- Orbital Update [SuperCI(PT)]
   --- Canonicalize Internal Space
   --- Canonicalize External Space
   --- SX_PT (Skipped TA=0 IT=0): ||X|| =      0.145715647 Max(X)(127,122) =     -0.033399075 
   --- SFit(Active Orbitals)

MACRO-ITERATION   9: 
   --- Inactive Energy E0 = -2864.59140724 Eh
CI-ITERATION   0: 
 -2880.138993539   0.000000000000 (    0.38)
 -2880.136980412   0.000000000000
 -2880.132145787   0.000000000000
 -2880.131896346   0.000000000000
 -2880.122139790   0.000000000000
   CI-PROBLEM SOLVED
   DENSITIES MADE
CI-ITERATION   0: 
 -2880.049786364   0.000000000000 (    0.05)
 -2880.048098617   0.000000000000
 -2880.044681717   0.000000000000
 -2880.043869909   0.000000000000
 -2880.043363012   0.000000000000
 -2880.041724961   0.000000000000
 -2880.040241932   0.000000000000
 -2880.039903942   0.000000000000
 -2880.039494797   0.000000000000
 -2880.036122132   0.000000000000
 -2880.035793776   0.000000000000
 -2880.032141169   0.000000000000
 -2880.030566938   0.000000000000
 -2880.030406200   0.000000000000
 -2880.025703036   0.000000000000
 -2880.024971645   0.000000000000
 -2880.022962580   0.000000000000
 -2880.022850989   0.000000000000
 -2880.022653486   0.000000000000
 -2880.021279997   0.000000000000
 -2880.019142071   0.000000000000
 -2880.017945416   0.000000000000
 -2880.017265727   0.000000000000
 -2880.017135049   0.000000000000
 -2880.015700655   0.000000000000
 -2880.010737209   0.000000000000
 -2880.009774276   0.000000000000
 -2880.009372817   0.000000000000
 -2880.009113926   0.000000000000
 -2880.008539097   0.000000000000
 -2879.983014391   0.000000000000
 -2879.981307175   0.000000000000
 -2879.978482271   0.000000000000
 -2879.977430801   0.000000000000
 -2879.975276548   0.000000000000
 -2879.887678421   0.000000000000
 -2879.882521564   0.000000000000
 -2879.881752284   0.000000000000
 -2879.880912322   0.000000000000
 -2879.879669573   0.000000000000
 -2879.875580014   0.000000000000
 -2879.873483142   0.000000000000
 -2879.872997921   0.000000000000
 -2879.871495787   0.000000000000
 -2879.869008422   0.000000000000
   CI-PROBLEM SOLVED
   DENSITIES MADE
   E(CAS)= -2880.060681744 Eh DE=   -4.392738e-03
   --- Energy gap subspaces: Ext-Act = 0.198   Act-Int = -0.002
   N(occ)=  1.20000 1.20000 1.20000 1.20000 1.20000
   ||g|| =     2.727879e-01 Max(G)=    1.003772e-01 Rot=127,15
   --- Orbital Update [SuperCI(PT)]
   --- Canonicalize Internal Space
   --- Canonicalize External Space
   --- SX_PT (Skipped TA=0 IT=0): ||X|| =      0.124712357 Max(X)(125,122) =      0.026854279 
   --- SFit(Active Orbitals)

MACRO-ITERATION  10: 
   --- Inactive Energy E0 = -2864.46253190 Eh
CI-ITERATION   0: 
 -2880.141984387   0.000000000000 (    0.29)
 -2880.141897416   0.000000000000
 -2880.137093152   0.000000000000
 -2880.136585239   0.000000000000
 -2880.127914608   0.000000000000
   CI-PROBLEM SOLVED
   DENSITIES MADE
CI-ITERATION   0: 
 -2880.051850442   0.000000000000 (    0.04)
 -2880.050106737   0.000000000000
 -2880.048039854   0.000000000000
 -2880.046531498   0.000000000000
 -2880.046224746   0.000000000000
 -2880.045486474   0.000000000000
 -2880.044365754   0.000000000000
 -2880.043952647   0.000000000000
 -2880.043111865   0.000000000000
 -2880.040487354   0.000000000000
 -2880.040149293   0.000000000000
 -2880.035932603   0.000000000000
 -2880.033987364   0.000000000000
 -2880.033761674   0.000000000000
 -2880.029470584   0.000000000000
 -2880.029253553   0.000000000000
 -2880.027638204   0.000000000000
 -2880.027329263   0.000000000000
 -2880.027009124   0.000000000000
 -2880.026533168   0.000000000000
 -2880.024382460   0.000000000000
 -2880.021279420   0.000000000000
 -2880.021123820   0.000000000000
 -2880.021117625   0.000000000000
 -2880.019544845   0.000000000000
 -2880.015280555   0.000000000000
 -2880.014702529   0.000000000000
 -2880.014216077   0.000000000000
 -2880.014098822   0.000000000000
 -2880.013658024   0.000000000000
 -2879.985924854   0.000000000000
 -2879.985057898   0.000000000000
 -2879.982277484   0.000000000000
 -2879.981316339   0.000000000000
 -2879.979649304   0.000000000000
 -2879.890431316   0.000000000000
 -2879.885782609   0.000000000000
 -2879.885126111   0.000000000000
 -2879.884710061   0.000000000000
 -2879.882308857   0.000000000000
 -2879.878324142   0.000000000000
 -2879.876601929   0.000000000000
 -2879.876014447   0.000000000000
 -2879.874783040   0.000000000000
 -2879.872365858   0.000000000000
   CI-PROBLEM SOLVED
   DENSITIES MADE
   E(CAS)= -2880.064895265 Eh DE=   -4.213521e-03
   --- Energy gap subspaces: Ext-Act = 0.209   Act-Int = -0.011
   N(occ)=  1.20000 1.20000 1.20000 1.20000 1.20000
   ||g|| =     2.304161e-01 Max(G)=    8.661595e-02 Rot=127,15
   --- Orbital Update [SuperCI(PT)]
   --- Canonicalize Internal Space
   --- Canonicalize External Space
   --- SX_PT (Skipped TA=0 IT=0): ||X|| =      0.104371556 Max(X)(125,122) =      0.022013667 
   --- SFit(Active Orbitals)

MACRO-ITERATION  11: 
   --- Inactive Energy E0 = -2864.41201318 Eh
CI-ITERATION   0: 
 -2880.145527374   0.000000000000 (    0.29)
 -2880.144040860   0.000000000000
 -2880.139905768   0.000000000000
 -2880.139496389   0.000000000000
 -2880.131714427   0.000000000000
   CI-PROBLEM SOLVED
   DENSITIES MADE
CI-ITERATION   0: 
 -2880.053514971   0.000000000000 (    1.02)
 -2880.051831572   0.000000000000
 -2880.050705207   0.000000000000
 -2880.048643806   0.000000000000
 -2880.048565119   0.000000000000
 -2880.048077357   0.000000000000
 -2880.047090463   0.000000000000
 -2880.046901586   0.000000000000
 -2880.045759888   0.000000000000
 -2880.043448285   0.000000000000
 -2880.043093348   0.000000000000
 -2880.038435047   0.000000000000
 -2880.036432490   0.000000000000
 -2880.036173234   0.000000000000
 -2880.032318464   0.000000000000
 -2880.032070133   0.000000000000
 -2880.030970109   0.000000000000
 -2880.030581000   0.000000000000
 -2880.029901331   0.000000000000
 -2880.029760075   0.000000000000
 -2880.027947234   0.000000000000
 -2880.023835868   0.000000000000
 -2880.023749105   0.000000000000
 -2880.023582795   0.000000000000
 -2880.022088506   0.000000000000
 -2880.018490721   0.000000000000
 -2880.017988378   0.000000000000
 -2880.017498048   0.000000000000
 -2880.017398297   0.000000000000
 -2880.016968672   0.000000000000
 -2879.988080344   0.000000000000
 -2879.987766135   0.000000000000
 -2879.984946115   0.000000000000
 -2879.983995938   0.000000000000
 -2879.982697643   0.000000000000
 -2879.893028319   0.000000000000
 -2879.888813541   0.000000000000
 -2879.888154797   0.000000000000
 -2879.886756639   0.000000000000
 -2879.884265609   0.000000000000
 -2879.880537418   0.000000000000
 -2879.879145210   0.000000000000
 -2879.878121627   0.000000000000
 -2879.877033464   0.000000000000
 -2879.874775363   0.000000000000
   CI-PROBLEM SOLVED
   DENSITIES MADE
   E(CAS)= -2880.067756696 Eh DE=   -2.861431e-03
   --- Energy gap subspaces: Ext-Act = 0.213   Act-Int = -0.015
   N(occ)=  1.20000 1.20000 1.20000 1.20000 1.20000
   ||g|| =     1.971277e-01 Max(G)=    7.466752e-02 Rot=127,15
   --- Orbital Update [SuperCI(PT)]
   --- Canonicalize Internal Space
   --- Canonicalize External Space
   --- SX_PT (Skipped TA=0 IT=0): ||X|| =      0.089078102 Max(X)(127,116) =      0.018463697 
   --- SFit(Active Orbitals)

MACRO-ITERATION  12: 
   --- Inactive Energy E0 = -2864.35306702 Eh
CI-ITERATION   0: 
 -2880.150296933   0.000000000000 (    0.00)
 -2880.147588356   0.000000000000
 -2880.143406534   0.000000000000
 -2880.143001497   0.000000000000
 -2880.136732012   0.000000000000
   CI-PROBLEM SOLVED
   DENSITIES MADE
CI-ITERATION   0: 
 -2880.055925968   0.000000000000 (    0.04)
 -2880.054465656   0.000000000000
 -2880.054377783   0.000000000000
 -2880.052374733   0.000000000000
 -2880.051643966   0.000000000000
 -2880.051602539   0.000000000000
 -2880.050787361   0.000000000000
 -2880.050358996   0.000000000000
 -2880.049535861   0.000000000000
 -2880.047025268   0.000000000000
 -2880.046740123   0.000000000000
 -2880.041689709   0.000000000000
 -2880.039713881   0.000000000000
 -2880.039563157   0.000000000000
 -2880.036095745   0.000000000000
 -2880.035988864   0.000000000000
 -2880.035173599   0.000000000000
 -2880.034822829   0.000000000000
 -2880.033674420   0.000000000000
 -2880.033147053   0.000000000000
 -2880.032355789   0.000000000000
 -2880.027198489   0.000000000000
 -2880.027099588   0.000000000000
 -2880.026851853   0.000000000000
 -2880.025342150   0.000000000000
 -2880.022754890   0.000000000000
 -2880.022102736   0.000000000000
 -2880.021695933   0.000000000000
 -2880.021342378   0.000000000000
 -2880.020982077   0.000000000000
 -2879.991290593   0.000000000000
 -2879.990853773   0.000000000000
 -2879.988318637   0.000000000000
 -2879.987345207   0.000000000000
 -2879.986571522   0.000000000000
 -2879.896454064   0.000000000000
 -2879.892527947   0.000000000000
 -2879.892045929   0.000000000000
 -2879.888996395   0.000000000000
 -2879.886689335   0.000000000000
 -2879.883708033   0.000000000000
 -2879.881693371   0.000000000000
 -2879.881133760   0.000000000000
 -2879.879359770   0.000000000000
 -2879.877779517   0.000000000000
   CI-PROBLEM SOLVED
   DENSITIES MADE
   E(CAS)= -2880.071515880 Eh DE=   -3.759185e-03
   --- Energy gap subspaces: Ext-Act = 0.216   Act-Int = -0.018
   N(occ)=  1.20000 1.20000 1.20000 1.20000 1.20000
   ||g|| =     1.438091e-01 Max(G)=    5.438455e-02 Rot=127,15
   --- Orbital Update [SuperCI(PT)]
   --- Canonicalize Internal Space
   --- Canonicalize External Space
   --- SX_PT (Skipped TA=0 IT=0): ||X|| =      0.064881309 Max(X)(127,116) =      0.013206043 
   --- SFit(Active Orbitals)

MACRO-ITERATION  13: 
   --- Inactive Energy E0 = -2864.33378573 Eh
CI-ITERATION   0: 
 -2880.152768955   0.000000000000 (    0.00)
 -2880.149671943   0.000000000000
 -2880.145445049   0.000000000000
 -2880.144371630   0.000000000000
 -2880.139286592   0.000000000000
   CI-PROBLEM SOLVED
   DENSITIES MADE
CI-ITERATION   0: 
 -2880.057333817   0.000000000000 (    0.00)
 -2880.056481131   0.000000000000
 -2880.055959000   0.000000000000
 -2880.054439827   0.000000000000
 -2880.053609500   0.000000000000
 -2880.053414399   0.000000000000
 -2880.052762257   0.000000000000
 -2880.052177007   0.000000000000
 -2880.051632065   0.000000000000
 -2880.048728114   0.000000000000
 -2880.048503560   0.000000000000
 -2880.043435146   0.000000000000
 -2880.041544293   0.000000000000
[...]
      pz      :     2.192313  p :     6.661193
      px      :     2.190906
      py      :     2.277974
      dz2     :     2.005738  d :    10.017362
      dxz     :     1.988951
      dyz     :     1.998830
      dx2y2   :     2.005886
      dxy     :     2.017957
      f0      :     0.000670  f :     0.005320
      f+1     :     0.000584
      f-1     :     0.000934
      f+2     :     0.000815
      f-2     :     0.000673
      f+3     :     0.000820
      f-3     :     0.000824
  7 Aus       :     2.524594  s :     2.524594
      pz      :     2.206602  p :     6.487874
      px      :     2.136415
      py      :     2.144857
      dz2     :     1.996978  d :     9.966620
      dxz     :     2.002015
      dyz     :     1.988494
      dx2y2   :     1.995539
      dxy     :     1.983593
      f0      :     0.000463  f :     0.004039
      f+1     :     0.000558
      f-1     :     0.000903
      f+2     :     0.000628
      f-2     :     0.000543
      f+3     :     0.000594
      f-3     :     0.000349
  8 Aus       :     2.601327  s :     2.601327
      pz      :     2.117304  p :     6.379022
      px      :     2.140990
      py      :     2.120728
      dz2     :     2.001981  d :     9.996863
      dxz     :     1.990987
      dyz     :     1.999832
      dx2y2   :     1.996923
      dxy     :     2.007139
      f0      :     0.000369  f :     0.003449
      f+1     :     0.000505
      f-1     :     0.000644
      f+2     :     0.000313
      f-2     :     0.000614
      f+3     :     0.000666
      f-3     :     0.000339
  9 Aus       :     2.459290  s :     2.459290
      pz      :     2.201079  p :     6.542889
      px      :     2.140149
      py      :     2.201661
      dz2     :     2.008128  d :     9.978196
      dxz     :     2.000088
      dyz     :     1.984408
      dx2y2   :     2.001210
      dxy     :     1.984363
      f0      :     0.000491  f :     0.004456
      f+1     :     0.000629
      f-1     :     0.001012
      f+2     :     0.000748
      f-2     :     0.000542
      f+3     :     0.000618
      f-3     :     0.000417
 10 Aus       :     2.524983  s :     2.524983
      pz      :     2.124065  p :     6.487908
      px      :     2.138620
      py      :     2.225222
      dz2     :     2.001353  d :     9.966219
      dxz     :     1.978451
      dyz     :     1.990409
      dx2y2   :     2.003587
      dxy     :     1.992418
      f0      :     0.000425  f :     0.004039
      f+1     :     0.000507
      f-1     :     0.000765
      f+2     :     0.000595
      f-2     :     0.000494
      f+3     :     0.000852
      f-3     :     0.000400
 11 Aus       :     2.595294  s :     2.595294
      pz      :     2.103273  p :     6.459083
      px      :     2.142761
      py      :     2.213049
      dz2     :     1.994877  d :     9.964179
      dxz     :     1.984365
      dyz     :     1.998484
      dx2y2   :     1.992601
      dxy     :     1.993852
      f0      :     0.000633  f :     0.004273
      f+1     :     0.000400
      f-1     :     0.000722
      f+2     :     0.000649
      f-2     :     0.000415
      f+3     :     0.000859
      f-3     :     0.000596
 12 Fes       :     6.315868  s :     6.315868
      pz      :     4.228463  p :    12.703161
      px      :     4.248069
      py      :     4.226629
      dz2     :     1.455092  d :     7.146358
      dxz     :     1.375686
      dyz     :     1.411000
      dx2y2   :     1.422761
      dxy     :     1.481819
      f0      :     0.000065  f :     0.000545
      f+1     :     0.000107
      f-1     :     0.000063
      f+2     :     0.000066
      f-2     :     0.000086
      f+3     :     0.000079
      f-3     :     0.000078

SPIN
  0 Aus       :     0.000448  s :     0.000448
      pz      :     0.000757  p :     0.002998
      px      :     0.000333
      py      :     0.001908
      dz2     :     0.001183  d :     0.008305
      dxz     :     0.000960
      dyz     :     0.002171
      dx2y2   :     0.001617
      dxy     :     0.002373
      f0      :     0.000025  f :     0.000201
      f+1     :     0.000012
      f-1     :     0.000019
      f+2     :     0.000019
      f-2     :     0.000070
      f+3     :     0.000023
      f-3     :     0.000033
  1 Aus       :     0.002169  s :     0.002169
      pz      :     0.000461  p :     0.001634
      px      :     0.000550
      py      :     0.000623
      dz2     :     0.000144  d :     0.000367
      dxz     :     0.000064
      dyz     :     0.000073
      dx2y2   :     0.000044
      dxy     :     0.000042
      f0      :     0.000001  f :     0.000004
      f+1     :     0.000000
      f-1     :     0.000002
      f+2     :     0.000000
      f-2     :     0.000001
      f+3     :     0.000000
      f-3     :     0.000000
  2 Aus       :     0.000685  s :     0.000685
      pz      :     0.001936  p :     0.002744
      px      :     0.000257
      py      :     0.000551
      dz2     :     0.002765  d :     0.008121
      dxz     :     0.002703
      dyz     :     0.001661
      dx2y2   :     0.000758
      dxy     :     0.000234
      f0      :     0.000029  f :     0.000151
      f+1     :     0.000068
      f-1     :     0.000017
      f+2     :     0.000017
      f-2     :     0.000017
      f+3     :     0.000002
      f-3     :     0.000002
  3 Aus       :     0.002382  s :     0.002382
      pz      :     0.000546  p :     0.002223
      px      :     0.000589
      py      :     0.001089
      dz2     :     0.002089  d :     0.009352
      dxz     :     0.000913
      dyz     :     0.001572
      dx2y2   :     0.002628
      dxy     :     0.002149
      f0      :     0.000017  f :     0.000153
      f+1     :     0.000002
      f-1     :     0.000027
      f+2     :     0.000031
      f-2     :     0.000013
      f+3     :     0.000029
      f-3     :     0.000033
  4 Aus       :     0.000688  s :     0.000688
      pz      :     0.000763  p :     0.002743
      px      :     0.001155
      py      :     0.000825
      dz2     :     0.001387  d :     0.008088
      dxz     :     0.001445
      dyz     :     0.001140
      dx2y2   :     0.002343
      dxy     :     0.001774
      f0      :     0.000012  f :     0.000149
      f+1     :     0.000030
      f-1     :     0.000012
      f+2     :     0.000009
      f-2     :     0.000012
      f+3     :     0.000025
      f-3     :     0.000049
  5 Aus       :     0.002168  s :     0.002168
      pz      :     0.000481  p :     0.001637
      px      :     0.000876
      py      :     0.000280
      dz2     :     0.000047  d :     0.000366
      dxz     :     0.000122
      dyz     :     0.000067
      dx2y2   :     0.000095
      dxy     :     0.000035
      f0      :     0.000000  f :     0.000004
      f+1     :     0.000000
      f-1     :     0.000000
      f+2     :     0.000001
      f-2     :     0.000001
      f+3     :     0.000001
      f-3     :     0.000000
  6 Aus       :     0.000872  s :     0.000872
      pz      :     0.000964  p :     0.001987
      px      :     0.000480
      py      :     0.000543
      dz2     :     0.001444  d :     0.006168
      dxz     :     0.002658
      dyz     :     0.001083
      dx2y2   :     0.000462
      dxy     :     0.000520
      f0      :     0.000011  f :     0.000117
      f+1     :     0.000060
      f-1     :     0.000006
      f+2     :     0.000026
      f-2     :     0.000010
      f+3     :     0.000002
      f-3     :     0.000003
  7 Aus       :     0.001332  s :     0.001332
      pz      :     0.000293  p :     0.001711
      px      :     0.000576
      py      :     0.000842
      dz2     :     0.000991  d :     0.007596
      dxz     :     0.000366
      dyz     :     0.001500
      dx2y2   :     0.001974
      dxy     :     0.002765
      f0      :     0.000010  f :     0.000147
      f+1     :     0.000009
      f-1     :     0.000027
      f+2     :     0.000004
      f-2     :     0.000017
      f+3     :     0.000051
      f-3     :     0.000030
  8 Aus       :     0.002242  s :     0.002242
      pz      :     0.000433  p :     0.001807
      px      :     0.000736
      py      :     0.000638
      dz2     :     0.000047  d :     0.000339
      dxz     :     0.000045
      dyz     :     0.000078
      dx2y2   :     0.000119
      dxy     :     0.000050
      f0      :     0.000000  f :     0.000001
      f+1     :     0.000000
      f-1     :     0.000000
      f+2     :     0.000000
      f-2     :     0.000000
      f+3     :     0.000000
      f-3     :     0.000000
  9 Aus       :     0.001143  s :     0.001143
      pz      :     0.000413  p :     0.002557
      px      :     0.000346
      py      :     0.001798
      dz2     :     0.000669  d :     0.006633
      dxz     :     0.000404
      dyz     :     0.001745
      dx2y2   :     0.001553
      dxy     :     0.002262
      f0      :     0.000014  f :     0.000130
      f+1     :     0.000005
      f-1     :     0.000018
      f+2     :     0.000006
      f-2     :     0.000025
      f+3     :     0.000047
      f-3     :     0.000015
 10 Aus       :     0.001322  s :     0.001322
      pz      :     0.000511  p :     0.001716
      px      :     0.000422
      py      :     0.000783
      dz2     :     0.001342  d :     0.007664
      dxz     :     0.002670
      dyz     :     0.001431
      dx2y2   :     0.001356
      dxy     :     0.000865
      f0      :     0.000014  f :     0.000150
      f+1     :     0.000041
      f-1     :     0.000013
      f+2     :     0.000030
      f-2     :     0.000033
      f+3     :     0.000010
      f-3     :     0.000009
 11 Aus       :     0.002161  s :     0.002161
      pz      :     0.000745  p :     0.001506
      px      :     0.000552
      py      :     0.000208
      dz2     :     0.001960  d :     0.006998
      dxz     :     0.002021
      dyz     :     0.001522
      dx2y2   :     0.001006
      dxy     :     0.000489
      f0      :     0.000013  f :     0.000114
      f+1     :     0.000038
      f-1     :     0.000027
      f+2     :     0.000011
      f-2     :     0.000019
      f+3     :     0.000004
      f-3     :     0.000003
 12 Fes       :     0.000206  s :     0.000206
      pz      :     0.000503  p :     0.001768
      px      :     0.000591
      py      :     0.000673
      dz2     :     0.576169  d :     2.883833
      dxz     :     0.577771
      dyz     :     0.580030
      dx2y2   :     0.578623
      dxy     :     0.571240
      f0      :     0.000000  f :     0.000002
      f+1     :     0.000000
      f-1     :     0.000000
      f+2     :     0.000000
      f-2     :     0.000000
      f+3     :     0.000000
      f-3     :     0.000000


                      *****************************
                      * MAYER POPULATION ANALYSIS *
                      *****************************

  NA   - Mulliken gross atomic population
  ZA   - Total nuclear charge
  QA   - Mulliken gross atomic charge
  VA   - Mayer's total valence
  BVA  - Mayer's bonded valence
  FA   - Mayer's free valence

  ATOM       NA         ZA         QA         VA         BVA        FA
  0 Au    18.6301    19.0000     0.3699     1.2888     1.2807     0.0081
  1 Au    18.6681    19.0000     0.3319     1.1617     1.1581     0.0036
  2 Au    18.9589    19.0000     0.0411     1.6406     1.6322     0.0084
  3 Au    19.2107    19.0000    -0.2107     1.8296     1.8175     0.0122
  4 Au    18.9568    19.0000     0.0432     1.6385     1.6301     0.0084
  5 Au    18.6692    19.0000     0.3308     1.1619     1.1582     0.0036
  6 Au    18.9612    19.0000     0.0388     1.8125     1.8056     0.0069
  7 Au    18.8489    19.0000     0.1511     1.4765     1.4682     0.0083
  8 Au    18.6915    19.0000     0.3085     1.1782     1.1746     0.0036
  9 Au    18.9315    19.0000     0.0685     1.6274     1.6193     0.0081
 10 Au    18.8502    19.0000     0.1498     1.4779     1.4696     0.0084
 11 Au    18.9236    19.0000     0.0764     1.3724     1.3632     0.0093
 12 Fe    27.6993    26.0000    -1.6993     8.6560     4.0492     4.6069

  Mayer bond orders larger than 0.100000
B(  0-Au,  3-Au) :   0.5026 B(  0-Au, 11-Au) :   0.1532 B(  0-Au, 12-Fe) :   0.4311 
B(  1-Au,  2-Au) :   0.4062 B(  1-Au,  3-Au) :   0.2175 B(  1-Au,  6-Au) :   0.2574 
B(  2-Au,  6-Au) :   0.2711 B(  2-Au,  7-Au) :   0.2583 B(  2-Au, 12-Fe) :   0.4132 
B(  3-Au,  5-Au) :   0.2153 B(  3-Au,  6-Au) :   0.1710 B(  3-Au, 12-Fe) :   0.5081 
B(  4-Au,  5-Au) :   0.4073 B(  4-Au,  6-Au) :   0.2737 B(  4-Au, 10-Au) :   0.2576 
B(  4-Au, 12-Fe) :   0.4122 B(  5-Au,  6-Au) :   0.2578 B(  6-Au,  9-Au) :   0.1738 
B(  6-Au, 12-Fe) :   0.3306 B(  7-Au,  8-Au) :   0.1807 B(  7-Au,  9-Au) :   0.1685 
B(  7-Au, 10-Au) :   0.1130 B(  7-Au, 11-Au) :   0.1987 B(  7-Au, 12-Fe) :   0.4037 
B(  8-Au,  9-Au) :   0.3767 B(  8-Au, 10-Au) :   0.1813 B(  8-Au, 11-Au) :   0.1555 
B(  8-Au, 12-Fe) :   0.1151 B(  9-Au, 10-Au) :   0.1677 B(  9-Au, 11-Au) :   0.1570 
B(  9-Au, 12-Fe) :   0.4446 B( 10-Au, 11-Au) :   0.1973 B( 10-Au, 12-Fe) :   0.4061 
B( 11-Au, 12-Fe) :   0.4542 


-------------------------------------------------------------
 Forming the transition density       ... done in 0.176981 sec
-------------------------------------------------------------



==========================================
CASSCF UV, CD spectra and dipole moments
==========================================
-------------------
ABSORPTION SPECTRUM
-------------------

Center of mass           = ( 12.0676, 14.7147, 11.1879)
Nuclear contribution to the dipole moment =    10.649984,   -0.317082,   15.066131 au

Calculating the Dipole integrals                  ... done
Transforming integrals                            ... done
Calculating the Linear Momentum integrals         ... done
Transforming integrals                            ... done
Calculating the Angular Momentum integrals        ... done
Transforming integrals                            ... done

------------------------------------------------------------------------------------------
                                ABSORPTION SPECTRUM
------------------------------------------------------------------------------------------
  States           Energy   Wavelength   fosc          T2        TX         TY        TZ  
                   (cm-1)     (nm)                   (D**2)      (D)        (D)       (D) 
------------------------------------------------------------------------------------------
  0( 0)-> 1( 0) 5     730.5   13689.6   0.000000743   0.00216   0.03580  -0.01538  -0.02535
  0( 0)-> 2( 0) 5    1745.3   5729.8   0.000002890   0.00352   0.03795   0.02673   0.03691
  0( 0)-> 3( 0) 5    2137.7   4677.9   0.000003783   0.00376  -0.04708   0.02022   0.03366
  0( 0)-> 4( 0) 5    2917.5   3427.6   0.000000593   0.00043   0.00663   0.01953  -0.00255
------------------------------------------------------------------------------------------



------------------------------------------------------------------------------
                             CD SPECTRUM
------------------------------------------------------------------------------
      States        Energy   Wavelength   R*T        RX        RY        RZ   
                    (cm-1)      (nm)   (1e40*sgs)   (au)      (au)      (au)  
------------------------------------------------------------------------------
  0( 0)-> 1( 0) 5     730.5   13689.6    -0.01421   0.06309   0.84117  -0.41810
  0( 0)-> 2( 0) 5    1745.3   5729.8     0.00601   0.27175  -0.11735  -0.19353
  0( 0)-> 3( 0) 5    2137.7   4677.9     0.02757   0.29626   0.25743   0.26416
  0( 0)-> 4( 0) 5    2917.5   3427.6     0.00813   0.25464  -0.10751  -0.17932
------------------------------------------------------------------------------

------------------------------------------------------------------------------
                                 DIPOLE MOMENTS
------------------------------------------------------------------------------
  Root  Block           TX        TY        TZ           |T|
                      (Debye)   (Debye)   (Debye)      (Debye)
------------------------------------------------------------------------------
    0    0           -0.41007  -0.41553  -0.32481      0.66808

--------------
CASSCF TIMINGS
--------------

Total time                       ...    13785.3 sec
Sum of individual times          ...    13675.7 sec ( 99.2%)

Calculation of AO operators
   F(Core) operator              ...     6819.7 sec ( 49.5%)
   G(Act) operator               ...     6212.6 sec ( 45.1%)
   J(AO) operators               ...        0.0 sec (  0.0%)
Calculation of MO transformed quantities
   J(MO) operators               ...      514.8 sec (  3.7%)
   (pq|rs) integrals             ...        0.0 sec (  0.0%)
   AO->MO one electron integrals ...        6.4 sec (  0.0%)
Configuration interaction steps
   CI-setup phase                ...        1.7 sec (  0.0%)
   CI-solution phase             ...       79.6 sec (  0.6%)
   Generation of densities       ...       14.6 sec (  0.1%)
Orbital improvement steps
   Orbital gradient              ...        1.5 sec (  0.0%)
   O(1) converger                ...       24.7 sec (  0.2%)
Properties                       ...        0.2 sec (  0.0%)
   SOC integral calculation      ...        0.0 sec (  0.0%)
   SSC RMEs (incl. integrals)    ...        0.0 sec (  0.0%)
   SOC RMEs                      ...        0.0 sec (  0.0%)

Maximum memory used throughout the entire CASSCF-calculation: 310.5 MB

-------------------------   --------------------
FINAL SINGLE POINT ENERGY     -2880.075868821016
-------------------------   --------------------


                            ***************************************
                            *     ORCA property calculations      *
                            ***************************************

                                    ---------------------
                                    Active property flags
                                    ---------------------
   (+) Dipole Moment


------------------------------------------------------------------------------
                       ORCA ELECTRIC PROPERTIES CALCULATION
------------------------------------------------------------------------------

Dipole Moment Calculation                       ... on
Quadrupole Moment Calculation                   ... off
Polarizability Calculation                      ... off
GBWName                                         ... casscf.gbw
Electron density                                ... casscf.scfp
The origin for moment calculation is the CENTER OF MASS  = (12.067624, 14.714731 11.187945)

-------------
DIPOLE MOMENT
-------------
                                X             Y             Z
Electronic contribution:    -10.82408       0.13245     -15.19894
Nuclear contribution   :     10.64998      -0.31708      15.06613
                        -----------------------------------------
Total Dipole Moment    :     -0.17410      -0.18463      -0.13281
                        -----------------------------------------
Magnitude (a.u.)       :      0.28642
Magnitude (Debye)      :      0.72802



--------------------
Rotational spectrum 
--------------------
 
Rotational constants in cm-1:     0.001839     0.001031     0.001025 
Rotational constants in MHz :    55.131531    30.894425    30.726366 

 Dipole components along the rotational axes: 
x,y,z [a.u.] :     0.015414     0.000090     0.286006 
x,y,z [Debye]:     0.039180     0.000229     0.726970 

 

Timings for individual modules:

Sum of individual times         ...    13929.550 sec (= 232.159 min)
GTO integral calculation        ...       65.384 sec (=   1.090 min)   0.5 %
SCF iterations                  ...       54.353 sec (=   0.906 min)   0.4 %
CASSCF iterations               ...    13809.813 sec (= 230.164 min)  99.1 %
                             ****ORCA TERMINATED NORMALLY****
TOTAL RUN TIME: 0 days 3 hours 52 minutes 10 seconds 562 msec
