
                                 *****************
                                 * O   R   C   A *
                                 *****************

                                            #,                                       
                                            ###                                      
                                            ####                                     
                                            #####                                    
                                            ######                                   
                                           ########,                                 
                                     ,,################,,,,,                         
                               ,,#################################,,                 
                          ,,##########################################,,             
                       ,#########################################, ''#####,          
                    ,#############################################,,   '####,        
                  ,##################################################,,,,####,       
                ,###########''''           ''''###############################       
              ,#####''   ,,,,##########,,,,          '''####'''          '####       
            ,##' ,,,,###########################,,,                        '##       
           ' ,,###''''                  '''############,,,                           
         ,,##''                                '''############,,,,        ,,,,,,###''
      ,#''                                            '''#######################'''  
     '                                                          ''''####''''         
             ,#######,   #######,   ,#######,      ##                                
            ,#'     '#,  ##    ##  ,#'     '#,    #''#        ######   ,####,        
            ##       ##  ##   ,#'  ##            #'  '#       #        #'  '#        
            ##       ##  #######   ##           ,######,      #####,   #    #        
            '#,     ,#'  ##    ##  '#,     ,#' ,#      #,         ##   #,  ,#        
             '#######'   ##     ##  '#######'  #'      '#     #####' # '####'        



                  #######################################################
                  #                        -***-                        #
                  #          Department of theory and spectroscopy      #
                  #    Directorship and core code : Frank Neese         #
                  #        Max Planck Institute fuer Kohlenforschung    #
                  #                Kaiser Wilhelm Platz 1               #
                  #                 D-45470 Muelheim/Ruhr               #
                  #                      Germany                        #
                  #                                                     #
                  #                  All rights reserved                #
                  #                        -***-                        #
                  #######################################################


                         Program Version 5.0.3 -  RELEASE  -


 With contributions from (in alphabetic order):
   Daniel Aravena         : Magnetic Suceptibility
   Michael Atanasov       : Ab Initio Ligand Field Theory (pilot matlab implementation)
   Alexander A. Auer      : GIAO ZORA, VPT2 properties, NMR spectrum
   Ute Becker             : Parallelization
   Giovanni Bistoni       : ED, misc. LED, open-shell LED, HFLD
   Martin Brehm           : Molecular dynamics
   Dmytro Bykov           : SCF Hessian
   Vijay G. Chilkuri      : MRCI spin determinant printing, contributions to CSF-ICE
   Dipayan Datta          : RHF DLPNO-CCSD density
   Achintya Kumar Dutta   : EOM-CC, STEOM-CC
   Dmitry Ganyushin       : Spin-Orbit,Spin-Spin,Magnetic field MRCI
   Miquel Garcia          : C-PCM and meta-GGA Hessian, CC/C-PCM, Gaussian charge scheme
   Yang Guo               : DLPNO-NEVPT2, F12-NEVPT2, CIM, IAO-localization
   Andreas Hansen         : Spin unrestricted coupled pair/coupled cluster methods
   Benjamin Helmich-Paris : MC-RPA, TRAH-SCF, COSX integrals
   Lee Huntington         : MR-EOM, pCC
   Robert Izsak           : Overlap fitted RIJCOSX, COSX-SCS-MP3, EOM
   Marcus Kettner         : VPT2
   Christian Kollmar      : KDIIS, OOCD, Brueckner-CCSD(T), CCSD density, CASPT2, CASPT2-K
   Simone Kossmann        : Meta GGA functionals, TD-DFT gradient, OOMP2, MP2 Hessian
   Martin Krupicka        : Initial AUTO-CI
   Lucas Lang             : DCDCAS
   Marvin Lechner         : AUTO-CI (C++ implementation), FIC-MRCC
   Dagmar Lenk            : GEPOL surface, SMD
   Dimitrios Liakos       : Extrapolation schemes; Compound Job, initial MDCI parallelization
   Dimitrios Manganas     : Further ROCIS development; embedding schemes
   Dimitrios Pantazis     : SARC Basis sets
   Anastasios Papadopoulos: AUTO-CI, single reference methods and gradients
   Taras Petrenko         : DFT Hessian,TD-DFT gradient, ASA, ECA, R-Raman, ABS, FL, XAS/XES, NRVS
   Peter Pinski           : DLPNO-MP2, DLPNO-MP2 Gradient
   Christoph Reimann      : Effective Core Potentials
   Marius Retegan         : Local ZFS, SOC
   Christoph Riplinger    : Optimizer, TS searches, QM/MM, DLPNO-CCSD(T), (RO)-DLPNO pert. Triples
   Tobias Risthaus        : Range-separated hybrids, TD-DFT gradient, RPA, STAB
   Michael Roemelt        : Original ROCIS implementation
   Masaaki Saitow         : Open-shell DLPNO-CCSD energy and density
   Barbara Sandhoefer     : DKH picture change effects
   Avijit Sen             : IP-ROCIS
   Kantharuban Sivalingam : CASSCF convergence, NEVPT2, FIC-MRCI
   Bernardo de Souza      : ESD, SOC TD-DFT
   Georgi Stoychev        : AutoAux, RI-MP2 NMR, DLPNO-MP2 response
   Willem Van den Heuvel  : Paramagnetic NMR
   Boris Wezisla          : Elementary symmetry handling
   Frank Wennmohs         : Technical directorship


 We gratefully acknowledge several colleagues who have allowed us to
 interface, adapt or use parts of their codes:
   Stefan Grimme, W. Hujo, H. Kruse, P. Pracht,  : VdW corrections, initial TS optimization,
                  C. Bannwarth, S. Ehlert          DFT functionals, gCP, sTDA/sTD-DF
   Ed Valeev, F. Pavosevic, A. Kumar             : LibInt (2-el integral package), F12 methods
   Garnet Chan, S. Sharma, J. Yang, R. Olivares  : DMRG
   Ulf Ekstrom                                   : XCFun DFT Library
   Mihaly Kallay                                 : mrcc  (arbitrary order and MRCC methods)
   Jiri Pittner, Ondrej Demel                    : Mk-CCSD
   Frank Weinhold                                : gennbo (NPA and NBO analysis)
   Christopher J. Cramer and Donald G. Truhlar   : smd solvation model
   Lars Goerigk                                  : TD-DFT with DH, B97 family of functionals
   V. Asgeirsson, H. Jonsson                     : NEB implementation
   FAccTs GmbH                                   : IRC, NEB, NEB-TS, DLPNO-Multilevel, CI-OPT
                                                   MM, QMMM, 2- and 3-layer-ONIOM, Crystal-QMMM,
                                                   LR-CPCM, SF, NACMEs, symmetry and pop. for TD-DFT,
                                                   nearIR, NL-DFT gradient (VV10), updates on ESD,
                                                   ML-optimized integration grids
   S Lehtola, MJT Oliveira, MAL Marques          : LibXC Library
   Liviu Ungur et al                             : ANISO software


 Your calculation uses the libint2 library for the computation of 2-el integrals
 For citations please refer to: http://libint.valeyev.net

 Your ORCA version has been built with support for libXC version: 5.1.0
 For citations please refer to: https://tddft.org/programs/libxc/

 This ORCA versions uses:
   CBLAS   interface :  Fast vector & matrix operations
   LAPACKE interface :  Fast linear algebra routines
   SCALAPACK package :  Parallel linear algebra routines
   Shared memory     :  Shared parallel matrices
   BLAS/LAPACK       :  OpenBLAS 0.3.15  USE64BITINT DYNAMIC_ARCH NO_AFFINITY Haswell SINGLE_THREADED
        Core in use  :  Haswell
   Copyright (c) 2011-2014, The OpenBLAS Project




***************************************
The coordinates will be read from file: pbe.xyz
***************************************


================================================================================

cite the ECPs for Au [Def2-ECP] as follows:
Ce-Yb(ecp-28): M. Dolg, H. Stoll, H.Preuss, J. Chem. Phys., 1989, 90, 1730-1734.
Y-Cd(ecp-28), Hf-Hg(ecp-46): D. Andrae,U. Haeussermann, M. Dolg, H. Stoll, H. Preuss, Theor. Chim. Acta, 1990, 77, 123-141.
In-Sb(ecp-28), Tl-Bi(ecp-46): B. Metz, H. Stoll, M. Dolg, J. Chem. Phys., 2000, 113, 2563-2569.
Te-Xe(ecp-28), Po-Rn(ecp-46): K. A. Peterson, D. Figgen, E. Goll, H. Stoll, M. Dolg, J. Chem. Phys., 2003, 119, 11113-11123.
Rb(ecp-28), Cs(ecp-46): T. Leininger, A. Nicklass, W. Kuechle, H. Stoll, M. Dolg, A. Bergner, Chem. Phys. Lett., 1996, 255, 274-280.
Sr(ecp-28), Ba(ecp-46): M. Kaupp, P. V. Schleyer, H. Stoll and H. Preuss, J. Chem. Phys., 1991, 94, 1360-1366.
La(ecp-46): M. Dolg, H. Stoll, A. Savin, H. Preuss, Theor. Chim. Acta, 1989, 75, 173-194.
Lu(ecp-28): X. Cao, M. Dolg, J. Chem. Phys., 2001, 115, 7348-7355.

ECP parameters for Au [Def2-ECP] have been obtained from:
TURBOMOLE (7.0.2)

----- Orbital basis set information -----
Your calculation utilizes the basis: def2-TZVP
   F. Weigend and R. Ahlrichs, Phys. Chem. Chem. Phys. 7, 3297 (2005).

----- AuxJ basis set information -----
Your calculation utilizes the auxiliary basis: def2/J
   F. Weigend, Phys. Chem. Chem. Phys. 8, 1057 (2006).

----- AuxC basis set information -----
Your calculation utilizes the auxiliary basis: def2-TZVP/C
  H-La, Hf-Rn : A. Hellweg, C. Hattig, S. Hofener and W. Klopper, Theor. Chem. Acc. 117, 587 (2007).
        Ce-Lu : J. Chmela and M. E. Harding, Mol. Phys. (2018).

================================================================================
                                        WARNINGS
                       Please study these warnings very carefully!
================================================================================


INFO   : the flag for use of the SHARK integral package has been found!

================================================================================
                                       INPUT FILE
================================================================================
NAME = casscf.inp
|  1> !CASSCF def2-TZVP def2-TZVP/C
|  2> !MOREAD RIJCOSX
|  3> %maxcore 6000
|  4> %moinp "pbe.qro"
|  5> %pal nprocs 2 end 
|  6> 
|  7> %casscf
|  8>  mult 5,3
|  9>  bweight 1,1
| 10>  nroots 5,45
| 11>  nel 6
| 12>  norb 5
| 13> end
| 14> 
| 15> 
| 16> *xyzfile 0 5 pbe.xyz
| 17> 
| 18> 
| 19>                          ****END OF INPUT****
================================================================================

                       ****************************
                       * Single Point Calculation *
                       ****************************

---------------------------------
CARTESIAN COORDINATES (ANGSTROEM)
---------------------------------
  Au     6.526965    6.891918    6.395766
  Au     8.548713    9.320054    7.230632
  Au    11.109181    4.874686    7.025001
  Au    10.362362    7.454501    6.617299
  Au     8.318612    4.913463    6.545557
  Au    10.461058    6.004981    9.538437
  Au     9.418373    3.496036    8.737846
  Au     5.730061    9.238759    7.502775
  Au     6.215891    7.407533    9.608422
  Au     7.281659   10.031829    9.660405
  Au     7.350668    4.988010    9.666505
  Au     9.285959    8.297974   10.252400
  Cr     8.383698    6.910689    8.232537

----------------------------
CARTESIAN COORDINATES (A.U.)
----------------------------
  NO LB      ZA    FRAG     MASS         X           Y           Z
   0 Au   19.0000*   0   196.966   12.334177   13.023838   12.086246
   1 Au   19.0000*   0   196.966   16.154727   17.612349   13.663914
   2 Au   19.0000*   0   196.966   20.993310    9.211822   13.275328
   3 Au   19.0000*   0   196.966   19.582027   14.086966   12.504883
   4 Au   19.0000*   0   196.966   15.719899    9.285099   12.369311
   5 Au   19.0000*   0   196.966   19.768534   11.347770   18.025033
   6 Au   19.0000*   0   196.966   17.798145    6.606550   16.512137
   7 Au   19.0000*   0   196.966   10.828247   17.458725   14.178190
   8 Au   19.0000*   0   196.966   11.746332   13.998208   18.157285
   9 Au   19.0000*   0   196.966   13.760341   18.957410   18.255519
  10 Au   19.0000*   0   196.966   13.890750    9.425974   18.267048
  11 Au   19.0000*   0   196.966   17.547920   15.680899   19.374229
  12 Cr   24.0000    0    52.000   15.842893   13.059310   15.557241
* core charge reduced due to ECP

--------------------------------
INTERNAL COORDINATES (ANGSTROEM)
--------------------------------
 Au     0   0   0     0.000000000000     0.00000000     0.00000000
 Au     1   0   0     3.268074437547     0.00000000     0.00000000
 Au     1   2   0     5.045975045155    72.74583126     0.00000000
 Au     2   1   3     2.673160268847    80.94355621    14.46902728
 Au     1   2   3     2.673335429336    96.94656352     2.15913814
 Au     3   1   2     2.831075701072    75.12039316    60.25150653
 Au     3   1   2     2.773688574619    73.86794746   123.49236544
 Au     1   2   3     2.714440818018    55.60238564   157.67505893
 Au     8   1   2     2.832519699079    72.17350506   269.16973119
 Au     8   1   2     2.773406016158   113.59440104   314.62598520
 Au     9   8   1     2.673047032411   132.38824917    10.22542515
 Au     6   3   1     2.673652492394   132.85125341   318.91234662
 Cr    12   6   3     2.611222378900    59.31391812    41.43393379

---------------------------
INTERNAL COORDINATES (A.U.)
---------------------------
 Au     0   0   0     0.000000000000     0.00000000     0.00000000
 Au     1   0   0     6.175765672232     0.00000000     0.00000000
 Au     1   2   0     9.535510913943    72.74583126     0.00000000
 Au     2   1   3     5.051540820199    80.94355621    14.46902728
 Au     1   2   3     5.051871825553    96.94656352     2.15913814
 Au     3   1   2     5.349957739425    75.12039316    60.25150653
 Au     3   1   2     5.241511786817    73.86794746   123.49236544
 Au     1   2   3     5.129549752792    55.60238564   157.67505893
 Au     8   1   2     5.352686500196    72.17350506   269.16973119
 Au     8   1   2     5.240977828708   113.59440104   314.62598520
 Au     9   8   1     5.051326834347   132.38824917    10.22542515
 Au     6   3   1     5.052470987900   132.85125341   318.91234662
 Cr    12   6   3     4.934495170887    59.31391812    41.43393379

---------------------
BASIS SET INFORMATION
---------------------
There are 2 groups of distinct atoms

 Group   1 Type Au  : 8s7p6d1f contracted to 6s4p3d1f pattern {311111/4111/411/1}
 Group   2 Type Cr  : 17s11p7d1f contracted to 6s4p4d1f pattern {842111/6311/4111/1}

Atom   0Au   basis set group =>   1
Atom   1Au   basis set group =>   1
Atom   2Au   basis set group =>   1
Atom   3Au   basis set group =>   1
Atom   4Au   basis set group =>   1
Atom   5Au   basis set group =>   1
Atom   6Au   basis set group =>   1
Atom   7Au   basis set group =>   1
Atom   8Au   basis set group =>   1
Atom   9Au   basis set group =>   1
Atom  10Au   basis set group =>   1
Atom  11Au   basis set group =>   1
Atom  12Cr   basis set group =>   2
---------------------------------
AUXILIARY/J BASIS SET INFORMATION
---------------------------------
There are 2 groups of distinct atoms

 Group   1 Type Au  : 11s5p5d3f3g contracted to 8s5p5d2f3g pattern {41111111/11111/11111/21/111}
 Group   2 Type Cr  : 19s5p5d3f3g contracted to 8s5p5d2f3g pattern {121111111/11111/11111/21/111}

Atom   0Au   basis set group =>   1
Atom   1Au   basis set group =>   1
Atom   2Au   basis set group =>   1
Atom   3Au   basis set group =>   1
Atom   4Au   basis set group =>   1
Atom   5Au   basis set group =>   1
Atom   6Au   basis set group =>   1
Atom   7Au   basis set group =>   1
Atom   8Au   basis set group =>   1
Atom   9Au   basis set group =>   1
Atom  10Au   basis set group =>   1
Atom  11Au   basis set group =>   1
Atom  12Cr   basis set group =>   2
---------------------------------
AUXILIARY/C BASIS SET INFORMATION
---------------------------------
There are 2 groups of distinct atoms

 Group   1 Type Au  : 8s8p7d5f3g2h contracted to 8s8p7d5f3g2h pattern {11111111/11111111/1111111/11111/111/11}
 Group   2 Type Cr  : 11s9p8d6f5g2h contracted to 9s8p8d6f5g2h pattern {311111111/21111111/11111111/111111/11111/11}

Atom   0Au   basis set group =>   1
Atom   1Au   basis set group =>   1
Atom   2Au   basis set group =>   1
Atom   3Au   basis set group =>   1
Atom   4Au   basis set group =>   1
Atom   5Au   basis set group =>   1
Atom   6Au   basis set group =>   1
Atom   7Au   basis set group =>   1
Atom   8Au   basis set group =>   1
Atom   9Au   basis set group =>   1
Atom  10Au   basis set group =>   1
Atom  11Au   basis set group =>   1
Atom  12Cr   basis set group =>   2
-------------------------
ECP PARAMETER INFORMATION
-------------------------

 Group 1, Type Au ECP Def2-ECP (replacing 60 core electrons, lmax=3)

Atom   0Au   ECP group =>   1
Atom   1Au   ECP group =>   1
Atom   2Au   ECP group =>   1
Atom   3Au   ECP group =>   1
Atom   4Au   ECP group =>   1
Atom   5Au   ECP group =>   1
Atom   6Au   ECP group =>   1
Atom   7Au   ECP group =>   1
Atom   8Au   ECP group =>   1
Atom   9Au   ECP group =>   1
Atom  10Au   ECP group =>   1
Atom  11Au   ECP group =>   1



           ************************************************************
           *        Program running with 2 parallel MPI-processes     *
           *              working on a common directory               *
           ************************************************************
------------------------------------------------------------------------------
                           ORCA GTO INTEGRAL CALCULATION
                           -- RI-GTO INTEGRALS CHOSEN --
------------------------------------------------------------------------------
------------------------------------------------------------------------------
                   ___                                                        
                  /   \      - P O W E R E D   B Y -                         
                 /     \                                                     
                 |  |  |   _    _      __       _____    __    __             
                 |  |  |  | |  | |    /  \     |  _  \  |  |  /  |          
                  \  \/   | |  | |   /    \    | | | |  |  | /  /          
                 / \  \   | |__| |  /  /\  \   | |_| |  |  |/  /          
                |  |  |   |  __  | /  /__\  \  |    /   |      \           
                |  |  |   | |  | | |   __   |  |    \   |  |\   \          
                \     /   | |  | | |  |  |  |  | |\  \  |  | \   \       
                 \___/    |_|  |_| |__|  |__|  |_| \__\ |__|  \__/        
                                                                              
                      - O R C A' S   B I G   F R I E N D -                    
                                      &                                       
                       - I N T E G R A L  F E E D E R -                       
                                                                              
 v1 FN, 2020, v2 2021                                                         
------------------------------------------------------------------------------


Reading SHARK input file casscf.SHARKINP.tmp ... ok
----------------------
SHARK INTEGRAL PACKAGE
----------------------

Number of atoms                             ...     13
Number of basis functions                   ...    525
Number of shells                            ...    183
Maximum angular momentum                    ...      3
Integral batch strategy                     ... SHARK/LIBINT Hybrid
RI-J (if used) integral strategy            ... SPLIT-RIJ (Revised 2003 algorithm where possible)
Printlevel                                  ...      1
Contraction scheme used                     ... SEGMENTED contraction
Coulomb Range Separation                    ... NOT USED
Exchange Range Separation                   ... NOT USED
Finite Nucleus Model                        ... NOT USED
Auxiliary Coulomb fitting basis             ... AVAILABLE
   # of basis functions in Aux-J            ...   1157
   # of shells in Aux-J                     ...    299
   Maximum angular momentum in Aux-J        ...      4
Auxiliary J/K fitting basis                 ... NOT available
Auxiliary Correlation fitting basis         ... AVAILABLE
   # of basis functions in Aux-C            ...   1994
   # of shells in Aux-C                     ...    434
   Maximum angular momentum in Aux-C        ...      5
Auxiliary 'external' fitting basis          ... NOT available
Integral threshold                          ...     1.000000e-10
Primitive cut-off                           ...     1.000000e-11
Primitive pair pre-selection threshold      ...     1.000000e-11

Calculating pre-screening integrals         ... done (  0.2 sec) Dimension = 183
Organizing shell pair data                  ... done (  0.2 sec)
Shell pair information
Total number of shell pairs                 ...     16836
Shell pairs after pre-screening             ...     13543
Total number of primitive shell pairs       ...     45389
Primitive shell pairs kept                  ...     26622
          la=0 lb=0:   2131 shell pairs
          la=1 lb=0:   3100 shell pairs
          la=1 lb=1:   1176 shell pairs
          la=2 lb=0:   2656 shell pairs
          la=2 lb=1:   1898 shell pairs
          la=2 lb=2:    780 shell pairs
          la=3 lb=0:    722 shell pairs
          la=3 lb=1:    537 shell pairs
          la=3 lb=2:    460 shell pairs
          la=3 lb=3:     83 shell pairs

Calculating one electron integrals          ... done (  0.0 sec)
Calculating ECP integrals                   ... done (  4.8 sec)
Calculating RI/J V-Matrix + Cholesky decomp.... done (  0.0 sec)
Calculating RI/C V-Matrix + Cholesky decomp.... done (  0.2 sec)
Calculating Nuclear repulsion               ... done (  0.0 sec) ENN=   4267.086740861063 Eh

SHARK setup successfully completed in   5.8 seconds

Maximum memory used throughout the entire GTOINT-calculation: 69.3 MB


           ************************************************************
           *        Program running with 2 parallel MPI-processes     *
           *              working on a common directory               *
           ************************************************************
-------------------------------------------------------------------------------
                                 ORCA SCF
-------------------------------------------------------------------------------

------------
SCF SETTINGS
------------
Hamiltonian:
 Ab initio Hamiltonian  Method          .... Hartree-Fock(GTOs)
 RI-approximation to the Coulomb term is turned on
   Number of AuxJ basis functions       .... 1157
   RIJ-COSX (HFX calculated with COS-X)).... on


General Settings:
 Integral files         IntName         .... casscf
 Hartree-Fock type      HFTyp           .... CASSCF
 Total Charge           Charge          ....    0
 Multiplicity           Mult            ....    5
 Number of Electrons    NEL             ....  252
 Basis Dimension        Dim             ....  525
 Nuclear Repulsion      ENuc            ....   4267.0867408611 Eh


Diagonalization of the overlap matrix:
Smallest eigenvalue                        ... 1.391e-04
Time for diagonalization                   ...    0.028 sec
Threshold for overlap eigenvalues          ... 1.000e-08
Number of eigenvalues below threshold      ... 0
Time for construction of square roots      ...    0.015 sec
Total time needed                          ...    0.043 sec

---------------------
INITIAL GUESS: MOREAD
---------------------
Guess MOs are being read from file: pbe.qro
Input Geometry matches current geometry (good)
Input basis set matches current basis set (good)
MOs were renormalized
Gram-Schmidt orthogonalization of all MOs with pivot on actives
                      ------------------
                      INITIAL GUESS DONE (   0.7 sec)
                      ------------------
--------------------
COSX GRID GENERATION
--------------------

GRIDX 1
-------
General Integration Accuracy     IntAcc      ... 3.816
Radial Grid Type                 RadialGrid  ... OptM3 with GC (2021)
Angular Grid (max. ang.)         AngularGrid ... 1 (Lebedev-50)
Angular grid pruning method      GridPruning ... 4 (adaptive)
Weight generation scheme         WeightScheme... Becke
Basis function cutoff            BFCut       ... 1.0000e-10
Integration weight cutoff        WCut        ... 1.0000e-14
Angular grids for H and He will be reduced by one unit
Partially contracted basis set               ... on
Rotationally invariant grid construction     ... off

Total number of grid points                  ...    15230
Total number of batches                      ...      245
Average number of points per batch           ...       62
Average number of grid points per atom       ...     1172
UseSFitting                                  ... on

GRIDX 2
-------
General Integration Accuracy     IntAcc      ... 4.020
Radial Grid Type                 RadialGrid  ... OptM3 with GC (2021)
Angular Grid (max. ang.)         AngularGrid ... 2 (Lebedev-110)
Angular grid pruning method      GridPruning ... 4 (adaptive)
Weight generation scheme         WeightScheme... Becke
Basis function cutoff            BFCut       ... 1.0000e-10
Integration weight cutoff        WCut        ... 1.0000e-14
Angular grids for H and He will be reduced by one unit
Partially contracted basis set               ... on
Rotationally invariant grid construction     ... off

Total number of grid points                  ...    46067
Total number of batches                      ...      725
Average number of points per batch           ...       63
Average number of grid points per atom       ...     3544
UseSFitting                                  ... on

GRIDX 3
-------
General Integration Accuracy     IntAcc      ... 4.338
Radial Grid Type                 RadialGrid  ... OptM3 with GC (2021)
Angular Grid (max. ang.)         AngularGrid ... 3 (Lebedev-194)
Angular grid pruning method      GridPruning ... 4 (adaptive)
Weight generation scheme         WeightScheme... Becke
Basis function cutoff            BFCut       ... 1.0000e-10
Integration weight cutoff        WCut        ... 1.0000e-14
Angular grids for H and He will be reduced by one unit
Partially contracted basis set               ... on
Rotationally invariant grid construction     ... off

Total number of grid points                  ...    84246
Total number of batches                      ...     1323
Average number of points per batch           ...       63
Average number of grid points per atom       ...     6480
UseSFitting                                  ... on

Time for X-Grid setup             =    1.436 sec



 ... the calculation is a CASSCF calculation -I'm leaving here GOOD LUCK!!!



           ************************************************************
           *        Program running with 2 parallel MPI-processes     *
           *              working on a common directory               *
           ************************************************************
-------------------------------------------------------------------------------
                              ORCA-CASSCF
-------------------------------------------------------------------------------

Setting up the integral package       ... done
Setting up the integral package (RI)  ... done
Building the CAS space                ... done (5 configurations for Mult=5)
Building the CAS space                ... done (35 configurations for Mult=3)

SYSTEM-SPECIFIC SETTINGS:
Number of active electrons          ...    6
Number of active orbitals           ...    5
Total number of electrons           ...  252
Total number of orbitals            ...  525
Total number aux. functions         ... 1994

Determined orbital ranges:
   Internal       0 -  122 ( 123 orbitals)
   Active       123 -  127 (   5 orbitals)
   External     128 -  524 ( 397 orbitals)
Number of rotation parameters      ...  51431

CI-STEP:
CI strategy                         ... General CI
Number of multiplicity blocks       ...    2
BLOCK  1 WEIGHT=   0.5000
  Multiplicity                      ...    5
  #(Configurations)                 ...    5
  #(CSFs)                           ...    5
  #(Roots)                          ...    5
    ROOT=0 WEIGHT=    0.100000
    ROOT=1 WEIGHT=    0.100000
    ROOT=2 WEIGHT=    0.100000
    ROOT=3 WEIGHT=    0.100000
    ROOT=4 WEIGHT=    0.100000

BLOCK  2 WEIGHT=   0.5000
  Multiplicity                      ...    3
  #(Configurations)                 ...   35
  #(CSFs)                           ...   45
  #(Roots)                          ...   45
    ROOT=0 WEIGHT=    0.011111
    ROOT=1 WEIGHT=    0.011111
    ROOT=2 WEIGHT=    0.011111
    ROOT=3 WEIGHT=    0.011111
    ROOT=4 WEIGHT=    0.011111
    ROOT=5 WEIGHT=    0.011111
    ROOT=6 WEIGHT=    0.011111
    ROOT=7 WEIGHT=    0.011111
    ROOT=8 WEIGHT=    0.011111
    ROOT=9 WEIGHT=    0.011111
    ROOT=10 WEIGHT=    0.011111
    ROOT=11 WEIGHT=    0.011111
    ROOT=12 WEIGHT=    0.011111
    ROOT=13 WEIGHT=    0.011111
    ROOT=14 WEIGHT=    0.011111
    ROOT=15 WEIGHT=    0.011111
    ROOT=16 WEIGHT=    0.011111
    ROOT=17 WEIGHT=    0.011111
    ROOT=18 WEIGHT=    0.011111
    ROOT=19 WEIGHT=    0.011111
    ROOT=20 WEIGHT=    0.011111
    ROOT=21 WEIGHT=    0.011111
    ROOT=22 WEIGHT=    0.011111
    ROOT=23 WEIGHT=    0.011111
    ROOT=24 WEIGHT=    0.011111
    ROOT=25 WEIGHT=    0.011111
    ROOT=26 WEIGHT=    0.011111
    ROOT=27 WEIGHT=    0.011111
    ROOT=28 WEIGHT=    0.011111
    ROOT=29 WEIGHT=    0.011111
    ROOT=30 WEIGHT=    0.011111
    ROOT=31 WEIGHT=    0.011111
    ROOT=32 WEIGHT=    0.011111
    ROOT=33 WEIGHT=    0.011111
    ROOT=34 WEIGHT=    0.011111
    ROOT=35 WEIGHT=    0.011111
    ROOT=36 WEIGHT=    0.011111
    ROOT=37 WEIGHT=    0.011111
    ROOT=38 WEIGHT=    0.011111
    ROOT=39 WEIGHT=    0.011111
    ROOT=40 WEIGHT=    0.011111
    ROOT=41 WEIGHT=    0.011111
    ROOT=42 WEIGHT=    0.011111
    ROOT=43 WEIGHT=    0.011111
    ROOT=44 WEIGHT=    0.011111

  PrintLevel                        ...    1
  N(GuessMat)                       ...       512
  MaxDim(CI)                        ...        10
  MaxIter(CI)                       ...        64
  Energy Tolerance CI               ...  1.00e-08
  Residual Tolerance CI             ...  1.00e-08
  Shift(CI)                         ...  1.00e-04

INTEGRAL-TRANSFORMATION-STEP:
  Algorithm                         ... RI-MO

ORBITAL-IMPROVEMENT-STEP:
  Algorithm                         ... SuperCI(PT)
  Default Parametrization           ... CAYLEY
  Act-Act rotations                 ... depends on algorithm used

  Note: SuperCI(PT) will ignore FreezeIE, FreezeAct and FreezeGrad. In general Default settings are encouraged.
        In conjunction with ShiftUp, ShiftDn or GradScaling the performance of SuperCI(PT) is less optimal.  

  MaxRot                            ... 2.00e-01 
  Max. no of vectors (DIIS)         ... 15
  DThresh (cut-off) metric          ... 1.00e-06
  Switch step at gradient           ...  3.00e-02 
  Switch step at iteration          ...        50   
  Switch step to                    ... SuperCI(PT)    

SCF-SETTINGS:
  Incremental                       ... off
  RIJCOSX approximation             ... on
  UseFinalGrid                      ... on
  RI-JK approximation               ... off
  AO integral handling              ... DIRECT
  Integral Neglect Thresh           ...  1.00e-10
  Primitive cutoff TCut             ...  1.00e-11
  Energy convergence tolerance      ...  1.00e-07
  Orbital gradient convergence      ...  1.00e-03
  Max. number of iterations         ...        75  


FINAL ORBITALS:
  Active   Orbitals                 ... natural 
  Internal Orbitals                 ... canonical 
  External Orbitals                 ... canonical 

------------------
CAS-SCF ITERATIONS
------------------


MACRO-ITERATION   1: 
   --- Inactive Energy E0 = -2654.78296253 Eh
CI-ITERATION   0: 
 -2660.512772931   0.000000000000 (    0.00)
 -2660.478522788   0.000000000000
 -2660.189591796   0.000000000000
 -2660.124261778   0.000000000000
 -2660.107708984   0.000000000000
   CI-PROBLEM SOLVED
   DENSITIES MADE
CI-ITERATION   0: 
 -2660.525454518   0.000000000000 (    0.00)
 -2660.494135087   0.000000000000
 -2660.485300644   0.000000000000
 -2660.465277090   0.000000000000
 -2660.458655694   0.000000000000
 -2660.449354378   0.000000000000
 -2660.445188011   0.000000000000
 -2660.443360297   0.000000000000
 -2660.435846921   0.000000000000
 -2660.429587125   0.000000000000
 -2660.417578482   0.000000000000
 -2660.409551737   0.000000000000
 -2660.407572323   0.000000000000
 -2660.401513136   0.000000000000
 -2660.391623852   0.000000000000
 -2660.386897735   0.000000000000
 -2660.379891523   0.000000000000
 -2660.375785396   0.000000000000
 -2660.370314529   0.000000000000
 -2660.344045897   0.000000000000
 -2660.342848406   0.000000000000
 -2660.258709683   0.000000000000
 -2660.206233535   0.000000000000
 -2660.183881974   0.000000000000
 -2660.181996177   0.000000000000
 -2660.170710003   0.000000000000
 -2660.159314421   0.000000000000
 -2660.127728106   0.000000000000
 -2660.111843543   0.000000000000
 -2660.103108379   0.000000000000
 -2660.096685445   0.000000000000
 -2660.092095262   0.000000000000
 -2660.089367124   0.000000000000
 -2660.070700603   0.000000000000
 -2660.054946704   0.000000000000
 -2660.052666648   0.000000000000
 -2659.987129106   0.000000000000
 -2659.987014652   0.000000000000
 -2659.978463096   0.000000000000
 -2659.607709941   0.000000000000
 -2659.551803710   0.000000000000
 -2659.481418715   0.000000000000
 -2659.435955343   0.000000000000
 -2659.385247241   0.000000000000
 -2659.298841655   0.000000000000
   CI-PROBLEM SOLVED
   DENSITIES MADE

                 <<<<<<<<<<<<<<<<<<INITIAL CI STATE CHECK>>>>>>>>>>>>>>>>>>

BLOCK  1 MULT= 5 NROOTS= 5 
ROOT   0:  E=   -2660.5127729305 Eh
      0.69233 [     4]: 21111
      0.17978 [     3]: 12111
      0.12789 [     0]: 11112
ROOT   1:  E=   -2660.4785227884 Eh  0.932 eV   7517.0 cm**-1
      0.79320 [     3]: 12111
      0.20680 [     4]: 21111
ROOT   2:  E=   -2660.1895917963 Eh  8.794 eV  70930.1 cm**-1
      0.87210 [     0]: 11112
      0.10087 [     4]: 21111
      0.02702 [     3]: 12111
ROOT   3:  E=   -2660.1242617781 Eh 10.572 eV  85268.3 cm**-1
      0.50652 [     2]: 11211
      0.49348 [     1]: 11121
ROOT   4:  E=   -2660.1077089841 Eh 11.022 eV  88901.3 cm**-1
      0.50652 [     1]: 11121
      0.49348 [     2]: 11211

BLOCK  2 MULT= 3 NROOTS=45 
ROOT   0:  E=   -2660.5254545175 Eh
      0.90369 [    34]: 22110
      0.03920 [    18]: 12111
      0.02913 [     3]: 02112
      0.01305 [    10]: 11112
      0.01102 [    28]: 21111
      0.00345 [    22]: 20112
ROOT   1:  E=   -2660.4941350865 Eh  0.852 eV   6873.8 cm**-1
      0.68614 [    28]: 21111
      0.18266 [    18]: 12111
      0.07224 [    10]: 11112
      0.02898 [     3]: 02112
      0.02885 [    22]: 20112
ROOT   2:  E=   -2660.4853006439 Eh  1.093 eV   8812.8 cm**-1
      0.68127 [    33]: 22101
      0.17837 [    32]: 22011
      0.08042 [    17]: 12102
      0.02449 [    15]: 12012
      0.02179 [    27]: 21102
      0.00639 [    25]: 21012
      0.00374 [    19]: 12120
ROOT   3:  E=   -2660.4652770896 Eh  1.638 eV  13207.4 cm**-1
      0.54523 [    27]: 21102
      0.19502 [    25]: 21012
      0.14301 [    17]: 12102
      0.05142 [    15]: 12012
      0.03008 [    29]: 21120
      0.01043 [    11]: 11121
      0.00797 [    31]: 21210
      0.00788 [    19]: 12120
      0.00286 [    13]: 11211
ROOT   4:  E=   -2660.4586556943 Eh  1.818 eV  14660.6 cm**-1
      0.63042 [    28]: 21111
      0.16316 [    18]: 12111
      0.08197 [    10]: 11112
      0.04239 [    26]: 21021
      0.02842 [    30]: 21201
      0.01095 [    16]: 12021
      0.01093 [     3]: 02112
      0.01088 [    22]: 20112
      0.00791 [     9]: 11022
      0.00737 [    20]: 12201
      0.00559 [    12]: 11202
ROOT   5:  E=   -2660.4493543784 Eh  2.071 eV  16702.0 cm**-1
      0.69234 [    32]: 22011
      0.19182 [    33]: 22101
      0.04813 [    15]: 12012
      0.02060 [    21]: 12210
      0.01563 [    25]: 21012
      0.00851 [    17]: 12102
      0.00636 [    31]: 21210
      0.00586 [    19]: 12120
      0.00336 [     5]: 02211
ROOT   6:  E=   -2660.4451880114 Eh  2.184 eV  17616.5 cm**-1
      0.71105 [    18]: 12111
      0.18583 [    28]: 21111
      0.06090 [    34]: 22110
      0.01170 [    20]: 12201
      0.01023 [     3]: 02112
      0.00957 [    16]: 12021
      0.00660 [    10]: 11112
ROOT   7:  E=   -2660.4433602969 Eh  2.234 eV  18017.6 cm**-1
      0.52216 [    28]: 21111
      0.18089 [    30]: 21201
      0.13424 [    18]: 12111
      0.08800 [    10]: 11112
      0.04548 [    20]: 12201
      0.02839 [    12]: 11202
ROOT   8:  E=   -2660.4358469210 Eh  2.438 eV  19666.6 cm**-1
      0.27467 [    25]: 21012
      0.19995 [    31]: 21210
      0.13093 [    29]: 21120
      0.07417 [    15]: 12012
      0.07413 [    27]: 21102
      0.06467 [    13]: 11211
      0.05358 [    21]: 12210
      0.04210 [    11]: 11121
      0.03488 [    19]: 12120
      0.02046 [    17]: 12102
      0.00657 [    24]: 20211
      0.00655 [     5]: 02211
      0.00427 [    23]: 20121
      0.00422 [     4]: 02121
      0.00419 [     1]: 01212
      0.00270 [     0]: 01122
ROOT   9:  E=   -2660.4295871254 Eh  2.609 eV  21040.5 cm**-1
      0.26157 [    26]: 21021
      0.25780 [    30]: 21201
      0.18088 [    28]: 21111
      0.06633 [    16]: 12021
      0.06541 [    20]: 12201
      0.04931 [    18]: 12111
      0.04542 [     9]: 11022
      0.04469 [    12]: 11202
      0.02428 [    10]: 11112
ROOT  10:  E=   -2660.4175784824 Eh  2.935 eV  23676.1 cm**-1
      0.37917 [    29]: 21120
      0.16925 [    31]: 21210
      0.12337 [    11]: 11121
      0.10047 [    19]: 12120
      0.06024 [    27]: 21102
      0.05599 [    13]: 11211
      0.04571 [    21]: 12210
      0.01453 [    17]: 12102
      0.01216 [    23]: 20121
      0.01215 [     4]: 02121
      0.00790 [     0]: 01122
      0.00565 [     5]: 02211
      0.00544 [    24]: 20211
      0.00369 [     1]: 01212
ROOT  11:  E=   -2660.4095517369 Eh  3.154 eV  25437.7 cm**-1
      0.55290 [    18]: 12111
      0.22600 [    20]: 12201
      0.14264 [    28]: 21111
      0.05903 [    30]: 21201
      0.01536 [    16]: 12021
      0.00378 [    26]: 21021
ROOT  12:  E=   -2660.4075723230 Eh  3.208 eV  25872.2 cm**-1
      0.35246 [    18]: 12111
      0.19795 [    20]: 12201
      0.17552 [    16]: 12021
      0.09315 [    28]: 21111
      0.04966 [    30]: 21201
      0.04648 [     3]: 02112
      0.04470 [    26]: 21021
      0.02698 [    10]: 11112
      0.01049 [    34]: 22110
      0.00262 [    22]: 20112
ROOT  13:  E=   -2660.4015131364 Eh  3.373 eV  27202.0 cm**-1
      0.49051 [    17]: 12102
      0.12453 [    27]: 21102
      0.11370 [    15]: 12012
      0.10501 [    33]: 22101
      0.05569 [    19]: 12120
      0.03304 [    32]: 22011
      0.03140 [    25]: 21012
      0.01673 [    29]: 21120
      0.01125 [    21]: 12210
      0.00731 [     4]: 02121
      0.00518 [    11]: 11121
      0.00273 [    31]: 21210
ROOT  14:  E=   -2660.3916238516 Eh  3.642 eV  29372.4 cm**-1
      0.49246 [    18]: 12111
      0.13011 [    28]: 21111
      0.11287 [    20]: 12201
      0.08716 [    16]: 12021
      0.07562 [     3]: 02112
      0.04316 [    10]: 11112
      0.03000 [    30]: 21201
      0.02329 [    26]: 21021
      0.00458 [    22]: 20112
ROOT  15:  E=   -2660.3868977346 Eh  3.770 eV  30409.7 cm**-1
      0.30883 [    25]: 21012
      0.23067 [    31]: 21210
      0.11168 [    27]: 21102
      0.09444 [    15]: 12012
      0.06483 [    13]: 11211
      0.05744 [    29]: 21120
      0.05109 [    21]: 12210
      0.03047 [    17]: 12102
      0.01572 [    11]: 11121
      0.01406 [    19]: 12120
      0.00681 [    24]: 20211
      0.00545 [     5]: 02211
      0.00337 [     1]: 01212
ROOT  16:  E=   -2660.3798915229 Eh  3.961 eV  31947.4 cm**-1
      0.35821 [    21]: 12210
      0.19487 [    15]: 12012
      0.08556 [    31]: 21210
      0.08234 [    32]: 22011
      0.07964 [    17]: 12102
      0.06059 [    25]: 21012
      0.04785 [     5]: 02211
      0.02629 [    13]: 11211
      0.02495 [    27]: 21102
      0.02104 [    33]: 22101
      0.01167 [    19]: 12120
      0.00252 [    24]: 20211
ROOT  17:  E=   -2660.3757853964 Eh  4.073 eV  32848.6 cm**-1
      0.51132 [    19]: 12120
      0.13336 [    29]: 21120
      0.07358 [    15]: 12012
      0.07029 [     4]: 02121
      0.06640 [    21]: 12210
      0.03598 [    11]: 11121
      0.03306 [    17]: 12102
      0.01996 [    25]: 21012
      0.01788 [    31]: 21210
      0.00954 [    32]: 22011
      0.00948 [     5]: 02211
      0.00829 [    27]: 21102
      0.00539 [    23]: 20121
      0.00444 [    13]: 11211
ROOT  18:  E=   -2660.3703145293 Eh  4.222 eV  34049.3 cm**-1
      0.39041 [    26]: 21021
      0.23384 [    30]: 21201
      0.10192 [    16]: 12021
      0.07181 [     9]: 11022
      0.06811 [    28]: 21111
      0.06114 [    20]: 12201
      0.03999 [    12]: 11202
      0.01723 [    18]: 12111
      0.01544 [    10]: 11112
ROOT  19:  E=   -2660.3440458973 Eh  4.936 eV  39814.6 cm**-1
      0.32464 [    15]: 12012
      0.22490 [    21]: 12210
      0.09918 [    17]: 12102
      0.08686 [    19]: 12120
      0.08613 [    25]: 21012
      0.05942 [    31]: 21210
      0.02934 [     5]: 02211
      0.02654 [    27]: 21102
      0.02311 [    29]: 21120
      0.01404 [    13]: 11211
      0.01118 [     4]: 02121
      0.00570 [    11]: 11121
      0.00383 [    32]: 22011
      0.00284 [    24]: 20211
ROOT  20:  E=   -2660.3428484063 Eh  4.969 eV  40077.4 cm**-1
      0.50598 [    16]: 12021
      0.24642 [    20]: 12201
      0.13216 [    26]: 21021
      0.06431 [    30]: 21201
      0.04014 [    18]: 12111
      0.01041 [    28]: 21111
ROOT  21:  E=   -2660.2587096827 Eh  7.258 eV  58543.7 cm**-1
      0.61946 [    22]: 20112
      0.34316 [    10]: 11112
      0.03651 [     3]: 02112
ROOT  22:  E=   -2660.2062335349 Eh  8.686 eV  70060.9 cm**-1
      0.27877 [    23]: 20121
      0.23196 [    24]: 20211
      0.15689 [    11]: 11121
      0.13069 [    13]: 11211
      0.07494 [     6]: 10122
      0.06176 [     7]: 10212
      0.01971 [     0]: 01122
      0.01623 [     1]: 01212
      0.01572 [     4]: 02121
      0.01301 [     5]: 02211
ROOT  23:  E=   -2660.1838819736 Eh  9.295 eV  74966.5 cm**-1
      0.27791 [    24]: 20211
      0.23058 [    23]: 20121
      0.15709 [    13]: 11211
      0.13023 [    11]: 11121
      0.07542 [     7]: 10212
      0.06325 [     6]: 10122
      0.01987 [     1]: 01212
      0.01667 [     0]: 01122
      0.01545 [     5]: 02211
      0.01290 [     4]: 02121
ROOT  24:  E=   -2660.1819961774 Eh  9.346 eV  75380.4 cm**-1
      0.72321 [    10]: 11112
      0.08898 [    28]: 21111
      0.08264 [     3]: 02112
      0.08108 [    22]: 20112
      0.02370 [    18]: 12111
ROOT  25:  E=   -2660.1707100034 Eh  9.653 eV  77857.4 cm**-1
      0.45380 [    10]: 11112
      0.20650 [     3]: 02112
      0.20299 [    22]: 20112
      0.10230 [    28]: 21111
      0.02706 [    18]: 12111
      0.00641 [    12]: 11202
ROOT  26:  E=   -2660.1593144212 Eh  9.963 eV  80358.5 cm**-1
      0.56684 [    10]: 11112
      0.29136 [    12]: 11202
      0.06040 [    28]: 21111
      0.02783 [    30]: 21201
      0.02159 [     9]: 11022
      0.01653 [    18]: 12111
      0.00782 [    20]: 12201
ROOT  27:  E=   -2660.1277281059 Eh 10.823 eV  87290.9 cm**-1
      0.39075 [    12]: 11202
      0.37252 [     9]: 11022
      0.11338 [    10]: 11112
      0.04326 [    30]: 21201
      0.04110 [    26]: 21021
      0.01266 [    28]: 21111
      0.01140 [    20]: 12201
      0.01121 [    16]: 12021
      0.00337 [    18]: 12111
ROOT  28:  E=   -2660.1118435432 Eh 11.255 eV  90777.1 cm**-1
      0.27187 [    13]: 11211
      0.26553 [    11]: 11121
      0.08034 [     0]: 01122
      0.07374 [     1]: 01212
      0.05180 [    29]: 21120
      0.04672 [    31]: 21210
      0.03813 [     4]: 02121
      0.03753 [    23]: 20121
      0.03386 [     5]: 02211
      0.03332 [    24]: 20211
      0.02128 [     6]: 10122
      0.01954 [     7]: 10212
      0.01376 [    19]: 12120
      0.01242 [    21]: 12210
ROOT  29:  E=   -2660.1031083792 Eh 11.493 eV  92694.3 cm**-1
      0.33074 [    13]: 11211
      0.23602 [    11]: 11121
      0.11670 [     5]: 02211
      0.11518 [    24]: 20211
      0.10050 [     4]: 02121
      0.09925 [    23]: 20121
ROOT  30:  E=   -2660.0966854450 Eh 11.667 eV  94103.9 cm**-1
      0.31955 [    13]: 11211
      0.28839 [    11]: 11121
      0.09464 [     0]: 01122
      0.06313 [    29]: 21120
      0.06312 [     1]: 01212
      0.04169 [    31]: 21210
      0.02514 [     6]: 10122
      0.01979 [     5]: 02211
      0.01955 [    24]: 20211
      0.01679 [    19]: 12120
      0.01666 [     7]: 10212
      0.01097 [    21]: 12210
      0.01035 [     4]: 02121
      0.01023 [    23]: 20121
ROOT  31:  E=   -2660.0920952617 Eh 11.792 eV  95111.4 cm**-1
      0.47446 [    13]: 11211
      0.28970 [    11]: 11121
      0.08170 [     1]: 01212
      0.05429 [    31]: 21210
      0.02181 [     7]: 10212
      0.01667 [     0]: 01122
      0.01472 [    21]: 12210
      0.01112 [    29]: 21120
      0.00858 [     5]: 02211
      0.00848 [    24]: 20211
      0.00542 [     4]: 02121
      0.00533 [    23]: 20121
      0.00450 [     6]: 10122
      0.00310 [    19]: 12120
ROOT  32:  E=   -2660.0893671239 Eh 11.867 eV  95710.1 cm**-1
      0.28076 [    11]: 11121
      0.21921 [    13]: 11211
      0.13449 [     4]: 02121
      0.13267 [    23]: 20121
      0.11040 [     5]: 02211
      0.10881 [    24]: 20211
      0.00622 [     0]: 01122
      0.00450 [    29]: 21120
ROOT  33:  E=   -2660.0707006034 Eh 12.374 eV  99806.9 cm**-1
      0.46822 [     3]: 02112
      0.22896 [    10]: 11112
      0.18764 [    18]: 12111
      0.05009 [    28]: 21111
      0.04113 [    22]: 20112
      0.02394 [    34]: 22110
ROOT  34:  E=   -2660.0549467039 Eh 12.803 eV 103264.5 cm**-1
      0.38661 [     9]: 11022
      0.17071 [    10]: 11112
      0.15254 [    14]: 11220
      0.15122 [    12]: 11202
      0.04409 [    26]: 21021
      0.02735 [     2]: 01221
      0.02072 [    28]: 21111
      0.01672 [    30]: 21201
      0.01160 [    16]: 12021
      0.00730 [     8]: 10221
      0.00533 [    18]: 12111
      0.00436 [    20]: 12201
ROOT  35:  E=   -2660.0526666483 Eh 12.865 eV 103764.9 cm**-1
      0.53873 [    11]: 11121
      0.28826 [    13]: 11211
      0.04907 [     0]: 01122
      0.03652 [    29]: 21120
      0.02731 [     1]: 01212
      0.02005 [    31]: 21210
      0.01313 [     6]: 10122
      0.00958 [    19]: 12120
      0.00730 [     7]: 10212
      0.00518 [    21]: 12210
ROOT  36:  E=   -2659.9871291056 Eh 14.649 eV 118148.8 cm**-1
      0.36118 [     5]: 02211
      0.18055 [    13]: 11211
      0.17493 [     4]: 02121
      0.08767 [    11]: 11121
      0.07584 [    21]: 12210
      0.03676 [    19]: 12120
      0.03026 [    24]: 20211
      0.02030 [    31]: 21210
      0.01453 [    23]: 20121
      0.00982 [    29]: 21120
      0.00532 [    14]: 11220
ROOT  37:  E=   -2659.9870146521 Eh 14.652 eV 118173.9 cm**-1
      0.65869 [    14]: 11220
      0.11501 [     2]: 01221
      0.09244 [     9]: 11022
      0.04065 [    12]: 11202
      0.03086 [     8]: 10221
      0.02764 [    10]: 11112
      0.01212 [    26]: 21021
      0.00521 [    30]: 21201
      0.00379 [    28]: 21111
      0.00321 [    16]: 12021
      0.00293 [     5]: 02211
ROOT  38:  E=   -2659.9784630959 Eh 14.884 eV 120050.7 cm**-1
      0.36211 [     4]: 02121
      0.18102 [    11]: 11121
      0.17548 [     5]: 02211
      0.08752 [    13]: 11211
      0.07887 [    19]: 12120
      0.03823 [    21]: 12210
      0.03055 [    23]: 20121
      0.02102 [    29]: 21120
      0.01493 [    24]: 20211
      0.01018 [    31]: 21210
ROOT  39:  E=   -2659.6077099412 Eh 24.973 eV 201421.7 cm**-1
      0.39824 [     7]: 10212
      0.25511 [     6]: 10122
      0.10599 [     1]: 01212
      0.06793 [     0]: 01122
      0.06544 [    24]: 20211
      0.04208 [    23]: 20121
      0.03483 [    13]: 11211
      0.02246 [    11]: 11121
      0.00477 [     5]: 02211
      0.00308 [     4]: 02121
ROOT  40:  E=   -2659.5518037102 Eh 26.494 eV 213691.7 cm**-1
      0.39665 [     6]: 10122
      0.25448 [     7]: 10212
      0.10549 [     0]: 01122
      0.06767 [     1]: 01212
      0.06697 [    23]: 20121
      0.04285 [    24]: 20211
      0.03537 [    11]: 11121
      0.02258 [    13]: 11211
      0.00480 [     4]: 02121
      0.00306 [     5]: 02211
ROOT  41:  E=   -2659.4814187152 Eh 28.410 eV 229139.4 cm**-1
      0.78974 [     8]: 10221
      0.21019 [     2]: 01221
ROOT  42:  E=   -2659.4359553426 Eh 29.647 eV 239117.4 cm**-1
      0.34032 [     1]: 01212
      0.19253 [     0]: 01122
      0.15608 [    13]: 11211
      0.09027 [     7]: 10212
      0.08838 [    11]: 11121
      0.05104 [     6]: 10122
      0.01653 [    31]: 21210
      0.01559 [     5]: 02211
      0.01533 [    24]: 20211
      0.00936 [    29]: 21120
      0.00888 [     4]: 02121
      0.00868 [    23]: 20121
      0.00447 [    21]: 12210
      0.00254 [    19]: 12120
ROOT  43:  E=   -2659.3852472406 Eh 31.027 eV 250246.6 cm**-1
      0.33848 [     0]: 01122
      0.19164 [     1]: 01212
      0.15754 [    11]: 11121
      0.08990 [     6]: 10122
      0.08913 [    13]: 11211
      0.05091 [     7]: 10212
      0.01691 [    29]: 21120
      0.01564 [     4]: 02121
      0.01560 [    23]: 20121
      0.00956 [    31]: 21210
      0.00883 [    24]: 20211
      0.00880 [     5]: 02211
      0.00451 [    19]: 12120
      0.00254 [    21]: 12210
ROOT  44:  E=   -2659.2988416545 Eh 33.378 eV 269210.4 cm**-1
      0.64622 [     2]: 01221
      0.18204 [    14]: 11220
      0.17172 [     8]: 10221

                 <<<<<<<<<<<<<<<<<<INITIAL CI STATE CHECK>>>>>>>>>>>>>>>>>>

   E(CAS)= -2660.224989759 Eh DE=    0.000000e+00
   --- Energy gap subspaces: Ext-Act = 0.113   Act-Int = 0.039
   N(occ)=  1.20000 1.20000 1.20000 1.20000 1.20000
   ||g|| =     3.001629e+00 Max(G)=    5.689640e-01 Rot=129,122
   --- Orbital Update [SuperCI(PT)]
   --- Canonicalize Internal Space
   --- Canonicalize External Space
   --- SX_PT (Skipped TA=0 IT=0): ||X|| =      1.472898892 Max(X)(130,126) =      0.723906485 
   --- SFit(Active Orbitals)

MACRO-ITERATION   2: 
   --- Inactive Energy E0 = -2651.95186124 Eh
CI-ITERATION   0: 
 -2660.198078409   0.000000000000 (    0.00)
 -2660.076049462   0.000000000000
 -2660.006615469   0.000000000000
 -2659.655565311   0.000000000000
 -2659.529884109   0.000000000000
   CI-PROBLEM SOLVED
   DENSITIES MADE
CI-ITERATION   0: 
 -2660.450482330   0.000000000000 (    0.00)
 -2660.409743394   0.000000000000
 -2660.400305272   0.000000000000
 -2660.355567601   0.000000000000
 -2660.308815309   0.000000000000
 -2660.257619781   0.000000000000
 -2660.244279039   0.000000000000
 -2660.236514063   0.000000000000
 -2660.182955058   0.000000000000
 -2660.176692960   0.000000000000
 -2660.174570217   0.000000000000
 -2660.147399750   0.000000000000
 -2660.100375221   0.000000000000
 -2660.090785991   0.000000000000
 -2660.082667180   0.000000000000
 -2660.066818634   0.000000000000
 -2660.056779080   0.000000000000
 -2660.034483051   0.000000000000
 -2659.995822687   0.000000000000
 -2659.986556880   0.000000000000
 -2659.962605127   0.000000000000
 -2659.960776121   0.000000000000
 -2659.887009937   0.000000000000
 -2659.846416404   0.000000000000
 -2659.772929227   0.000000000000
 -2659.755268115   0.000000000000
 -2659.734688154   0.000000000000
 -2659.704857941   0.000000000000
 -2659.646075819   0.000000000000
 -2659.638517723   0.000000000000
 -2659.618704122   0.000000000000
 -2659.596271035   0.000000000000
 -2659.583867920   0.000000000000
 -2659.517614371   0.000000000000
 -2659.514944806   0.000000000000
 -2659.492729914   0.000000000000
 -2659.469669468   0.000000000000
 -2659.398536776   0.000000000000
 -2659.384011681   0.000000000000
 -2659.301225355   0.000000000000
 -2659.262162639   0.000000000000
 -2659.160044222   0.000000000000
 -2658.966697988   0.000000000000
 -2658.841719479   0.000000000000
 -2658.597429729   0.000000000000
   CI-PROBLEM SOLVED
   DENSITIES MADE
   E(CAS)= -2659.850774915 Eh DE=    3.742148e-01
   --- Energy gap subspaces: Ext-Act = -0.280   Act-Int = -0.454
   N(occ)=  1.20000 1.20000 1.20000 1.20000 1.20000
   ||g|| =     4.238136e+00 Max(G)=   -7.833306e-01 Rot=129,122
   --- Orbital Update [SuperCI(PT)]
   --- Canonicalize Internal Space
   --- Canonicalize External Space
   --- SX_PT (Skipped TA=0 IT=0): ||X|| =     12.842795083 Max(X)(125,58) =     -7.819665147 
   --- SFit(Active Orbitals)

MACRO-ITERATION   3: 
   --- Inactive Energy E0 = -2652.65448242 Eh
CI-ITERATION   0: 
 -2660.430039859   0.000000000000 (    0.00)
 -2660.317938844   0.000000000000
 -2660.310244491   0.000000000000
 -2659.992951000   0.000000000000
 -2659.922937834   0.000000000000
   CI-PROBLEM SOLVED
   DENSITIES MADE
CI-ITERATION   0: 
 -2660.540050019   0.000000000000 (    0.00)
 -2660.528436133   0.000000000000
 -2660.516480543   0.000000000000
 -2660.506068569   0.000000000000
 -2660.451752323   0.000000000000
 -2660.450310816   0.000000000000
 -2660.421092687   0.000000000000
 -2660.415579837   0.000000000000
 -2660.411427755   0.000000000000
 -2660.409974422   0.000000000000
 -2660.399460932   0.000000000000
 -2660.386945080   0.000000000000
 -2660.365017823   0.000000000000
 -2660.348480060   0.000000000000
 -2660.340848654   0.000000000000
 -2660.310348367   0.000000000000
 -2660.300641483   0.000000000000
 -2660.298284673   0.000000000000
 -2660.289157147   0.000000000000
 -2660.272037884   0.000000000000
 -2660.261503945   0.000000000000
 -2660.252145142   0.000000000000
 -2660.238749660   0.000000000000
 -2660.103771298   0.000000000000
 -2660.092929134   0.000000000000
 -2660.079429971   0.000000000000
 -2660.042257118   0.000000000000
 -2660.031074940   0.000000000000
 -2659.983073078   0.000000000000
 -2659.957866705   0.000000000000
 -2659.952466194   0.000000000000
 -2659.931985691   0.000000000000
 -2659.928614619   0.000000000000
 -2659.912702118   0.000000000000
 -2659.889359475   0.000000000000
 -2659.882937947   0.000000000000
 -2659.861173209   0.000000000000
 -2659.858338857   0.000000000000
 -2659.721946300   0.000000000000
 -2659.712556663   0.000000000000
 -2659.644396134   0.000000000000
 -2659.632583667   0.000000000000
 -2659.338571770   0.000000000000
 -2659.325653818   0.000000000000
 -2659.058612901   0.000000000000
   CI-PROBLEM SOLVED
   DENSITIES MADE
   E(CAS)= -2660.149156709 Eh DE=   -2.983818e-01
   --- Energy gap subspaces: Ext-Act = -0.156   Act-Int = -0.371
   N(occ)=  1.20000 1.20000 1.20000 1.20000 1.20000
   ||g|| =     3.031752e+00 Max(G)=   -5.729860e-01 Rot=135,125
   --- Orbital Update [SuperCI(PT)]
   --- Canonicalize Internal Space
   --- Canonicalize External Space
   --- SX_PT (Skipped TA=0 IT=0): ||X|| =      4.746200195 Max(X)(128,106) =     -1.682223347 
   --- SFit(Active Orbitals)

MACRO-ITERATION   4: 
   --- Inactive Energy E0 = -2653.84395083 Eh
CI-ITERATION   0: 
 -2660.630196617   0.000000000000 (    0.00)
 -2660.588657232   0.000000000000
 -2660.574311054   0.000000000000
 -2660.434016532   0.000000000000
 -2660.400381910   0.000000000000
   CI-PROBLEM SOLVED
   DENSITIES MADE
CI-ITERATION   0: 
 -2660.645539078   0.000000000000 (    0.00)
 -2660.629318435   0.000000000000
 -2660.616685893   0.000000000000
 -2660.616313082   0.000000000000
 -2660.614358881   0.000000000000
 -2660.609532184   0.000000000000
 -2660.600572563   0.000000000000
 -2660.590639287   0.000000000000
 -2660.588771943   0.000000000000
 -2660.582080870   0.000000000000
 -2660.576480566   0.000000000000
 -2660.570976343   0.000000000000
 -2660.561721449   0.000000000000
 -2660.555959974   0.000000000000
 -2660.552662753   0.000000000000
 -2660.540107912   0.000000000000
 -2660.533815549   0.000000000000
 -2660.491223588   0.000000000000
 -2660.482178072   0.000000000000
 -2660.481469763   0.000000000000
 -2660.464134973   0.000000000000
 -2660.444738905   0.000000000000
 -2660.442211338   0.000000000000
 -2660.427025681   0.000000000000
 -2660.421800206   0.000000000000
 -2660.421094291   0.000000000000
 -2660.420009436   0.000000000000
 -2660.413661370   0.000000000000
 -2660.412409483   0.000000000000
 -2660.394133469   0.000000000000
 -2660.389734071   0.000000000000
 -2660.388855764   0.000000000000
 -2660.368963322   0.000000000000
 -2660.366088515   0.000000000000
 -2660.358636068   0.000000000000
 -2660.356516869   0.000000000000
 -2660.338033121   0.000000000000
 -2660.333714183   0.000000000000
 -2660.259102413   0.000000000000
 -2660.253532104   0.000000000000
 -2660.222007257   0.000000000000
 -2660.220849455   0.000000000000
 -2659.934905466   0.000000000000
 -2659.911835402   0.000000000000
 -2659.785656709   0.000000000000
   CI-PROBLEM SOLVED
   DENSITIES MADE
   E(CAS)= -2660.475979202 Eh DE=   -3.268225e-01
   --- Energy gap subspaces: Ext-Act = 0.100   Act-Int = -0.146
   N(occ)=  1.20000 1.20000 1.20000 1.20000 1.20000
   ||g|| =     1.453049e+00 Max(G)=   -2.880458e-01 Rot=135,125
   --- Orbital Update [SuperCI(PT)]
   --- Canonicalize Internal Space
   --- Canonicalize External Space
   --- SX_PT (Skipped TA=0 IT=0): ||X|| =      0.858782490 Max(X)(129,122) =     -0.363076555 
   --- SFit(Active Orbitals)

MACRO-ITERATION   5: 
   --- Inactive Energy E0 = -2654.33313772 Eh
CI-ITERATION   0: 
 -2660.812549305   0.000000000000 (    0.00)
 -2660.807000280   0.000000000000
 -2660.773820151   0.000000000000
 -2660.738695313   0.000000000000
 -2660.731121953   0.000000000000
   CI-PROBLEM SOLVED
   DENSITIES MADE
CI-ITERATION   0: 
 -2660.830251299   0.000000000000 (    0.00)
 -2660.810504987   0.000000000000
 -2660.798248754   0.000000000000
 -2660.790103314   0.000000000000
 -2660.789325787   0.000000000000
 -2660.779943894   0.000000000000
 -2660.778781343   0.000000000000
 -2660.778428308   0.000000000000
 -2660.769390411   0.000000000000
 -2660.765536552   0.000000000000
 -2660.764841795   0.000000000000
 -2660.756705219   0.000000000000
 -2660.755477239   0.000000000000
 -2660.749863822   0.000000000000
 -2660.745294776   0.000000000000
 -2660.744520893   0.000000000000
 -2660.739904657   0.000000000000
 -2660.730104764   0.000000000000
 -2660.724915023   0.000000000000
 -2660.722463993   0.000000000000
 -2660.717266082   0.000000000000
 -2660.716572042   0.000000000000
 -2660.707897790   0.000000000000
 -2660.707604642   0.000000000000
 -2660.701485500   0.000000000000
 -2660.697913701   0.000000000000
 -2660.696552625   0.000000000000
 -2660.693713087   0.000000000000
 -2660.676870368   0.000000000000
 -2660.663723071   0.000000000000
 -2660.659558551   0.000000000000
 -2660.658950286   0.000000000000
 -2660.651682400   0.000000000000
 -2660.646997488   0.000000000000
 -2660.621816330   0.000000000000
 -2660.566731975   0.000000000000
 -2660.442357364   0.000000000000
 -2660.435103706   0.000000000000
 -2660.418765694   0.000000000000
 -2660.406438246   0.000000000000
 -2660.376239853   0.000000000000
 -2660.373232592   0.000000000000
 -2660.347325002   0.000000000000
 -2660.334391140   0.000000000000
 -2660.311757638   0.000000000000
   CI-PROBLEM SOLVED
   DENSITIES MADE
   E(CAS)= -2660.714713745 Eh DE=   -2.387345e-01
   --- Energy gap subspaces: Ext-Act = 0.271   Act-Int = 0.073
   N(occ)=  1.20000 1.20000 1.20000 1.20000 1.20000
   ||g|| =     5.967301e-01 Max(G)=    6.678591e-02 Rot=128,111
   --- Orbital Update [SuperCI(PT)]
   --- Canonicalize Internal Space
   --- Canonicalize External Space
   --- SX_PT (Skipped TA=0 IT=0): ||X|| =      0.295545030 Max(X)(129,126) =      0.076431437 
   --- SFit(Active Orbitals)

MACRO-ITERATION   6: 
   --- Inactive Energy E0 = -2653.88988001 Eh
CI-ITERATION   0: 
 -2660.850427784   0.000000000000 (    0.00)
 -2660.843980813   0.000000000000
 -2660.820558930   0.000000000000
 -2660.812644248   0.000000000000
 -2660.764475743   0.000000000000
   CI-PROBLEM SOLVED
   DENSITIES MADE
CI-ITERATION   0: 
 -2660.864255833   0.000000000000 (    0.00)
 -2660.860597380   0.000000000000
 -2660.844713126   0.000000000000
 -2660.838137331   0.000000000000
 -2660.834297778   0.000000000000
 -2660.833250328   0.000000000000
 -2660.829815552   0.000000000000
 -2660.827908290   0.000000000000
 -2660.825724436   0.000000000000
 -2660.817893896   0.000000000000
 -2660.816390870   0.000000000000
 -2660.810733797   0.000000000000
 -2660.801212310   0.000000000000
 -2660.801104349   0.000000000000
 -2660.795842102   0.000000000000
 -2660.784006959   0.000000000000
 -2660.783385449   0.000000000000
 -2660.767556790   0.000000000000
 -2660.762843797   0.000000000000
 -2660.753609748   0.000000000000
 -2660.753352740   0.000000000000
 -2660.751928524   0.000000000000
 -2660.748133069   0.000000000000
 -2660.728325664   0.000000000000
 -2660.725883656   0.000000000000
 -2660.723105145   0.000000000000
 -2660.722157109   0.000000000000
 -2660.717095132   0.000000000000
 -2660.715248350   0.000000000000
 -2660.690483132   0.000000000000
 -2660.683610538   0.000000000000
 -2660.678430186   0.000000000000
 -2660.660822011   0.000000000000
 -2660.660447920   0.000000000000
 -2660.621228732   0.000000000000
 -2660.597662780   0.000000000000
 -2660.513073032   0.000000000000
 -2660.491918401   0.000000000000
 -2660.460619682   0.000000000000
 -2660.445875151   0.000000000000
 -2660.437262729   0.000000000000
 -2660.397007200   0.000000000000
 -2660.338706983   0.000000000000
 -2660.317292600   0.000000000000
 -2660.254047390   0.000000000000
   CI-PROBLEM SOLVED
   DENSITIES MADE
   E(CAS)= -2660.754619840 Eh DE=   -3.990610e-02
   --- Energy gap subspaces: Ext-Act = 0.274   Act-Int = 0.011
   N(occ)=  1.20000 1.20000 1.20000 1.20000 1.20000
   ||g|| =     3.991573e-01 Max(G)=   -7.681920e-02 Rot=135,125
   --- Orbital Update [SuperCI(PT)]
   --- Canonicalize Internal Space
   --- Canonicalize External Space
   --- SX_PT (Skipped TA=0 IT=0): ||X|| =      0.218323173 Max(X)(129,126) =      0.064449761 
   --- SFit(Active Orbitals)

MACRO-ITERATION   7: 
   --- Inactive Energy E0 = -2653.78516639 Eh
CI-ITERATION   0: 
 -2660.892952936   0.000000000000 (    0.00)
 -2660.889746933   0.000000000000
 -2660.867448733   0.000000000000
 -2660.843309957   0.000000000000
 -2660.816385215   0.000000000000
   CI-PROBLEM SOLVED
   DENSITIES MADE
CI-ITERATION   0: 
 -2660.911404234   0.000000000000 (    0.00)
 -2660.890088579   0.000000000000
 -2660.880469369   0.000000000000
 -2660.872772685   0.000000000000
 -2660.869323878   0.000000000000
 -2660.858517675   0.000000000000
 -2660.858360487   0.000000000000
 -2660.853880335   0.000000000000
 -2660.853184095   0.000000000000
 -2660.847485081   0.000000000000
 -2660.842691454   0.000000000000
 -2660.839751191   0.000000000000
 -2660.838785936   0.000000000000
 -2660.835842574   0.000000000000
 -2660.828344701   0.000000000000
 -2660.825095598   0.000000000000
 -2660.821520033   0.000000000000
 -2660.813325868   0.000000000000
 -2660.809050692   0.000000000000
 -2660.801571781   0.000000000000
 -2660.798269774   0.000000000000
 -2660.793894617   0.000000000000
 -2660.793036754   0.000000000000
 -2660.777590665   0.000000000000
 -2660.773626027   0.000000000000
 -2660.773513313   0.000000000000
 -2660.772878655   0.000000000000
 -2660.771841477   0.000000000000
 -2660.770363094   0.000000000000
 -2660.744030662   0.000000000000
 -2660.734666474   0.000000000000
 -2660.720314005   0.000000000000
 -2660.718909116   0.000000000000
 -2660.713452357   0.000000000000
 -2660.684504255   0.000000000000
 -2660.636543214   0.000000000000
 -2660.442243267   0.000000000000
 -2660.437217847   0.000000000000
 -2660.383585078   0.000000000000
 -2660.377518201   0.000000000000
 -2660.376228506   0.000000000000
 -2660.372804074   0.000000000000
 -2660.371231172   0.000000000000
 -2660.315033240   0.000000000000
 -2660.314530095   0.000000000000
   CI-PROBLEM SOLVED
   DENSITIES MADE
   E(CAS)= -2660.790087624 Eh DE=   -3.546778e-02
   --- Energy gap subspaces: Ext-Act = 0.284   Act-Int = 0.051
   N(occ)=  1.20000 1.20000 1.20000 1.20000 1.20000
   ||g|| =     3.844827e-01 Max(G)=    3.091611e-02 Rot=136,58
   --- Orbital Update [SuperCI(PT)]
   --- Canonicalize Internal Space
   --- Canonicalize External Space
   --- SX_PT (Skipped TA=0 IT=0): ||X|| =      0.116431015 Max(X)(138,122) =      0.019780835 
   --- SFit(Active Orbitals)

MACRO-ITERATION   8: 
   --- Inactive Energy E0 = -2653.53472462 Eh
CI-ITERATION   0: 
 -2660.900843826   0.000000000000 (    0.00)
 -2660.891747430   0.000000000000
 -2660.887761214   0.000000000000
 -2660.864345887   0.000000000000
 -2660.824671617   0.000000000000
   CI-PROBLEM SOLVED
   DENSITIES MADE
CI-ITERATION   0: 
 -2660.918800463   0.000000000000 (    0.00)
 -2660.906247309   0.000000000000
 -2660.889246440   0.000000000000
 -2660.887956837   0.000000000000
 -2660.885133326   0.000000000000
 -2660.872297773   0.000000000000
 -2660.871911176   0.000000000000
 -2660.868308194   0.000000000000
 -2660.866966659   0.000000000000
 -2660.866222986   0.000000000000
 -2660.857745280   0.000000000000
 -2660.855150131   0.000000000000
 -2660.853768677   0.000000000000
 -2660.848210872   0.000000000000
 -2660.845206132   0.000000000000
 -2660.840988828   0.000000000000
 -2660.821444004   0.000000000000
 -2660.819828202   0.000000000000
 -2660.812386435   0.000000000000
 -2660.810607719   0.000000000000
 -2660.807083386   0.000000000000
 -2660.802189578   0.000000000000
 -2660.800907336   0.000000000000
 -2660.781072276   0.000000000000
 -2660.780884421   0.000000000000
 -2660.777407684   0.000000000000
 -2660.772047166   0.000000000000
 -2660.771814768   0.000000000000
 -2660.770450218   0.000000000000
 -2660.744977582   0.000000000000
 -2660.735649812   0.000000000000
 -2660.718764987   0.000000000000
 -2660.716565067   0.000000000000
 -2660.714838990   0.000000000000
 -2660.678290397   0.000000000000
 -2660.641731102   0.000000000000
 -2660.459679885   0.000000000000
 -2660.459396575   0.000000000000
 -2660.399164795   0.000000000000
 -2660.398396458   0.000000000000
 -2660.391838954   0.000000000000
 -2660.338333109   0.000000000000
 -2660.335064430   0.000000000000
 -2660.330892822   0.000000000000
 -2660.273530974   0.000000000000
   CI-PROBLEM SOLVED
   DENSITIES MADE
   E(CAS)= -2660.799152555 Eh DE=   -9.064931e-03
   --- Energy gap subspaces: Ext-Act = 0.284   Act-Int = 0.030
   N(occ)=  1.20000 1.20000 1.20000 1.20000 1.20000
   ||g|| =     1.286892e-01 Max(G)=   -2.026873e-02 Rot=462,17
   --- Orbital Update [SuperCI(PT)]
   --- Canonicalize Internal Space
   --- Canonicalize External Space
   --- SX_PT (Skipped TA=0 IT=0): ||X|| =      0.045630715 Max(X)(126,121) =      0.009266227 
   --- SFit(Active Orbitals)

MACRO-ITERATION   9: 
   --- Inactive Energy E0 = -2653.54112609 Eh
CI-ITERATION   0: 
 -2660.900894055   0.000000000000 (    0.00)
 -2660.891467021   0.000000000000
 -2660.889229750   0.000000000000
 -2660.865764354   0.000000000000
 -2660.825123635   0.000000000000
   CI-PROBLEM SOLVED
   DENSITIES MADE
CI-ITERATION   0: 
 -2660.918179411   0.000000000000 (    0.00)
 -2660.907027325   0.000000000000
 -2660.891147082   0.000000000000
 -2660.887647080   0.000000000000
 -2660.885762611   0.000000000000
 -2660.872643031   0.000000000000
 -2660.872512219   0.000000000000
 -2660.868918918   0.000000000000
 -2660.867650330   0.000000000000
 -2660.867146238   0.000000000000
 -2660.859119721   0.000000000000
 -2660.857072707   0.000000000000
 -2660.855175314   0.000000000000
 -2660.849565609   0.000000000000
 -2660.846196938   0.000000000000
 -2660.840917953   0.000000000000
 -2660.821888446   0.000000000000
 -2660.819763221   0.000000000000
 -2660.812510103   0.000000000000
 -2660.810765268   0.000000000000
 -2660.808105559   0.000000000000
 -2660.802121420   0.000000000000
 -2660.800800253   0.000000000000
 -2660.781050519   0.000000000000
 -2660.780743912   0.000000000000
 -2660.777375516   0.000000000000
 -2660.771993956   0.000000000000
 -2660.771655870   0.000000000000
 -2660.770564035   0.000000000000
 -2660.744923270   0.000000000000
 -2660.735863335   0.000000000000
 -2660.718748025   0.000000000000
 -2660.716903893   0.000000000000
 -2660.715268481   0.000000000000
 -2660.678151440   0.000000000000
 -2660.642638974   0.000000000000
 -2660.468457080   0.000000000000
 -2660.467631845   0.000000000000
 -2660.404204487   0.000000000000
 -2660.403982823   0.000000000000
 -2660.399917047   0.000000000000
 -2660.340074695   0.000000000000
 -2660.339622713   0.000000000000
 -2660.333064657   0.000000000000
 -2660.275713687   0.000000000000
   CI-PROBLEM SOLVED
   DENSITIES MADE
   E(CAS)= -2660.800149959 Eh DE=   -9.974040e-04
   --- Energy gap subspaces: Ext-Act = 0.282   Act-Int = 0.027
   N(occ)=  1.20000 1.20000 1.20000 1.20000 1.20000
   ||g|| =     7.903167e-02 Max(G)=    1.520365e-02 Rot=128,124
   --- Orbital Update [SuperCI(PT)]
   --- Canonicalize Internal Space
   --- Canonicalize External Space
   --- SX_PT (Skipped TA=0 IT=0): ||X|| =      0.037692148 Max(X)(126,121) =      0.008940204 
   --- SFit(Active Orbitals)

MACRO-ITERATION  10: 
   --- Inactive Energy E0 = -2653.53076345 Eh
CI-ITERATION   0: 
 -2660.901317783   0.000000000000 (    0.00)
 -2660.893562876   0.000000000000
 -2660.888800252   0.000000000000
 -2660.865532819   0.000000000000
 -2660.825245649   0.000000000000
   CI-PROBLEM SOLVED
   DENSITIES MADE
CI-ITERATION   0: 
 -2660.919454732   0.000000000000 (    0.00)
 -2660.906767956   0.000000000000
 -2660.891555542   0.000000000000
 -2660.887428045   0.000000000000
 -2660.885752270   0.000000000000
 -2660.872566262   0.000000000000
 -2660.871864058   0.000000000000
 -2660.868473326   0.000000000000
 -2660.867299349   0.000000000000
 -2660.866813241   0.000000000000
 -2660.858564557   0.000000000000
 -2660.857919592   0.000000000000
 -2660.855669570   0.000000000000
 -2660.849054051   0.000000000000
 -2660.845834235   0.000000000000
 -2660.842232358   0.000000000000
 -2660.822071734   0.000000000000
 -2660.821620294   0.000000000000
 -2660.814144081   0.000000000000
 -2660.810281023   0.000000000000
 -2660.807892175   0.000000000000
 -2660.803029525   0.000000000000
 -2660.801023506   0.000000000000
 -2660.781711646   0.000000000000
 -2660.781224775   0.000000000000
 -2660.777937322   0.000000000000
 -2660.772182496   0.000000000000
 -2660.771734147   0.000000000000
 -2660.770766519   0.000000000000
 -2660.745050221   0.000000000000
 -2660.736130862   0.000000000000
 -2660.720823380   0.000000000000
 -2660.719382471   0.000000000000
 -2660.715892007   0.000000000000
 -2660.678975280   0.000000000000
 -2660.642685132   0.000000000000
 -2660.472310162   0.000000000000
 -2660.471297317   0.000000000000
 -2660.403614398   0.000000000000
 -2660.403058489   0.000000000000
 -2660.402982350   0.000000000000
 -2660.346189933   0.000000000000
 -2660.340187160   0.000000000000
 -2660.339167279   0.000000000000
 -2660.282830373   0.000000000000
   CI-PROBLEM SOLVED
   DENSITIES MADE
   E(CAS)= -2660.800817551 Eh DE=   -6.675918e-04
   --- Energy gap subspaces: Ext-Act = 0.280   Act-Int = 0.029
   N(occ)=  1.20000 1.20000 1.20000 1.20000 1.20000
   ||g|| =     6.213798e-02 Max(G)=    1.335725e-02 Rot=128,124
   --- Orbital Update [SuperCI(PT)]
   --- Canonicalize Internal Space
   --- Canonicalize External Space
   --- SX_PT (Skipped TA=0 IT=0): ||X|| =      0.030490600 Max(X)(126,121) =      0.007014575 
   --- SFit(Active Orbitals)

MACRO-ITERATION  11: 
   --- Inactive Energy E0 = -2653.51680541 Eh
CI-ITERATION   0: 
 -2660.901413269   0.000000000000 (    0.00)
 -2660.894948190   0.000000000000
 -2660.888479278   0.000000000000
 -2660.865471780   0.000000000000
 -2660.825279827   0.000000000000
   CI-PROBLEM SOLVED
   DENSITIES MADE
CI-ITERATION   0: 
 -2660.920137236   0.000000000000 (    0.00)
 -2660.906451636   0.000000000000
 -2660.891987509   0.000000000000
 -2660.887060632   0.000000000000
 -2660.885704560   0.000000000000
 -2660.872499337   0.000000000000
 -2660.871351816   0.000000000000
 -2660.868175648   0.000000000000
 -2660.866704370   0.000000000000
 -2660.866363747   0.000000000000
 -2660.858578342   0.000000000000
 -2660.858103893   0.000000000000
 -2660.856201231   0.000000000000
 -2660.848699051   0.000000000000
 -2660.845531014   0.000000000000
 -2660.843030837   0.000000000000
 -2660.822831230   0.000000000000
 -2660.821840433   0.000000000000
 -2660.815122040   0.000000000000
 -2660.809838976   0.000000000000
 -2660.807731003   0.000000000000
 -2660.803561316   0.000000000000
 -2660.800888376   0.000000000000
 -2660.781831606   0.000000000000
 -2660.781357422   0.000000000000
 -2660.778128300   0.000000000000
 -2660.772162779   0.000000000000
 -2660.771588084   0.000000000000
 -2660.770679177   0.000000000000
 -2660.745001338   0.000000000000
 -2660.736150054   0.000000000000
 -2660.722217135   0.000000000000
 -2660.720974003   0.000000000000
 -2660.716111581   0.000000000000
 -2660.679310708   0.000000000000
 -2660.642668099   0.000000000000
 -2660.475684538   0.000000000000
 -2660.474282696   0.000000000000
 -2660.406749026   0.000000000000
 -2660.402280941   0.000000000000
 -2660.401974203   0.000000000000
 -2660.350411574   0.000000000000
 -2660.344901407   0.000000000000
 -2660.338415959   0.000000000000
 -2660.287620962   0.000000000000
   CI-PROBLEM SOLVED
   DENSITIES MADE
   E(CAS)= -2660.801213632 Eh DE=   -3.960813e-04
   --- Energy gap subspaces: Ext-Act = 0.278   Act-Int = 0.029
   N(occ)=  1.20000 1.20000 1.20000 1.20000 1.20000
   ||g|| =     5.095409e-02 Max(G)=    1.202511e-02 Rot=128,124
   --- Orbital Update [SuperCI(PT)]
   --- Canonicalize Internal Space
   --- Canonicalize External Space
   --- SX_PT (Skipped TA=0 IT=0): ||X|| =      0.025901358 Max(X)(135,124) =      0.005819675 
   --- SFit(Active Orbitals)

MACRO-ITERATION  12: 
   --- Inactive Energy E0 = -2653.50536041 Eh
CI-ITERATION   0: 
 -2660.901287252   0.000000000000 (    0.00)
 -2660.896007935   0.000000000000
 -2660.888093578   0.000000000000
 -2660.865324038   0.000000000000
 -2660.825193758   0.000000000000
   CI-PROBLEM SOLVED
   DENSITIES MADE
CI-ITERATION   0: 
 -2660.920473101   0.000000000000 (    0.00)
 -2660.905991200   0.000000000000
 -2660.892512229   0.000000000000
 -2660.886424353   0.000000000000
 -2660.885472936   0.000000000000
 -2660.872282420   0.000000000000
 -2660.870715365   0.000000000000
 -2660.867560025   0.000000000000
 -2660.866218954   0.000000000000
 -2660.865816778   0.000000000000
 -2660.859328072   0.000000000000
 -2660.857604434   0.000000000000
 -2660.856504372   0.000000000000
 -2660.848258086   0.000000000000
 -2660.845255765   0.000000000000
 -2660.843608249   0.000000000000
 -2660.823730647   0.000000000000
 -2660.821562096   0.000000000000
 -2660.815863978   0.000000000000
 -2660.809296422   0.000000000000
 -2660.807476523   0.000000000000
 -2660.803911037   0.000000000000
 -2660.800500516   0.000000000000
 -2660.781608371   0.000000000000
 -2660.781164780   0.000000000000
 -2660.778120888   0.000000000000
 -2660.771988281   0.000000000000
 -2660.771329313   0.000000000000
 -2660.770489402   0.000000000000
 -2660.744801846   0.000000000000
 -2660.736050286   0.000000000000
 -2660.723432439   0.000000000000
 -2660.722323715   0.000000000000
 -2660.716040299   0.000000000000
 -2660.679412026   0.000000000000
 -2660.642593474   0.000000000000
 -2660.479979917   0.000000000000
 -2660.478200535   0.000000000000
 -2660.410857557   0.000000000000
 -2660.402089649   0.000000000000
 -2660.401430795   0.000000000000
 -2660.354798618   0.000000000000
 -2660.349799076   0.000000000000
 -2660.338248867   0.000000000000
 -2660.292512736   0.000000000000
   CI-PROBLEM SOLVED
   DENSITIES MADE
   E(CAS)= -2660.801519994 Eh DE=   -3.063618e-04
   --- Energy gap subspaces: Ext-Act = 0.276   Act-Int = 0.030
   N(occ)=  1.20000 1.20000 1.20000 1.20000 1.20000
   ||g|| =     4.385156e-02 Max(G)=    1.063400e-02 Rot=128,124
   --- Orbital Update [SuperCI(PT)]
   --- Canonicalize Internal Space
   --- Canonicalize External Space
   --- SX_PT (Skipped TA=0 IT=0): ||X|| =      0.022354032 Max(X)(135,124) =      0.005494660 
   --- SFit(Active Orbitals)

MACRO-ITERATION  13: 
   --- Inactive Energy E0 = -2653.48259627 Eh
CI-ITERATION   0: 
 -2660.900842414   0.000000000000 (    0.00)
 -2660.897860584   0.000000000000
 -2660.887109568   0.000000000000
 -2660.864787406   0.000000000000
 -2660.824776784   0.000000000000
   CI-PROBLEM SOLVED
   DENSITIES MADE
CI-ITERATION   0: 
 -2660.921034776   0.000000000000 (    0.00)
 -2660.904935415   0.000000000000
 -2660.893384994   0.000000000000
 -2660.885014661   0.000000000000
 -2660.884842140   0.000000000000
 -2660.871759015   0.000000000000
 -2660.869921642   0.000000000000
 -2660.866109250   0.000000000000
 -2660.864810963   0.000000000000
 -2660.864572369   0.000000000000
 -2660.860453061   0.000000000000
 -2660.856774301   0.000000000000
 -2660.856367419   0.000000000000
 -2660.847151733   0.000000000000
 -2660.844613564   0.000000000000
 -2660.844370388   0.000000000000
 -2660.825272374   0.000000000000
 -2660.820847953   0.000000000000
 -2660.817083860   0.000000000000
 -2660.807997818   0.000000000000
 -2660.806766619   0.000000000000
 -2660.804601913   0.000000000000
 -2660.799310030   0.000000000000
 -2660.780577015   0.000000000000
 -2660.780331495   0.000000000000
 -2660.777838083   0.000000000000
 -2660.771423195   0.000000000000
 -2660.770589938   0.000000000000
 -2660.769851603   0.000000000000
 -2660.744177298   0.000000000000
 -2660.735629364   0.000000000000
 -2660.725657748   0.000000000000
 -2660.724774398   0.000000000000
 -2660.715771618   0.000000000000
 -2660.679408038   0.000000000000
 -2660.642269481   0.000000000000
 -2660.488217003   0.000000000000
 -2660.485848675   0.000000000000
 -2660.418877755   0.000000000000
 -2660.401616019   0.000000000000
 -2660.400424057   0.000000000000
 -2660.363433362   0.000000000000
 -2660.359269098   0.000000000000
 -2660.337979709   0.000000000000
 -2660.302071340   0.000000000000
   CI-PROBLEM SOLVED
   DENSITIES MADE
   E(CAS)= -2660.801915815 Eh DE=   -3.958207e-04
   --- Energy gap subspaces: Ext-Act = 0.272   Act-Int = 0.032
   N(occ)=  1.20000 1.20000 1.20000 1.20000 1.20000
   ||g|| =     3.415612e-02 Max(G)=    8.387717e-03 Rot=128,124
   --- Orbital Update [SuperCI(PT)]
   --- Canonicalize Internal Space
   --- Canonicalize External Space
   --- SX_PT (Skipped TA=0 IT=0): ||X|| =      0.017111985 Max(X)(135,124) =     -0.004971038 
   --- SFit(Active Orbitals)

MACRO-ITERATION  14: 
   --- Inactive Energy E0 = -2653.46092380 Eh
CI-ITERATION   0: 
 -2660.900857513   0.000000000000 (    0.00)
 -2660.900221409   0.000000000000
 -2660.884833847   0.000000000000
 -2660.863133561   0.000000000000
[...]
      dxy     :     0.003945
      f0      :     0.000055  f :     0.000377
      f+1     :     0.000073
      f-1     :     0.000024
      f+2     :     0.000075
      f-2     :     0.000075
      f+3     :     0.000047
      f-3     :     0.000029
  6 Aus       :     0.044959  s :     0.044959
      pz      :     0.014810  p :     0.039210
      px      :     0.016962
      py      :     0.007438
      dz2     :     0.002137  d :     0.011448
      dxz     :     0.000373
      dyz     :     0.004093
      dx2y2   :     0.001036
      dxy     :     0.003808
      f0      :     0.000009  f :     0.000068
      f+1     :     0.000006
      f-1     :     0.000025
      f+2     :     0.000006
      f-2     :     0.000003
      f+3     :     0.000016
      f-3     :     0.000003
  7 Aus       :     0.044799  s :     0.044799
      pz      :     0.015992  p :     0.039247
      px      :     0.015267
      py      :     0.007988
      dz2     :     0.002489  d :     0.011458
      dxz     :     0.002132
      dyz     :     0.001984
      dx2y2   :     0.004099
      dxy     :     0.000753
      f0      :     0.000003  f :     0.000068
      f+1     :     0.000020
      f-1     :     0.000016
      f+2     :     0.000006
      f-2     :     0.000002
      f+3     :     0.000019
      f-3     :     0.000001
  8 Aus       :     0.038594  s :     0.038594
      pz      :     0.008146  p :     0.020156
      px      :     0.010329
      py      :     0.001681
      dz2     :     0.005843  d :     0.023719
      dxz     :     0.004349
      dyz     :     0.005214
      dx2y2   :     0.003353
      dxy     :     0.004959
      f0      :     0.000022  f :     0.000377
      f+1     :     0.000088
      f-1     :     0.000035
      f+2     :     0.000106
      f-2     :     0.000047
      f+3     :     0.000049
      f-3     :     0.000030
  9 Aus       :     0.044978  s :     0.044978
      pz      :     0.015324  p :     0.039205
      px      :     0.016290
      py      :     0.007592
      dz2     :     0.004230  d :     0.011473
      dxz     :     0.001394
      dyz     :     0.001684
      dx2y2   :     0.001228
      dxy     :     0.002938
      f0      :     0.000004  f :     0.000068
      f+1     :     0.000011
      f-1     :     0.000026
      f+2     :     0.000006
      f-2     :     0.000003
      f+3     :     0.000014
      f-3     :     0.000004
 10 Aus       :     0.003524  s :     0.003524
      pz      :     0.003013  p :     0.045858
      px      :     0.014949
      py      :     0.027896
      dz2     :     0.005601  d :     0.017483
      dxz     :     0.001905
      dyz     :     0.002389
      dx2y2   :     0.004909
      dxy     :     0.002680
      f0      :     0.000026  f :     0.000355
      f+1     :     0.000032
      f-1     :     0.000090
      f+2     :     0.000035
      f-2     :     0.000038
      f+3     :     0.000079
      f-3     :     0.000056
 11 Aus       :     0.003495  s :     0.003495
      pz      :     0.001570  p :     0.045717
      px      :     0.014980
      py      :     0.029167
      dz2     :     0.005192  d :     0.017595
      dxz     :     0.002210
      dyz     :     0.002695
      dx2y2   :     0.005518
      dxy     :     0.001979
      f0      :     0.000070  f :     0.000357
      f+1     :     0.000041
      f-1     :     0.000071
      f+2     :     0.000038
      f-2     :     0.000046
      f+3     :     0.000056
      f-3     :     0.000034
 12 Crs       :     0.001041  s :     0.001041
      pz      :     0.003495  p :     0.006363
      px      :     0.001934
      py      :     0.000934
      dz2     :     0.536973  d :     2.010761
      dxz     :     0.082419
      dyz     :     0.188907
      dx2y2   :     0.637573
      dxy     :     0.564889
      f0      :     0.000003  f :     0.000007
      f+1     :     0.000000
      f-1     :     0.000001
      f+2     :     0.000000
      f-2     :     0.000000
      f+3     :     0.000000
      f-3     :     0.000003


                      *****************************
                      * MAYER POPULATION ANALYSIS *
                      *****************************

  NA   - Mulliken gross atomic population
  ZA   - Total nuclear charge
  QA   - Mulliken gross atomic charge
  VA   - Mayer's total valence
  BVA  - Mayer's bonded valence
  FA   - Mayer's free valence

  ATOM       NA         ZA         QA         VA         BVA        FA
  0 Au    18.6446    19.0000     0.3554     1.4412     1.4198     0.0213
  1 Au    18.8587    19.0000     0.1413     1.5832     1.5220     0.0612
  2 Au    18.5980    19.0000     0.4020     1.1573     1.0551     0.1023
  3 Au    18.6475    19.0000     0.3525     1.4431     1.4220     0.0211
  4 Au    18.8567    19.0000     0.1433     1.5852     1.5235     0.0617
  5 Au    18.8585    19.0000     0.1415     1.5835     1.5220     0.0614
  6 Au    18.5982    19.0000     0.4018     1.1579     1.0546     0.1034
  7 Au    18.5987    19.0000     0.4013     1.1585     1.0554     0.1031
  8 Au    18.8545    19.0000     0.1455     1.5851     1.5239     0.0612
  9 Au    18.5983    19.0000     0.4017     1.1580     1.0546     0.1033
 10 Au    18.6443    19.0000     0.3557     1.4406     1.4193     0.0213
 11 Au    18.6462    19.0000     0.3538     1.4415     1.4203     0.0212
 12 Cr    27.5957    24.0000    -3.5957     9.5753     6.1072     3.4682

  Mayer bond orders larger than 0.100000
B(  0-Au,  4-Au) :   0.4136 B(  0-Au,  7-Au) :   0.1355 B(  0-Au, 12-Cr) :   0.7084 
B(  1-Au,  3-Au) :   0.4165 B(  1-Au,  7-Au) :   0.1601 B(  1-Au,  9-Au) :   0.1867 
B(  1-Au, 12-Cr) :   0.4706 B(  2-Au,  3-Au) :   0.1346 B(  2-Au,  4-Au) :   0.1603 
B(  2-Au,  5-Au) :   0.1873 B(  2-Au,  6-Au) :   0.1580 B(  2-Au, 12-Cr) :   0.3476 
B(  3-Au, 12-Cr) :   0.7076 B(  4-Au,  6-Au) :   0.1868 B(  4-Au, 12-Cr) :   0.4719 
B(  5-Au,  6-Au) :   0.1594 B(  5-Au, 11-Au) :   0.4159 B(  5-Au, 12-Cr) :   0.4705 
B(  6-Au, 10-Au) :   0.1350 B(  6-Au, 12-Cr) :   0.3472 B(  7-Au,  8-Au) :   0.1862 
B(  7-Au,  9-Au) :   0.1578 B(  7-Au, 12-Cr) :   0.3476 B(  8-Au,  9-Au) :   0.1603 
B(  8-Au, 10-Au) :   0.4134 B(  8-Au, 12-Cr) :   0.4729 B(  9-Au, 11-Au) :   0.1349 
B(  9-Au, 12-Cr) :   0.3465 B( 10-Au, 12-Cr) :   0.7096 B( 11-Au, 12-Cr) :   0.7071 



-------------------------------------------------------------
 Forming the transition density       ... done in 0.022448 sec
-------------------------------------------------------------



==========================================
CASSCF UV, CD spectra and dipole moments
==========================================
-------------------
ABSORPTION SPECTRUM
-------------------

Center of mass           = ( 15.8437, 13.0580, 15.5558)
Nuclear contribution to the dipole moment =    -0.015010,    0.024946,    0.027506 au

Calculating the Dipole integrals                  ... done
Transforming integrals                            ... done
Calculating the Linear Momentum integrals         ... done
Transforming integrals                            ... done
Calculating the Angular Momentum integrals        ... done
Transforming integrals                            ... done

------------------------------------------------------------------------------------------
                                ABSORPTION SPECTRUM
------------------------------------------------------------------------------------------
  States           Energy   Wavelength   fosc          T2        TX         TY        TZ  
                   (cm-1)     (nm)                   (D**2)      (D)        (D)       (D) 
------------------------------------------------------------------------------------------
  0( 1)-> 1( 1) 3    5011.3   1995.5   0.000087311   0.03700   0.15909   0.10623   0.02007
  0( 1)-> 2( 1) 3    5953.0   1679.8   0.000000307   0.00011   0.00193  -0.00237  -0.01001
  0( 1)-> 3( 1) 3    9201.4   1086.8   0.000030468   0.00703   0.07228   0.04156   0.00891
  0( 1)-> 4( 1) 3    9531.7   1049.1   0.028705409   6.39511   1.42375  -2.07397  -0.25830
  0( 1)-> 5( 1) 3   11690.6    855.4   0.000045776   0.00831   0.01144  -0.03248   0.08443
  0( 1)-> 6( 1) 3   11980.2    834.7   0.017708353   3.13882   0.99835  -1.45229  -0.18155
  0( 1)-> 7( 1) 3   13143.7    760.8   0.000005284   0.00085   0.01635  -0.02399  -0.00333
  0( 1)-> 8( 1) 3   13611.1    734.7   0.000025281   0.00394   0.00102   0.00747  -0.06235
  0( 1)-> 9( 1) 3   13947.1    717.0   0.000165579   0.02521   0.08948  -0.13020  -0.01585
  0( 1)->10( 1) 3   14269.4    700.8   0.000025676   0.00382   0.04945   0.03675   0.00506
  0( 1)->11( 1) 3   14972.4    667.9   0.000194810   0.02763   0.00797   0.02136  -0.16465
  0( 1)->12( 1) 3   15818.1    632.2   0.000013881   0.00186   0.03480   0.02489   0.00576
  0( 1)->13( 1) 3   16379.0    610.5   0.000000111   0.00001  -0.00301   0.00204   0.00110
  0( 1)->14( 1) 3   17795.5    561.9   0.000024364   0.00291  -0.03023   0.04425   0.00595
  0( 1)->15( 1) 3   18446.7    542.1   0.000005598   0.00064   0.02133   0.01341   0.00310
  0( 1)->16( 1) 3   20380.4    490.7   0.000000025   0.00000  -0.00120   0.00106   0.00025
  0( 1)->17( 1) 3   22405.9    446.3   0.000008852   0.00084   0.00260  -0.00877   0.02748
  0( 1)->18( 1) 3   23126.7    432.4   0.000290928   0.02671  -0.09216   0.13404   0.01589
  0( 1)->19( 1) 3   25189.1    397.0   0.000000475   0.00004   0.00471  -0.00406  -0.00115
  0( 1)->20( 1) 3   26369.6    379.2   0.000029704   0.00239  -0.04204   0.02490   0.00217
  0( 1)->21( 1) 3   26371.4    379.2   0.009982731   0.80384   0.50341  -0.73618  -0.09199
  0( 1)->22( 1) 3   28922.9    345.7   0.000005932   0.00044   0.00050   0.00157  -0.02080
  0( 1)->23( 1) 3   31910.4    313.4   0.000009849   0.00066   0.02126   0.01393   0.00306
  0( 1)->24( 1) 3   32957.1    303.4   0.000629939   0.04059  -0.00732  -0.02808   0.19937
  0( 1)->25( 1) 3   33347.2    299.9   0.000003158   0.00020   0.01229  -0.00618  -0.00345
  0( 1)->26( 1) 3   33598.7    297.6   0.000000040   0.00000   0.00084  -0.00125  -0.00054
  0( 1)->27( 1) 3   33909.4    294.9   0.000065979   0.00413   0.05313   0.03556   0.00667
  0( 1)->28( 1) 3   34020.7    293.9   0.000058089   0.00363  -0.03304   0.04998   0.00600
  0( 1)->29( 1) 3   39600.5    252.5   0.000014692   0.00079  -0.02341  -0.01517  -0.00309
  0( 1)->30( 1) 3   41412.4    241.5   0.000000558   0.00003   0.00291  -0.00448  -0.00032
  0( 1)->31( 1) 3   41619.0    240.3   0.000000001   0.00000  -0.00008   0.00005   0.00023
  0( 1)->32( 1) 3   41764.2    239.4   0.000003248   0.00017  -0.00034   0.00165  -0.01274
  0( 1)->33( 1) 3   45788.6    218.4   0.000003883   0.00018   0.00754  -0.01101  -0.00139
  0( 1)->34( 1) 3   53212.9    187.9   0.000000029   0.00000  -0.00087  -0.00062  -0.00015
  0( 1)->35( 1) 3   62013.3    161.3   0.000001539   0.00005  -0.00409   0.00596   0.00071
  0( 1)->36( 1) 3   90048.4    111.1   0.000000000   0.00000   0.00005   0.00002   0.00002
  0( 1)->37( 1) 3   90884.6    110.0   0.000000011   0.00000   0.00009   0.00015  -0.00048
  0( 1)->38( 1) 3  105646.7     94.7   0.000016206   0.00033   0.00066   0.00250  -0.01786
  0( 1)->39( 1) 3  115693.7     86.4   0.000001408   0.00003   0.00404   0.00097  -0.00293
  0( 1)->40( 1) 3  115764.3     86.4   0.000000005   0.00000  -0.00012  -0.00025  -0.00011
  0( 1)->41( 1) 3  116067.0     86.2   0.002451018   0.04484  -0.00989  -0.02670   0.20984
  0( 1)->42( 1) 3  116317.2     86.0   0.000201746   0.00368  -0.05007  -0.03370  -0.00638
  0( 1)->43( 1) 3  128278.4     78.0   0.000089412   0.00148   0.00025   0.00451  -0.03821
  0( 1)->44( 1) 3  129820.0     77.0   0.000037137   0.00061  -0.02060  -0.01322  -0.00291
------------------------------------------------------------------------------------------



------------------------------------------------------------------------------
                             CD SPECTRUM
------------------------------------------------------------------------------
      States        Energy   Wavelength   R*T        RX        RY        RZ   
                    (cm-1)      (nm)   (1e40*sgs)   (au)      (au)      (au)  
------------------------------------------------------------------------------
  0( 1)-> 1( 1) 3    5011.3   1995.5   -10.31134  -0.23919  -0.15899  -0.03243
  0( 1)-> 2( 1) 3    5953.0   1679.8    -0.01039   0.00120   0.00066   0.00567
  0( 1)-> 3( 1) 3    9201.4   1086.8    -1.26742  -0.06704  -0.04539  -0.01139
  0( 1)-> 4( 1) 3    9531.7   1049.1   -168.15536  -0.20418   0.29218   0.03840
  0( 1)-> 5( 1) 3   11690.6    855.4     3.17550  -0.00860  -0.02834   0.19303
  0( 1)-> 6( 1) 3   11980.2    834.7   -30.61597  -0.05285   0.07636   0.00776
  0( 1)-> 7( 1) 3   13143.7    760.8    -0.01562  -0.00147   0.00252  -0.00008
  0( 1)-> 8( 1) 3   13611.1    734.7     2.15443   0.00647   0.02850  -0.18278
  0( 1)-> 9( 1) 3   13947.1    717.0    -0.74612  -0.01463   0.02042   0.00343
  0( 1)->10( 1) 3   14269.4    700.8    -1.07299  -0.07736  -0.05145  -0.01363
  0( 1)->11( 1) 3   14972.4    667.9     7.54643   0.00976   0.03899  -0.24158
  0( 1)->12( 1) 3   15818.1    632.2    -0.49808  -0.05148  -0.03460  -0.00571
  0( 1)->13( 1) 3   16379.0    610.5     0.00005  -0.00024  -0.00018  -0.00006
  0( 1)->14( 1) 3   17795.5    561.9    -0.08618   0.00475  -0.00722  -0.00028
  0( 1)->15( 1) 3   18446.7    542.1    -0.11425  -0.01982  -0.01370  -0.00302
  0( 1)->16( 1) 3   20380.4    490.7    -0.00006   0.00022  -0.00018   0.00042
  0( 1)->17( 1) 3   22405.9    446.3    -0.32295   0.00188   0.01081  -0.06009
  0( 1)->18( 1) 3   23126.7    432.4    -0.00819   0.00011  -0.00037   0.00096
  0( 1)->19( 1) 3   25189.1    397.0    -0.00048  -0.00011   0.00049   0.00007
  0( 1)->20( 1) 3   26369.6    379.2    -0.12791   0.01832   0.00311   0.00151
  0( 1)->21( 1) 3   26371.4    379.2   -26.84477  -0.09125   0.13201   0.01751
  0( 1)->22( 1) 3   28922.9    345.7     0.44481   0.00334   0.01647  -0.11395
  0( 1)->23( 1) 3   31910.4    313.4    -0.07783  -0.01344  -0.00921  -0.00180
  0( 1)->24( 1) 3   32957.1    303.4     5.20242  -0.00530  -0.02135   0.13749
  0( 1)->25( 1) 3   33347.2    299.9     0.00099   0.00020  -0.00025  -0.00038
  0( 1)->26( 1) 3   33598.7    297.6    -0.01303  -0.02623   0.03687   0.00426
  0( 1)->27( 1) 3   33909.4    294.9    -1.01970  -0.07065  -0.04725  -0.00955
  0( 1)->28( 1) 3   34020.7    293.9    -0.00492  -0.00097  -0.00113  -0.00039
  0( 1)->29( 1) 3   39600.5    252.5    -0.17072   0.02681   0.01842   0.00433
  0( 1)->30( 1) 3   41412.4    241.5    -0.01312  -0.00757   0.01077   0.00151
  0( 1)->31( 1) 3   41619.0    240.3     0.00000  -0.00015   0.00026  -0.00001
  0( 1)->32( 1) 3   41764.2    239.4    -0.03897  -0.00097  -0.00219   0.01623
  0( 1)->33( 1) 3   45788.6    218.4    -0.00762  -0.00176   0.00248   0.00037
  0( 1)->34( 1) 3   53212.9    187.9    -0.00713   0.02946   0.01956   0.00401
  0( 1)->35( 1) 3   62013.3    161.3    -0.00117   0.00049  -0.00073   0.00004
  0( 1)->36( 1) 3   90048.4    111.1    -0.00000  -0.00006  -0.00005   0.00000
  0( 1)->37( 1) 3   90884.6    110.0    -0.00043  -0.00017  -0.00066   0.00466
  0( 1)->38( 1) 3  105646.7     94.7     0.01563   0.00012   0.00077  -0.00461
  0( 1)->39( 1) 3  115693.7     86.4     0.00120   0.00033   0.00035  -0.00163
  0( 1)->40( 1) 3  115764.3     86.4    -0.00002   0.00035   0.00020  -0.00008
  0( 1)->41( 1) 3  116067.0     86.2     4.42478  -0.00462  -0.01805   0.11117
  0( 1)->42( 1) 3  116317.2     86.0    -1.01266   0.07448   0.04944   0.01014
  0( 1)->43( 1) 3  128278.4     78.0    -0.57097  -0.00249  -0.01086   0.07927
  0( 1)->44( 1) 3  129820.0     77.0    -0.10331   0.01842   0.01278   0.00301
------------------------------------------------------------------------------

------------------------------------------------------------------------------
                                 DIPOLE MOMENTS
------------------------------------------------------------------------------
  Root  Block           TX        TY        TZ           |T|
                      (Debye)   (Debye)   (Debye)      (Debye)
------------------------------------------------------------------------------
    0    1           -0.01475   0.02495  -0.00159      0.02903

--------------
CASSCF TIMINGS
--------------

Total time                       ...     2494.6 sec
Sum of individual times          ...     2489.6 sec ( 99.8%)

Calculation of AO operators
   F(Core) operator              ...     1221.5 sec ( 49.0%)
   G(Act) operator               ...     1178.2 sec ( 47.2%)
   J(AO) operators               ...        0.0 sec (  0.0%)
Calculation of MO transformed quantities
   J(MO) operators               ...       84.4 sec (  3.4%)
   (pq|rs) integrals             ...        0.0 sec (  0.0%)
   AO->MO one electron integrals ...        0.7 sec (  0.0%)
Configuration interaction steps
   CI-setup phase                ...        0.0 sec (  0.0%)
   CI-solution phase             ...        0.6 sec (  0.0%)
   Generation of densities       ...        0.1 sec (  0.0%)
Orbital improvement steps
   Orbital gradient              ...        0.1 sec (  0.0%)
   O(1) converger                ...        4.1 sec (  0.2%)
Properties                       ...        0.0 sec (  0.0%)
   SOC integral calculation      ...        0.0 sec (  0.0%)
   SSC RMEs (incl. integrals)    ...        0.0 sec (  0.0%)
   SOC RMEs                      ...        0.0 sec (  0.0%)

Maximum memory used throughout the entire CASSCF-calculation: 311.1 MB

-------------------------   --------------------
FINAL SINGLE POINT ENERGY     -2660.802314052345
-------------------------   --------------------


                            ***************************************
                            *     ORCA property calculations      *
                            ***************************************

                                    ---------------------
                                    Active property flags
                                    ---------------------
   (+) Dipole Moment


------------------------------------------------------------------------------
                       ORCA ELECTRIC PROPERTIES CALCULATION
------------------------------------------------------------------------------

Dipole Moment Calculation                       ... on
Quadrupole Moment Calculation                   ... off
Polarizability Calculation                      ... off
GBWName                                         ... casscf.gbw
Electron density                                ... casscf.scfp
The origin for moment calculation is the CENTER OF MASS  = (15.843683, 13.057996 15.555792)

-------------
DIPOLE MOMENT
-------------
                                X             Y             Z
Electronic contribution:      0.01792      -0.02634      -0.02957
Nuclear contribution   :     -0.01501       0.02495       0.02751
                        -----------------------------------------
Total Dipole Moment    :      0.00291      -0.00140      -0.00206
                        -----------------------------------------
Magnitude (a.u.)       :      0.00383
Magnitude (Debye)      :      0.00974



--------------------
Rotational spectrum 
--------------------
 
Rotational constants in cm-1:     0.001825     0.001029     0.001029 
Rotational constants in MHz :    54.712874    30.842859    30.839811 

 Dipole components along the rotational axes: 
x,y,z [a.u.] :    -0.003005    -0.001686    -0.001673 
x,y,z [Debye]:    -0.007639    -0.004285    -0.004253 

 

Timings for individual modules:

Sum of individual times         ...     2505.564 sec (=  41.759 min)
GTO integral calculation        ...        5.800 sec (=   0.097 min)   0.2 %
SCF iterations                  ...        2.605 sec (=   0.043 min)   0.1 %
CASSCF iterations               ...     2497.159 sec (=  41.619 min)  99.7 %
                             ****ORCA TERMINATED NORMALLY****
TOTAL RUN TIME: 0 days 0 hours 41 minutes 45 seconds 998 msec
