
                                 *****************
                                 * O   R   C   A *
                                 *****************

                                            #,                                       
                                            ###                                      
                                            ####                                     
                                            #####                                    
                                            ######                                   
                                           ########,                                 
                                     ,,################,,,,,                         
                               ,,#################################,,                 
                          ,,##########################################,,             
                       ,#########################################, ''#####,          
                    ,#############################################,,   '####,        
                  ,##################################################,,,,####,       
                ,###########''''           ''''###############################       
              ,#####''   ,,,,##########,,,,          '''####'''          '####       
            ,##' ,,,,###########################,,,                        '##       
           ' ,,###''''                  '''############,,,                           
         ,,##''                                '''############,,,,        ,,,,,,###''
      ,#''                                            '''#######################'''  
     '                                                          ''''####''''         
             ,#######,   #######,   ,#######,      ##                                
            ,#'     '#,  ##    ##  ,#'     '#,    #''#        ######   ,####,        
            ##       ##  ##   ,#'  ##            #'  '#       #        #'  '#        
            ##       ##  #######   ##           ,######,      #####,   #    #        
            '#,     ,#'  ##    ##  '#,     ,#' ,#      #,         ##   #,  ,#        
             '#######'   ##     ##  '#######'  #'      '#     #####' # '####'        



                  #######################################################
                  #                        -***-                        #
                  #          Department of theory and spectroscopy      #
                  #    Directorship and core code : Frank Neese         #
                  #        Max Planck Institute fuer Kohlenforschung    #
                  #                Kaiser Wilhelm Platz 1               #
                  #                 D-45470 Muelheim/Ruhr               #
                  #                      Germany                        #
                  #                                                     #
                  #                  All rights reserved                #
                  #                        -***-                        #
                  #######################################################


                         Program Version 5.0.3 -  RELEASE  -


 With contributions from (in alphabetic order):
   Daniel Aravena         : Magnetic Suceptibility
   Michael Atanasov       : Ab Initio Ligand Field Theory (pilot matlab implementation)
   Alexander A. Auer      : GIAO ZORA, VPT2 properties, NMR spectrum
   Ute Becker             : Parallelization
   Giovanni Bistoni       : ED, misc. LED, open-shell LED, HFLD
   Martin Brehm           : Molecular dynamics
   Dmytro Bykov           : SCF Hessian
   Vijay G. Chilkuri      : MRCI spin determinant printing, contributions to CSF-ICE
   Dipayan Datta          : RHF DLPNO-CCSD density
   Achintya Kumar Dutta   : EOM-CC, STEOM-CC
   Dmitry Ganyushin       : Spin-Orbit,Spin-Spin,Magnetic field MRCI
   Miquel Garcia          : C-PCM and meta-GGA Hessian, CC/C-PCM, Gaussian charge scheme
   Yang Guo               : DLPNO-NEVPT2, F12-NEVPT2, CIM, IAO-localization
   Andreas Hansen         : Spin unrestricted coupled pair/coupled cluster methods
   Benjamin Helmich-Paris : MC-RPA, TRAH-SCF, COSX integrals
   Lee Huntington         : MR-EOM, pCC
   Robert Izsak           : Overlap fitted RIJCOSX, COSX-SCS-MP3, EOM
   Marcus Kettner         : VPT2
   Christian Kollmar      : KDIIS, OOCD, Brueckner-CCSD(T), CCSD density, CASPT2, CASPT2-K
   Simone Kossmann        : Meta GGA functionals, TD-DFT gradient, OOMP2, MP2 Hessian
   Martin Krupicka        : Initial AUTO-CI
   Lucas Lang             : DCDCAS
   Marvin Lechner         : AUTO-CI (C++ implementation), FIC-MRCC
   Dagmar Lenk            : GEPOL surface, SMD
   Dimitrios Liakos       : Extrapolation schemes; Compound Job, initial MDCI parallelization
   Dimitrios Manganas     : Further ROCIS development; embedding schemes
   Dimitrios Pantazis     : SARC Basis sets
   Anastasios Papadopoulos: AUTO-CI, single reference methods and gradients
   Taras Petrenko         : DFT Hessian,TD-DFT gradient, ASA, ECA, R-Raman, ABS, FL, XAS/XES, NRVS
   Peter Pinski           : DLPNO-MP2, DLPNO-MP2 Gradient
   Christoph Reimann      : Effective Core Potentials
   Marius Retegan         : Local ZFS, SOC
   Christoph Riplinger    : Optimizer, TS searches, QM/MM, DLPNO-CCSD(T), (RO)-DLPNO pert. Triples
   Tobias Risthaus        : Range-separated hybrids, TD-DFT gradient, RPA, STAB
   Michael Roemelt        : Original ROCIS implementation
   Masaaki Saitow         : Open-shell DLPNO-CCSD energy and density
   Barbara Sandhoefer     : DKH picture change effects
   Avijit Sen             : IP-ROCIS
   Kantharuban Sivalingam : CASSCF convergence, NEVPT2, FIC-MRCI
   Bernardo de Souza      : ESD, SOC TD-DFT
   Georgi Stoychev        : AutoAux, RI-MP2 NMR, DLPNO-MP2 response
   Willem Van den Heuvel  : Paramagnetic NMR
   Boris Wezisla          : Elementary symmetry handling
   Frank Wennmohs         : Technical directorship


 We gratefully acknowledge several colleagues who have allowed us to
 interface, adapt or use parts of their codes:
   Stefan Grimme, W. Hujo, H. Kruse, P. Pracht,  : VdW corrections, initial TS optimization,
                  C. Bannwarth, S. Ehlert          DFT functionals, gCP, sTDA/sTD-DF
   Ed Valeev, F. Pavosevic, A. Kumar             : LibInt (2-el integral package), F12 methods
   Garnet Chan, S. Sharma, J. Yang, R. Olivares  : DMRG
   Ulf Ekstrom                                   : XCFun DFT Library
   Mihaly Kallay                                 : mrcc  (arbitrary order and MRCC methods)
   Jiri Pittner, Ondrej Demel                    : Mk-CCSD
   Frank Weinhold                                : gennbo (NPA and NBO analysis)
   Christopher J. Cramer and Donald G. Truhlar   : smd solvation model
   Lars Goerigk                                  : TD-DFT with DH, B97 family of functionals
   V. Asgeirsson, H. Jonsson                     : NEB implementation
   FAccTs GmbH                                   : IRC, NEB, NEB-TS, DLPNO-Multilevel, CI-OPT
                                                   MM, QMMM, 2- and 3-layer-ONIOM, Crystal-QMMM,
                                                   LR-CPCM, SF, NACMEs, symmetry and pop. for TD-DFT,
                                                   nearIR, NL-DFT gradient (VV10), updates on ESD,
                                                   ML-optimized integration grids
   S Lehtola, MJT Oliveira, MAL Marques          : LibXC Library
   Liviu Ungur et al                             : ANISO software


 Your calculation uses the libint2 library for the computation of 2-el integrals
 For citations please refer to: http://libint.valeyev.net

 Your ORCA version has been built with support for libXC version: 5.1.0
 For citations please refer to: https://tddft.org/programs/libxc/

 This ORCA versions uses:
   CBLAS   interface :  Fast vector & matrix operations
   LAPACKE interface :  Fast linear algebra routines
   SCALAPACK package :  Parallel linear algebra routines
   Shared memory     :  Shared parallel matrices
   BLAS/LAPACK       :  OpenBLAS 0.3.15  USE64BITINT DYNAMIC_ARCH NO_AFFINITY Haswell SINGLE_THREADED
        Core in use  :  Haswell
   Copyright (c) 2011-2014, The OpenBLAS Project




***************************************
The coordinates will be read from file: pbe.xyz
***************************************


================================================================================

cite the ECPs for Au [Def2-ECP] as follows:
Ce-Yb(ecp-28): M. Dolg, H. Stoll, H.Preuss, J. Chem. Phys., 1989, 90, 1730-1734.
Y-Cd(ecp-28), Hf-Hg(ecp-46): D. Andrae,U. Haeussermann, M. Dolg, H. Stoll, H. Preuss, Theor. Chim. Acta, 1990, 77, 123-141.
In-Sb(ecp-28), Tl-Bi(ecp-46): B. Metz, H. Stoll, M. Dolg, J. Chem. Phys., 2000, 113, 2563-2569.
Te-Xe(ecp-28), Po-Rn(ecp-46): K. A. Peterson, D. Figgen, E. Goll, H. Stoll, M. Dolg, J. Chem. Phys., 2003, 119, 11113-11123.
Rb(ecp-28), Cs(ecp-46): T. Leininger, A. Nicklass, W. Kuechle, H. Stoll, M. Dolg, A. Bergner, Chem. Phys. Lett., 1996, 255, 274-280.
Sr(ecp-28), Ba(ecp-46): M. Kaupp, P. V. Schleyer, H. Stoll and H. Preuss, J. Chem. Phys., 1991, 94, 1360-1366.
La(ecp-46): M. Dolg, H. Stoll, A. Savin, H. Preuss, Theor. Chim. Acta, 1989, 75, 173-194.
Lu(ecp-28): X. Cao, M. Dolg, J. Chem. Phys., 2001, 115, 7348-7355.

ECP parameters for Au [Def2-ECP] have been obtained from:
TURBOMOLE (7.0.2)

----- Orbital basis set information -----
Your calculation utilizes the basis: def2-TZVP
   F. Weigend and R. Ahlrichs, Phys. Chem. Chem. Phys. 7, 3297 (2005).

----- AuxJ basis set information -----
Your calculation utilizes the auxiliary basis: def2/J
   F. Weigend, Phys. Chem. Chem. Phys. 8, 1057 (2006).

----- AuxC basis set information -----
Your calculation utilizes the auxiliary basis: def2-TZVP/C
  H-La, Hf-Rn : A. Hellweg, C. Hattig, S. Hofener and W. Klopper, Theor. Chem. Acc. 117, 587 (2007).
        Ce-Lu : J. Chmela and M. E. Harding, Mol. Phys. (2018).

================================================================================
                                        WARNINGS
                       Please study these warnings very carefully!
================================================================================


INFO   : the flag for use of the SHARK integral package has been found!

================================================================================
                                       INPUT FILE
================================================================================
NAME = casscf.inp
|  1> !CASSCF def2-TZVP def2-TZVP/C
|  2> !MOREAD RIJCOSX
|  3> %maxcore 6000
|  4> %moinp "pbe.qro"
|  5> %pal nprocs 2 end 
|  6> 
|  7> %casscf
|  8>  mult 5,3
|  9>  bweight 1,1
| 10>  nroots 5,45
| 11>  nel 6
| 12>  norb 5
| 13> end
| 14> 
| 15> 
| 16> *xyzfile 0 5 pbe.xyz
| 17> 
| 18> 
| 19>                          ****END OF INPUT****
================================================================================

                       ****************************
                       * Single Point Calculation *
                       ****************************

---------------------------------
CARTESIAN COORDINATES (ANGSTROEM)
---------------------------------
  Au     5.328275    9.567976    7.323774
  Au     7.575423    9.303226    5.417949
  Au     4.960829    7.143365    8.353148
  Au     7.025797   10.230007    9.396678
  Au     7.242756   11.630786    6.996804
  Au     6.867947    7.722371   10.467255
  Au     8.770025    5.000649    7.557753
  Au    10.176458    7.346608    7.630232
  Au     9.348319    8.761463    9.849047
  Au     8.300031    6.746013    5.494392
  Au     9.448486    9.961889    7.335872
  Au     6.685174    5.245023    9.316887
  Cr     7.511962    7.784978    7.836740

----------------------------
CARTESIAN COORDINATES (A.U.)
----------------------------
  NO LB      ZA    FRAG     MASS         X           Y           Z
   0 Au   19.0000*   0   196.966   10.068980   18.080854   13.839927
   1 Au   19.0000*   0   196.966   14.315474   17.580550   10.238441
   2 Au   19.0000*   0   196.966    9.374609   13.499004   15.785162
   3 Au   19.0000*   0   196.966   13.276833   19.331911   17.757148
   4 Au   19.0000*   0   196.966   13.686825   21.979000   13.222043
   5 Au   19.0000*   0   196.966   12.978540   14.593166   19.780245
   6 Au   19.0000*   0   196.966   16.572945    9.449856   14.282083
   7 Au   19.0000*   0   196.966   19.230719   13.883076   14.419049
   8 Au   19.0000*   0   196.966   17.665763   16.556766   18.612001
   9 Au   19.0000*   0   196.966   15.684786   12.748117   10.382896
  10 Au   19.0000*   0   196.966   17.855051   18.825241   13.862788
  11 Au   19.0000*   0   196.966   12.633148    9.911657   17.606365
  12 Cr   24.0000    0    52.000   14.195552   14.711477   14.809292
* core charge reduced due to ECP

--------------------------------
INTERNAL COORDINATES (ANGSTROEM)
--------------------------------
 Au     0   0   0     0.000000000000     0.00000000     0.00000000
 Au     1   0   0     2.958366491041     0.00000000     0.00000000
 Au     1   2   0     2.659579453926   105.82492017     0.00000000
 Au     1   2   3     2.759854993406    92.18493762    91.39204822
 Au     4   1   2     2.787229607275    61.42720712    51.14033240
 Au     4   1   2     2.731169969168    92.21341045   257.69605243
 Au     6   4   1     4.414846725855   106.42780015    66.06825040
 Au     7   6   4     2.736207679472    71.06049402    38.01890604
 Au     8   7   6     2.758762374598   107.86165638    13.33614764
 Au     2   1   3     2.658992241067   105.93483699     0.45801500
 Au     8   7   6     2.730620041635   132.94321370   306.63333666
 Au     6   4   1     2.737517727015   132.06954299    36.06042470
 Cr     3   1   2     2.680788063109    64.89824895    35.43654639

---------------------------
INTERNAL COORDINATES (A.U.)
---------------------------
 Au     0   0   0     0.000000000000     0.00000000     0.00000000
 Au     1   0   0     5.590502471837     0.00000000     0.00000000
 Au     1   2   0     5.025876799324   105.82492017     0.00000000
 Au     1   2   3     5.215370106873    92.18493762    91.39204822
 Au     4   1   2     5.267100630107    61.42720712    51.14033240
 Au     4   1   2     5.161163266918    92.21341045   257.69605243
 Au     6   4   1     8.342851235104   106.42780015    66.06825040
 Au     7   6   4     5.170683159734    71.06049402    38.01890604
 Au     8   7   6     5.213305356556   107.86165638    13.33614764
 Au     2   1   3     5.024767127838   105.93483699     0.45801500
 Au     8   7   6     5.160124054486   132.94321370   306.63333666
 Au     6   4   1     5.173158790814   132.06954299    36.06042470
 Cr     3   1   2     5.065955262361    64.89824895    35.43654639

---------------------
BASIS SET INFORMATION
---------------------
There are 2 groups of distinct atoms

 Group   1 Type Au  : 8s7p6d1f contracted to 6s4p3d1f pattern {311111/4111/411/1}
 Group   2 Type Cr  : 17s11p7d1f contracted to 6s4p4d1f pattern {842111/6311/4111/1}

Atom   0Au   basis set group =>   1
Atom   1Au   basis set group =>   1
Atom   2Au   basis set group =>   1
Atom   3Au   basis set group =>   1
Atom   4Au   basis set group =>   1
Atom   5Au   basis set group =>   1
Atom   6Au   basis set group =>   1
Atom   7Au   basis set group =>   1
Atom   8Au   basis set group =>   1
Atom   9Au   basis set group =>   1
Atom  10Au   basis set group =>   1
Atom  11Au   basis set group =>   1
Atom  12Cr   basis set group =>   2
---------------------------------
AUXILIARY/J BASIS SET INFORMATION
---------------------------------
There are 2 groups of distinct atoms

 Group   1 Type Au  : 11s5p5d3f3g contracted to 8s5p5d2f3g pattern {41111111/11111/11111/21/111}
 Group   2 Type Cr  : 19s5p5d3f3g contracted to 8s5p5d2f3g pattern {121111111/11111/11111/21/111}

Atom   0Au   basis set group =>   1
Atom   1Au   basis set group =>   1
Atom   2Au   basis set group =>   1
Atom   3Au   basis set group =>   1
Atom   4Au   basis set group =>   1
Atom   5Au   basis set group =>   1
Atom   6Au   basis set group =>   1
Atom   7Au   basis set group =>   1
Atom   8Au   basis set group =>   1
Atom   9Au   basis set group =>   1
Atom  10Au   basis set group =>   1
Atom  11Au   basis set group =>   1
Atom  12Cr   basis set group =>   2
---------------------------------
AUXILIARY/C BASIS SET INFORMATION
---------------------------------
There are 2 groups of distinct atoms

 Group   1 Type Au  : 8s8p7d5f3g2h contracted to 8s8p7d5f3g2h pattern {11111111/11111111/1111111/11111/111/11}
 Group   2 Type Cr  : 11s9p8d6f5g2h contracted to 9s8p8d6f5g2h pattern {311111111/21111111/11111111/111111/11111/11}

Atom   0Au   basis set group =>   1
Atom   1Au   basis set group =>   1
Atom   2Au   basis set group =>   1
Atom   3Au   basis set group =>   1
Atom   4Au   basis set group =>   1
Atom   5Au   basis set group =>   1
Atom   6Au   basis set group =>   1
Atom   7Au   basis set group =>   1
Atom   8Au   basis set group =>   1
Atom   9Au   basis set group =>   1
Atom  10Au   basis set group =>   1
Atom  11Au   basis set group =>   1
Atom  12Cr   basis set group =>   2
-------------------------
ECP PARAMETER INFORMATION
-------------------------

 Group 1, Type Au ECP Def2-ECP (replacing 60 core electrons, lmax=3)

Atom   0Au   ECP group =>   1
Atom   1Au   ECP group =>   1
Atom   2Au   ECP group =>   1
Atom   3Au   ECP group =>   1
Atom   4Au   ECP group =>   1
Atom   5Au   ECP group =>   1
Atom   6Au   ECP group =>   1
Atom   7Au   ECP group =>   1
Atom   8Au   ECP group =>   1
Atom   9Au   ECP group =>   1
Atom  10Au   ECP group =>   1
Atom  11Au   ECP group =>   1



           ************************************************************
           *        Program running with 2 parallel MPI-processes     *
           *              working on a common directory               *
           ************************************************************
------------------------------------------------------------------------------
                           ORCA GTO INTEGRAL CALCULATION
                           -- RI-GTO INTEGRALS CHOSEN --
------------------------------------------------------------------------------
------------------------------------------------------------------------------
                   ___                                                        
                  /   \      - P O W E R E D   B Y -                         
                 /     \                                                     
                 |  |  |   _    _      __       _____    __    __             
                 |  |  |  | |  | |    /  \     |  _  \  |  |  /  |          
                  \  \/   | |  | |   /    \    | | | |  |  | /  /          
                 / \  \   | |__| |  /  /\  \   | |_| |  |  |/  /          
                |  |  |   |  __  | /  /__\  \  |    /   |      \           
                |  |  |   | |  | | |   __   |  |    \   |  |\   \          
                \     /   | |  | | |  |  |  |  | |\  \  |  | \   \       
                 \___/    |_|  |_| |__|  |__|  |_| \__\ |__|  \__/        
                                                                              
                      - O R C A' S   B I G   F R I E N D -                    
                                      &                                       
                       - I N T E G R A L  F E E D E R -                       
                                                                              
 v1 FN, 2020, v2 2021                                                         
------------------------------------------------------------------------------


Reading SHARK input file casscf.SHARKINP.tmp ... ok
----------------------
SHARK INTEGRAL PACKAGE
----------------------

Number of atoms                             ...     13
Number of basis functions                   ...    525
Number of shells                            ...    183
Maximum angular momentum                    ...      3
Integral batch strategy                     ... SHARK/LIBINT Hybrid
RI-J (if used) integral strategy            ... SPLIT-RIJ (Revised 2003 algorithm where possible)
Printlevel                                  ...      1
Contraction scheme used                     ... SEGMENTED contraction
Coulomb Range Separation                    ... NOT USED
Exchange Range Separation                   ... NOT USED
Finite Nucleus Model                        ... NOT USED
Auxiliary Coulomb fitting basis             ... AVAILABLE
   # of basis functions in Aux-J            ...   1157
   # of shells in Aux-J                     ...    299
   Maximum angular momentum in Aux-J        ...      4
Auxiliary J/K fitting basis                 ... NOT available
Auxiliary Correlation fitting basis         ... AVAILABLE
   # of basis functions in Aux-C            ...   1994
   # of shells in Aux-C                     ...    434
   Maximum angular momentum in Aux-C        ...      5
Auxiliary 'external' fitting basis          ... NOT available
Integral threshold                          ...     1.000000e-10
Primitive cut-off                           ...     1.000000e-11
Primitive pair pre-selection threshold      ...     1.000000e-11

Calculating pre-screening integrals         ... done (  0.2 sec) Dimension = 183
Organizing shell pair data                  ... done (  0.2 sec)
Shell pair information
Total number of shell pairs                 ...     16836
Shell pairs after pre-screening             ...     13631
Total number of primitive shell pairs       ...     45389
Primitive shell pairs kept                  ...     26735
          la=0 lb=0:   2135 shell pairs
          la=1 lb=0:   3094 shell pairs
          la=1 lb=1:   1177 shell pairs
          la=2 lb=0:   2700 shell pairs
          la=2 lb=1:   1920 shell pairs
          la=2 lb=2:    792 shell pairs
          la=3 lb=0:    714 shell pairs
          la=3 lb=1:    552 shell pairs
          la=3 lb=2:    472 shell pairs
          la=3 lb=3:     75 shell pairs

Calculating one electron integrals          ... done (  0.0 sec)
Calculating ECP integrals                   ... done (  5.3 sec)
Calculating RI/J V-Matrix + Cholesky decomp.... done (  0.0 sec)
Calculating RI/C V-Matrix + Cholesky decomp.... done (  0.2 sec)
Calculating Nuclear repulsion               ... done (  0.0 sec) ENN=   4271.081453445378 Eh

SHARK setup successfully completed in   6.2 seconds

Maximum memory used throughout the entire GTOINT-calculation: 69.4 MB


           ************************************************************
           *        Program running with 2 parallel MPI-processes     *
           *              working on a common directory               *
           ************************************************************
-------------------------------------------------------------------------------
                                 ORCA SCF
-------------------------------------------------------------------------------

------------
SCF SETTINGS
------------
Hamiltonian:
 Ab initio Hamiltonian  Method          .... Hartree-Fock(GTOs)
 RI-approximation to the Coulomb term is turned on
   Number of AuxJ basis functions       .... 1157
   RIJ-COSX (HFX calculated with COS-X)).... on


General Settings:
 Integral files         IntName         .... casscf
 Hartree-Fock type      HFTyp           .... CASSCF
 Total Charge           Charge          ....    0
 Multiplicity           Mult            ....    5
 Number of Electrons    NEL             ....  252
 Basis Dimension        Dim             ....  525
 Nuclear Repulsion      ENuc            ....   4271.0814534454 Eh


Diagonalization of the overlap matrix:
Smallest eigenvalue                        ... 2.281e-04
Time for diagonalization                   ...    0.027 sec
Threshold for overlap eigenvalues          ... 1.000e-08
Number of eigenvalues below threshold      ... 0
Time for construction of square roots      ...    0.014 sec
Total time needed                          ...    0.042 sec

---------------------
INITIAL GUESS: MOREAD
---------------------
Guess MOs are being read from file: pbe.qro
Input Geometry matches current geometry (good)
Input basis set matches current basis set (good)
MOs were renormalized
Gram-Schmidt orthogonalization of all MOs with pivot on actives
                      ------------------
                      INITIAL GUESS DONE (   0.7 sec)
                      ------------------
--------------------
COSX GRID GENERATION
--------------------

GRIDX 1
-------
General Integration Accuracy     IntAcc      ... 3.816
Radial Grid Type                 RadialGrid  ... OptM3 with GC (2021)
Angular Grid (max. ang.)         AngularGrid ... 1 (Lebedev-50)
Angular grid pruning method      GridPruning ... 4 (adaptive)
Weight generation scheme         WeightScheme... Becke
Basis function cutoff            BFCut       ... 1.0000e-10
Integration weight cutoff        WCut        ... 1.0000e-14
Angular grids for H and He will be reduced by one unit
Partially contracted basis set               ... on
Rotationally invariant grid construction     ... off

Total number of grid points                  ...    15201
Total number of batches                      ...      245
Average number of points per batch           ...       62
Average number of grid points per atom       ...     1169
UseSFitting                                  ... on

GRIDX 2
-------
General Integration Accuracy     IntAcc      ... 4.020
Radial Grid Type                 RadialGrid  ... OptM3 with GC (2021)
Angular Grid (max. ang.)         AngularGrid ... 2 (Lebedev-110)
Angular grid pruning method      GridPruning ... 4 (adaptive)
Weight generation scheme         WeightScheme... Becke
Basis function cutoff            BFCut       ... 1.0000e-10
Integration weight cutoff        WCut        ... 1.0000e-14
Angular grids for H and He will be reduced by one unit
Partially contracted basis set               ... on
Rotationally invariant grid construction     ... off

Total number of grid points                  ...    46118
Total number of batches                      ...      728
Average number of points per batch           ...       63
Average number of grid points per atom       ...     3548
UseSFitting                                  ... on

GRIDX 3
-------
General Integration Accuracy     IntAcc      ... 4.338
Radial Grid Type                 RadialGrid  ... OptM3 with GC (2021)
Angular Grid (max. ang.)         AngularGrid ... 3 (Lebedev-194)
Angular grid pruning method      GridPruning ... 4 (adaptive)
Weight generation scheme         WeightScheme... Becke
Basis function cutoff            BFCut       ... 1.0000e-10
Integration weight cutoff        WCut        ... 1.0000e-14
Angular grids for H and He will be reduced by one unit
Partially contracted basis set               ... on
Rotationally invariant grid construction     ... off

Total number of grid points                  ...    84363
Total number of batches                      ...     1325
Average number of points per batch           ...       63
Average number of grid points per atom       ...     6489
UseSFitting                                  ... on

Time for X-Grid setup             =    1.430 sec



 ... the calculation is a CASSCF calculation -I'm leaving here GOOD LUCK!!!



           ************************************************************
           *        Program running with 2 parallel MPI-processes     *
           *              working on a common directory               *
           ************************************************************
-------------------------------------------------------------------------------
                              ORCA-CASSCF
-------------------------------------------------------------------------------

Setting up the integral package       ... done
Setting up the integral package (RI)  ... done
Building the CAS space                ... done (5 configurations for Mult=5)
Building the CAS space                ... done (35 configurations for Mult=3)

SYSTEM-SPECIFIC SETTINGS:
Number of active electrons          ...    6
Number of active orbitals           ...    5
Total number of electrons           ...  252
Total number of orbitals            ...  525
Total number aux. functions         ... 1994

Determined orbital ranges:
   Internal       0 -  122 ( 123 orbitals)
   Active       123 -  127 (   5 orbitals)
   External     128 -  524 ( 397 orbitals)
Number of rotation parameters      ...  51431

CI-STEP:
CI strategy                         ... General CI
Number of multiplicity blocks       ...    2
BLOCK  1 WEIGHT=   0.5000
  Multiplicity                      ...    5
  #(Configurations)                 ...    5
  #(CSFs)                           ...    5
  #(Roots)                          ...    5
    ROOT=0 WEIGHT=    0.100000
    ROOT=1 WEIGHT=    0.100000
    ROOT=2 WEIGHT=    0.100000
    ROOT=3 WEIGHT=    0.100000
    ROOT=4 WEIGHT=    0.100000

BLOCK  2 WEIGHT=   0.5000
  Multiplicity                      ...    3
  #(Configurations)                 ...   35
  #(CSFs)                           ...   45
  #(Roots)                          ...   45
    ROOT=0 WEIGHT=    0.011111
    ROOT=1 WEIGHT=    0.011111
    ROOT=2 WEIGHT=    0.011111
    ROOT=3 WEIGHT=    0.011111
    ROOT=4 WEIGHT=    0.011111
    ROOT=5 WEIGHT=    0.011111
    ROOT=6 WEIGHT=    0.011111
    ROOT=7 WEIGHT=    0.011111
    ROOT=8 WEIGHT=    0.011111
    ROOT=9 WEIGHT=    0.011111
    ROOT=10 WEIGHT=    0.011111
    ROOT=11 WEIGHT=    0.011111
    ROOT=12 WEIGHT=    0.011111
    ROOT=13 WEIGHT=    0.011111
    ROOT=14 WEIGHT=    0.011111
    ROOT=15 WEIGHT=    0.011111
    ROOT=16 WEIGHT=    0.011111
    ROOT=17 WEIGHT=    0.011111
    ROOT=18 WEIGHT=    0.011111
    ROOT=19 WEIGHT=    0.011111
    ROOT=20 WEIGHT=    0.011111
    ROOT=21 WEIGHT=    0.011111
    ROOT=22 WEIGHT=    0.011111
    ROOT=23 WEIGHT=    0.011111
    ROOT=24 WEIGHT=    0.011111
    ROOT=25 WEIGHT=    0.011111
    ROOT=26 WEIGHT=    0.011111
    ROOT=27 WEIGHT=    0.011111
    ROOT=28 WEIGHT=    0.011111
    ROOT=29 WEIGHT=    0.011111
    ROOT=30 WEIGHT=    0.011111
    ROOT=31 WEIGHT=    0.011111
    ROOT=32 WEIGHT=    0.011111
    ROOT=33 WEIGHT=    0.011111
    ROOT=34 WEIGHT=    0.011111
    ROOT=35 WEIGHT=    0.011111
    ROOT=36 WEIGHT=    0.011111
    ROOT=37 WEIGHT=    0.011111
    ROOT=38 WEIGHT=    0.011111
    ROOT=39 WEIGHT=    0.011111
    ROOT=40 WEIGHT=    0.011111
    ROOT=41 WEIGHT=    0.011111
    ROOT=42 WEIGHT=    0.011111
    ROOT=43 WEIGHT=    0.011111
    ROOT=44 WEIGHT=    0.011111

  PrintLevel                        ...    1
  N(GuessMat)                       ...       512
  MaxDim(CI)                        ...        10
  MaxIter(CI)                       ...        64
  Energy Tolerance CI               ...  1.00e-08
  Residual Tolerance CI             ...  1.00e-08
  Shift(CI)                         ...  1.00e-04

INTEGRAL-TRANSFORMATION-STEP:
  Algorithm                         ... RI-MO

ORBITAL-IMPROVEMENT-STEP:
  Algorithm                         ... SuperCI(PT)
  Default Parametrization           ... CAYLEY
  Act-Act rotations                 ... depends on algorithm used

  Note: SuperCI(PT) will ignore FreezeIE, FreezeAct and FreezeGrad. In general Default settings are encouraged.
        In conjunction with ShiftUp, ShiftDn or GradScaling the performance of SuperCI(PT) is less optimal.  

  MaxRot                            ... 2.00e-01 
  Max. no of vectors (DIIS)         ... 15
  DThresh (cut-off) metric          ... 1.00e-06
  Switch step at gradient           ...  3.00e-02 
  Switch step at iteration          ...        50   
  Switch step to                    ... SuperCI(PT)    

SCF-SETTINGS:
  Incremental                       ... off
  RIJCOSX approximation             ... on
  UseFinalGrid                      ... on
  RI-JK approximation               ... off
  AO integral handling              ... DIRECT
  Integral Neglect Thresh           ...  1.00e-10
  Primitive cutoff TCut             ...  1.00e-11
  Energy convergence tolerance      ...  1.00e-07
  Orbital gradient convergence      ...  1.00e-03
  Max. number of iterations         ...        75  


FINAL ORBITALS:
  Active   Orbitals                 ... natural 
  Internal Orbitals                 ... canonical 
  External Orbitals                 ... canonical 

------------------
CAS-SCF ITERATIONS
------------------


MACRO-ITERATION   1: 
   --- Inactive Energy E0 = -2653.11093437 Eh
CI-ITERATION   0: 
 -2660.647890801   0.000000000000 (    0.00)
 -2660.425290886   0.000000000000
 -2660.396146823   0.000000000000
 -2660.364302347   0.000000000000
 -2660.362786267   0.000000000000
   CI-PROBLEM SOLVED
   DENSITIES MADE
CI-ITERATION   0: 
 -2660.581343063   0.000000000000 (    0.00)
 -2660.579522563   0.000000000000
 -2660.578342345   0.000000000000
 -2660.577872405   0.000000000000
 -2660.571100059   0.000000000000
 -2660.570320324   0.000000000000
 -2660.567536624   0.000000000000
 -2660.559871925   0.000000000000
 -2660.555740314   0.000000000000
 -2660.547290015   0.000000000000
 -2660.546396373   0.000000000000
 -2660.523394803   0.000000000000
 -2660.517833869   0.000000000000
 -2660.499019293   0.000000000000
 -2660.497727292   0.000000000000
 -2660.408086588   0.000000000000
 -2660.390279177   0.000000000000
 -2660.389316836   0.000000000000
 -2660.378773178   0.000000000000
 -2660.365438590   0.000000000000
 -2660.364468461   0.000000000000
 -2660.358819147   0.000000000000
 -2660.347942139   0.000000000000
 -2660.347703308   0.000000000000
 -2660.346148785   0.000000000000
 -2660.335335323   0.000000000000
 -2660.331202675   0.000000000000
 -2660.322891575   0.000000000000
 -2660.316860413   0.000000000000
 -2660.316396372   0.000000000000
 -2660.300661074   0.000000000000
 -2660.299946221   0.000000000000
 -2660.295682946   0.000000000000
 -2660.293693969   0.000000000000
 -2660.292272595   0.000000000000
 -2660.239872669   0.000000000000
 -2660.225367168   0.000000000000
 -2660.221250112   0.000000000000
 -2660.195028922   0.000000000000
 -2659.951795928   0.000000000000
 -2659.892741759   0.000000000000
 -2659.884858115   0.000000000000
 -2659.835418270   0.000000000000
 -2659.833224270   0.000000000000
 -2659.782427629   0.000000000000
   CI-PROBLEM SOLVED
   DENSITIES MADE

                 <<<<<<<<<<<<<<<<<<INITIAL CI STATE CHECK>>>>>>>>>>>>>>>>>>

BLOCK  1 MULT= 5 NROOTS= 5 
ROOT   0:  E=   -2660.6478908010 Eh
      0.99991 [     4]: 21111
ROOT   1:  E=   -2660.4252908862 Eh  6.057 eV  48855.0 cm**-1
      0.88406 [     3]: 12111
      0.08163 [     2]: 11211
      0.03410 [     1]: 11121
ROOT   2:  E=   -2660.3961468227 Eh  6.850 eV  55251.4 cm**-1
      0.86343 [     2]: 11211
      0.08591 [     1]: 11121
      0.05059 [     3]: 12111
ROOT   3:  E=   -2660.3643023473 Eh  7.717 eV  62240.5 cm**-1
      0.87751 [     1]: 11121
      0.06534 [     3]: 12111
      0.05435 [     2]: 11211
      0.00280 [     0]: 11112
ROOT   4:  E=   -2660.3627862665 Eh  7.758 eV  62573.2 cm**-1
      0.99684 [     0]: 11112

BLOCK  2 MULT= 3 NROOTS=45 
ROOT   0:  E=   -2660.5813430631 Eh
      0.45099 [    33]: 22101
      0.27259 [    28]: 21111
      0.12209 [    32]: 22011
      0.08504 [    23]: 20121
      0.05693 [    24]: 20211
      0.00929 [    30]: 21201
ROOT   1:  E=   -2660.5795225630 Eh  0.050 eV    399.6 cm**-1
      0.39374 [    30]: 21201
      0.17578 [    28]: 21111
      0.11738 [    33]: 22101
      0.11210 [    26]: 21021
      0.10012 [    32]: 22011
      0.07285 [    24]: 20211
      0.02699 [    23]: 20121
ROOT   2:  E=   -2660.5783423454 Eh  0.082 eV    658.6 cm**-1
      0.35908 [    29]: 21120
      0.26675 [    34]: 22110
      0.20788 [    27]: 21102
      0.09452 [    31]: 21210
      0.04285 [    22]: 20112
      0.02092 [    25]: 21012
      0.00440 [    28]: 21111
ROOT   3:  E=   -2660.5778724051 Eh  0.094 eV    761.7 cm**-1
      0.70080 [    28]: 21111
      0.17075 [    30]: 21201
      0.05768 [    26]: 21021
      0.03076 [    32]: 22011
      0.01592 [    24]: 20211
      0.01417 [    33]: 22101
      0.00441 [    23]: 20121
ROOT   4:  E=   -2660.5711000590 Eh  0.279 eV   2248.1 cm**-1
      0.79873 [    28]: 21111
      0.13211 [    32]: 22011
      0.02489 [    30]: 21201
      0.01751 [    23]: 20121
      0.01144 [    26]: 21021
      0.00425 [    24]: 20211
ROOT   5:  E=   -2660.5703203242 Eh  0.300 eV   2419.2 cm**-1
      0.53424 [    34]: 22110
      0.16259 [    27]: 21102
      0.09145 [    31]: 21210
      0.08298 [    22]: 20112
      0.08163 [    25]: 21012
      0.03722 [    29]: 21120
      0.00714 [    28]: 21111
ROOT   6:  E=   -2660.5675366243 Eh  0.376 eV   3030.2 cm**-1
      0.57182 [    31]: 21210
      0.23321 [    27]: 21102
      0.11766 [    25]: 21012
      0.04504 [    29]: 21120
      0.02434 [    34]: 22110
      0.00620 [    22]: 20112
ROOT   7:  E=   -2660.5598719249 Eh  0.584 eV   4712.4 cm**-1
      0.30865 [    28]: 21111
      0.24389 [    32]: 22011
      0.19417 [    24]: 20211
      0.12036 [    33]: 22101
      0.10913 [    30]: 21201
      0.01731 [    26]: 21021
      0.00441 [    23]: 20121
ROOT   8:  E=   -2660.5557403135 Eh  0.697 eV   5619.2 cm**-1
      0.60487 [    28]: 21111
      0.17114 [    33]: 22101
      0.06888 [    30]: 21201
      0.06122 [    32]: 22011
      0.05884 [    26]: 21021
      0.02728 [    24]: 20211
      0.00532 [    23]: 20121
ROOT   9:  E=   -2660.5472900152 Eh  0.927 eV   7473.8 cm**-1
      0.43045 [    29]: 21120
      0.25215 [    27]: 21102
      0.10965 [    22]: 20112
      0.08396 [    25]: 21012
      0.04195 [    26]: 21021
      0.03310 [    23]: 20121
      0.01569 [    30]: 21201
      0.00929 [    34]: 22110
      0.00925 [    24]: 20211
      0.00925 [    28]: 21111
ROOT  10:  E=   -2660.5463963730 Eh  0.951 eV   7669.9 cm**-1
      0.33880 [    26]: 21021
      0.23620 [    23]: 20121
      0.11612 [    30]: 21201
      0.08935 [    24]: 20211
      0.07425 [    28]: 21111
      0.05728 [    29]: 21120
      0.03134 [    27]: 21102
      0.02151 [    33]: 22101
      0.01382 [    22]: 20112
      0.01054 [    32]: 22011
      0.00890 [    25]: 21012
ROOT  11:  E=   -2660.5233948027 Eh  1.577 eV  12718.2 cm**-1
      0.44314 [    25]: 21012
      0.28703 [    22]: 20112
      0.18357 [    31]: 21210
      0.07990 [    34]: 22110
ROOT  12:  E=   -2660.5178338688 Eh  1.728 eV  13938.7 cm**-1
      0.52745 [    24]: 20211
      0.29232 [    32]: 22011
      0.06276 [    26]: 21021
      0.04033 [    23]: 20121
      0.03626 [    28]: 21111
      0.02946 [    30]: 21201
      0.00868 [    33]: 22101
ROOT  13:  E=   -2660.4990192929 Eh  2.240 eV  18068.0 cm**-1
      0.54509 [    23]: 20121
      0.29671 [    26]: 21021
      0.08798 [    33]: 22101
      0.06014 [    30]: 21201
      0.00424 [    28]: 21111
ROOT  14:  E=   -2660.4977272923 Eh  2.275 eV  18351.5 cm**-1
      0.45365 [    22]: 20112
      0.23882 [    25]: 21012
      0.10483 [    27]: 21102
      0.07818 [    34]: 22110
      0.06558 [    29]: 21120
      0.05223 [    31]: 21210
ROOT  15:  E=   -2660.4080865879 Eh  4.715 eV  38025.4 cm**-1
      0.85376 [    18]: 12111
      0.11085 [    13]: 11211
      0.03182 [    11]: 11121
ROOT  16:  E=   -2660.3902791771 Eh  5.199 eV  41933.7 cm**-1
      0.62998 [    20]: 12201
      0.18529 [    18]: 12111
      0.16624 [    13]: 11211
      0.01113 [    16]: 12021
      0.00391 [    21]: 12210
ROOT  17:  E=   -2660.3893168357 Eh  5.225 eV  42144.9 cm**-1
      0.68578 [    21]: 12210
      0.14403 [    19]: 12120
      0.12428 [    14]: 11220
      0.02623 [    15]: 12012
      0.00770 [     7]: 10212
      0.00361 [    20]: 12201
ROOT  18:  E=   -2660.3787731778 Eh  5.512 eV  44459.0 cm**-1
      0.82111 [    13]: 11211
      0.10180 [    11]: 11121
      0.07327 [    18]: 12111
ROOT  19:  E=   -2660.3654385904 Eh  5.875 eV  47385.6 cm**-1
      0.50461 [    17]: 12102
      0.28641 [    19]: 12120
      0.12297 [    12]: 11202
      0.04627 [    21]: 12210
      0.01492 [    15]: 12012
      0.00861 [    14]: 11220
      0.00819 [    10]: 11112
      0.00361 [     7]: 10212
ROOT  20:  E=   -2660.3644684609 Eh  5.901 eV  47598.5 cm**-1
      0.76327 [    18]: 12111
      0.10103 [    16]: 12021
      0.05025 [    11]: 11121
      0.04655 [    13]: 11211
      0.03282 [    20]: 12201
      0.00348 [     8]: 10221
ROOT  21:  E=   -2660.3588191474 Eh  6.055 eV  48838.4 cm**-1
      0.80836 [    18]: 12111
      0.11798 [    13]: 11211
      0.05833 [    20]: 12201
      0.00559 [    11]: 11121
      0.00345 [    16]: 12021
ROOT  22:  E=   -2660.3479421391 Eh  6.351 eV  51225.6 cm**-1
      0.35159 [    19]: 12120
      0.25467 [    12]: 11202
      0.22885 [    14]: 11220
      0.08177 [    17]: 12102
      0.04372 [    10]: 11112
      0.01296 [    11]: 11121
      0.01252 [     6]: 10122
      0.00403 [     7]: 10212
      0.00353 [    15]: 12012
ROOT  23:  E=   -2660.3477033082 Eh  6.358 eV  51278.0 cm**-1
      0.84863 [    11]: 11121
      0.07215 [    18]: 12111
      0.06022 [    13]: 11211
      0.00609 [    19]: 12120
      0.00450 [    12]: 11202
      0.00407 [    14]: 11220
ROOT  24:  E=   -2660.3461487854 Eh  6.400 eV  51619.2 cm**-1
      0.95650 [    10]: 11112
      0.01470 [    19]: 12120
      0.01099 [    14]: 11220
      0.00958 [    12]: 11202
      0.00294 [    17]: 12102
ROOT  25:  E=   -2660.3353353233 Eh  6.694 eV  53992.5 cm**-1
      0.70251 [    13]: 11211
      0.10790 [     8]: 10221
      0.07647 [    18]: 12111
      0.06641 [    20]: 12201
      0.03873 [    11]: 11121
      0.00504 [    16]: 12021
ROOT  26:  E=   -2660.3312026753 Eh  6.807 eV  54899.5 cm**-1
      0.75753 [    13]: 11211
      0.10460 [    20]: 12201
      0.08956 [    16]: 12021
      0.02524 [     8]: 10221
      0.01297 [    18]: 12111
      0.00401 [    11]: 11121
ROOT  27:  E=   -2660.3228915753 Eh  7.033 eV  56723.5 cm**-1
      0.34577 [    12]: 11202
      0.30267 [    17]: 12102
      0.14951 [    10]: 11112
      0.06685 [    19]: 12120
      0.04085 [     7]: 10212
      0.03678 [     6]: 10122
      0.02146 [    21]: 12210
      0.01105 [    14]: 11220
      0.01005 [     9]: 11022
      0.00888 [    15]: 12012
ROOT  28:  E=   -2660.3168604132 Eh  7.197 eV  58047.2 cm**-1
      0.48531 [    15]: 12012
      0.18444 [    14]: 11220
      0.15287 [    10]: 11112
      0.03930 [    17]: 12102
      0.02701 [    19]: 12120
      0.02462 [     9]: 11022
      0.02392 [    16]: 12021
      0.01592 [    21]: 12210
      0.01443 [     7]: 10212
      0.01321 [    11]: 11121
      0.00880 [    13]: 11211
      0.00364 [     6]: 10122
ROOT  29:  E=   -2660.3163963721 Eh  7.210 eV  58149.1 cm**-1
      0.52476 [    16]: 12021
      0.27930 [    11]: 11121
      0.07893 [    13]: 11211
      0.02303 [    20]: 12201
      0.02226 [     8]: 10221
      0.02002 [    18]: 12111
      0.01813 [    15]: 12012
      0.01282 [    14]: 11220
      0.01173 [    10]: 11112
      0.00364 [    17]: 12102
ROOT  30:  E=   -2660.3006610744 Eh  7.638 eV  61602.6 cm**-1
      0.50087 [    10]: 11112
      0.13182 [     7]: 10212
      0.12589 [    15]: 12012
      0.07550 [    12]: 11202
      0.07366 [    11]: 11121
      0.05750 [    14]: 11220
      0.01985 [    21]: 12210
      0.00650 [     9]: 11022
      0.00403 [    17]: 12102
ROOT  31:  E=   -2660.2999462208 Eh  7.657 eV  61759.5 cm**-1
      0.86161 [    11]: 11121
      0.04178 [    10]: 11112
      0.03119 [     8]: 10221
      0.02032 [    16]: 12021
      0.01200 [     7]: 10212
      0.00887 [    15]: 12012
      0.00538 [    13]: 11211
      0.00404 [    20]: 12201
      0.00381 [    12]: 11202
      0.00374 [    18]: 12111
      0.00367 [    14]: 11220
ROOT  32:  E=   -2660.2956829463 Eh  7.773 eV  62695.1 cm**-1
      0.43748 [    10]: 11112
      0.20392 [    14]: 11220
      0.13078 [     9]: 11022
      0.11748 [    12]: 11202
      0.06944 [    21]: 12210
      0.01307 [     7]: 10212
      0.01230 [    17]: 12102
      0.00890 [    19]: 12120
ROOT  33:  E=   -2660.2936939688 Eh  7.827 eV  63131.7 cm**-1
      0.53940 [    11]: 11121
      0.10884 [    10]: 11112
      0.10250 [    16]: 12021
      0.09720 [     8]: 10221
      0.09027 [    18]: 12111
      0.01851 [    15]: 12012
      0.00916 [    19]: 12120
      0.00833 [    21]: 12210
      0.00794 [    20]: 12201
      0.00559 [    14]: 11220
      0.00375 [    13]: 11211
      0.00352 [     7]: 10212
ROOT  34:  E=   -2660.2922725951 Eh  7.866 eV  63443.6 cm**-1
      0.53865 [    10]: 11112
      0.13803 [    15]: 12012
      0.08986 [    11]: 11121
      0.04467 [     7]: 10212
      0.04382 [    19]: 12120
      0.03959 [    21]: 12210
      0.02464 [    14]: 11220
      0.02145 [     8]: 10221
      0.01980 [    16]: 12021
      0.01729 [    18]: 12111
      0.00850 [    17]: 12102
      0.00749 [     6]: 10122
ROOT  35:  E=   -2660.2398726694 Eh  9.292 eV  74944.1 cm**-1
      0.57331 [     7]: 10212
      0.09830 [    15]: 12012
      0.08147 [    21]: 12210
      0.07645 [     9]: 11022
      0.06881 [    14]: 11220
      0.06313 [     6]: 10122
      0.01666 [    10]: 11112
      0.01565 [    19]: 12120
ROOT  36:  E=   -2660.2253671683 Eh  9.687 eV  78127.7 cm**-1
      0.68115 [     8]: 10221
      0.10695 [    13]: 11211
      0.09311 [    16]: 12021
      0.06140 [    20]: 12201
      0.03925 [    11]: 11121
      0.01115 [    18]: 12111
      0.00464 [     9]: 11022
ROOT  37:  E=   -2660.2212501124 Eh  9.799 eV  79031.3 cm**-1
      0.68544 [     9]: 11022
      0.11086 [     7]: 10212
      0.05048 [    12]: 11202
      0.04831 [    15]: 12012
      0.04235 [    14]: 11220
      0.02934 [     6]: 10122
      0.02547 [    10]: 11112
ROOT  38:  E=   -2660.1950289221 Eh 10.512 eV  84786.2 cm**-1
      0.84125 [     6]: 10122
      0.05419 [     9]: 11022
      0.03837 [     7]: 10212
      0.02818 [    17]: 12102
      0.02044 [    19]: 12120
      0.00841 [    12]: 11202
      0.00469 [    14]: 11220
ROOT  39:  E=   -2659.9517959282 Eh 17.131 eV 138169.6 cm**-1
      0.79286 [     5]: 02211
      0.10523 [     2]: 01221
      0.10110 [     4]: 02121
ROOT  40:  E=   -2659.8927417590 Eh 18.738 eV 151130.5 cm**-1
      0.82761 [     3]: 02112
      0.16070 [     1]: 01212
      0.00759 [     0]: 01122
ROOT  41:  E=   -2659.8848581149 Eh 18.952 eV 152860.8 cm**-1
      0.89553 [     4]: 02121
      0.08997 [     5]: 02211
      0.01078 [     2]: 01221
ROOT  42:  E=   -2659.8354182695 Eh 20.298 eV 163711.6 cm**-1
      0.77495 [     1]: 01212
      0.14554 [     3]: 02112
      0.06819 [     2]: 01221
      0.00588 [     5]: 02211
      0.00476 [     0]: 01122
ROOT  43:  E=   -2659.8332242702 Eh 20.357 eV 164193.1 cm**-1
      0.81486 [     2]: 01221
      0.11028 [     5]: 02211
      0.06121 [     1]: 01212
      0.01124 [     3]: 02112
ROOT  44:  E=   -2659.7824276287 Eh 21.740 eV 175341.7 cm**-1
      0.98432 [     0]: 01122
      0.01252 [     3]: 02112

                 <<<<<<<<<<<<<<<<<<INITIAL CI STATE CHECK>>>>>>>>>>>>>>>>>>

   E(CAS)= -2660.387832995 Eh DE=    0.000000e+00
   --- Energy gap subspaces: Ext-Act = 0.166   Act-Int = 0.112
   N(occ)=  1.20000 1.20000 1.20000 1.20000 1.20000
   ||g|| =     2.684391e+00 Max(G)=    3.897164e-01 Rot=457,1
   --- Orbital Update [SuperCI(PT)]
   --- Canonicalize Internal Space
   --- Canonicalize External Space
   --- SX_PT (Skipped TA=0 IT=0): ||X|| =      0.967354467 Max(X)(131,124) =     -0.335608913 
   --- SFit(Active Orbitals)

MACRO-ITERATION   2: 
   --- Inactive Energy E0 = -2651.58896692 Eh
CI-ITERATION   0: 
 -2660.476092399   0.000000000000 (    0.00)
 -2660.469610606   0.000000000000
 -2660.365228439   0.000000000000
 -2660.347567119   0.000000000000
 -2660.131241221   0.000000000000
   CI-PROBLEM SOLVED
   DENSITIES MADE
CI-ITERATION   0: 
 -2660.583633742   0.000000000000 (    0.00)
 -2660.545745677   0.000000000000
 -2660.537669602   0.000000000000
 -2660.536259042   0.000000000000
 -2660.525251749   0.000000000000
 -2660.523050155   0.000000000000
 -2660.500799674   0.000000000000
 -2660.463998320   0.000000000000
 -2660.456688520   0.000000000000
 -2660.454381646   0.000000000000
 -2660.454140989   0.000000000000
 -2660.443606426   0.000000000000
 -2660.438767741   0.000000000000
 -2660.438148031   0.000000000000
 -2660.428730394   0.000000000000
 -2660.428537942   0.000000000000
 -2660.412952978   0.000000000000
 -2660.392054256   0.000000000000
 -2660.351936982   0.000000000000
 -2660.335611356   0.000000000000
 -2660.329378143   0.000000000000
 -2660.311289240   0.000000000000
 -2660.311057132   0.000000000000
 -2660.305805973   0.000000000000
 -2660.300065778   0.000000000000
 -2660.286013444   0.000000000000
 -2660.269198050   0.000000000000
 -2660.262556697   0.000000000000
 -2660.257608920   0.000000000000
 -2660.248801739   0.000000000000
 -2660.235629453   0.000000000000
 -2660.216946890   0.000000000000
 -2660.154076719   0.000000000000
 -2660.143519486   0.000000000000
 -2660.109530275   0.000000000000
 -2660.087669460   0.000000000000
 -2660.083650790   0.000000000000
 -2660.077177436   0.000000000000
 -2660.062114137   0.000000000000
 -2660.038630186   0.000000000000
 -2660.011617593   0.000000000000
 -2659.885536416   0.000000000000
 -2659.868544764   0.000000000000
 -2659.859557106   0.000000000000
 -2659.821072422   0.000000000000
   CI-PROBLEM SOLVED
   DENSITIES MADE
   E(CAS)= -2660.321074128 Eh DE=    6.675887e-02
   --- Energy gap subspaces: Ext-Act = -0.094   Act-Int = -0.357
   N(occ)=  1.20000 1.20000 1.20000 1.20000 1.20000
   ||g|| =     3.096168e+00 Max(G)=    5.574198e-01 Rot=129,124
   --- Orbital Update [SuperCI(PT)]
   --- Canonicalize Internal Space
   --- Canonicalize External Space
   --- SX_PT (Skipped TA=0 IT=0): ||X|| =      9.552460777 Max(X)(126,121) =     -5.352837576 
   --- SFit(Active Orbitals)

MACRO-ITERATION   3: 
   --- Inactive Energy E0 = -2652.39170604 Eh
CI-ITERATION   0: 
 -2660.682561375   0.000000000000 (    0.00)
 -2660.673694388   0.000000000000
 -2660.642572180   0.000000000000
 -2660.624432641   0.000000000000
 -2660.490342420   0.000000000000
   CI-PROBLEM SOLVED
   DENSITIES MADE
CI-ITERATION   0: 
 -2660.683785749   0.000000000000 (    0.00)
 -2660.672982879   0.000000000000
 -2660.671695246   0.000000000000
 -2660.664842586   0.000000000000
 -2660.663857115   0.000000000000
 -2660.648196277   0.000000000000
 -2660.641227266   0.000000000000
 -2660.638924068   0.000000000000
 -2660.637710940   0.000000000000
 -2660.634617405   0.000000000000
 -2660.632754746   0.000000000000
 -2660.622242882   0.000000000000
 -2660.621853750   0.000000000000
 -2660.617856571   0.000000000000
 -2660.608234491   0.000000000000
 -2660.603558551   0.000000000000
 -2660.601578617   0.000000000000
 -2660.600751985   0.000000000000
 -2660.596694265   0.000000000000
 -2660.594786021   0.000000000000
 -2660.585956120   0.000000000000
 -2660.582602681   0.000000000000
 -2660.578477856   0.000000000000
 -2660.564220350   0.000000000000
 -2660.559098974   0.000000000000
 -2660.552923759   0.000000000000
 -2660.548029919   0.000000000000
 -2660.544768922   0.000000000000
 -2660.521541837   0.000000000000
 -2660.520405538   0.000000000000
 -2660.512437193   0.000000000000
 -2660.500413649   0.000000000000
 -2660.499284980   0.000000000000
 -2660.491040991   0.000000000000
 -2660.465258085   0.000000000000
 -2660.440330021   0.000000000000
 -2660.436763435   0.000000000000
 -2660.421448131   0.000000000000
 -2660.414101588   0.000000000000
 -2660.383036684   0.000000000000
 -2660.370253569   0.000000000000
 -2660.308904887   0.000000000000
 -2660.306772021   0.000000000000
 -2660.280264576   0.000000000000
 -2660.253755252   0.000000000000
   CI-PROBLEM SOLVED
   DENSITIES MADE
   E(CAS)= -2660.581362994 Eh DE=   -2.602889e-01
   --- Energy gap subspaces: Ext-Act = 0.095   Act-Int = -0.149
   N(occ)=  1.20000 1.20000 1.20000 1.20000 1.20000
   ||g|| =     1.751846e+00 Max(G)=    3.307323e-01 Rot=129,124
   --- Orbital Update [SuperCI(PT)]
   --- Canonicalize Internal Space
   --- Canonicalize External Space
   --- SX_PT (Skipped TA=0 IT=0): ||X|| =      1.057740434 Max(X)(128,123) =     -0.492872302 
   --- SFit(Active Orbitals)

MACRO-ITERATION   4: 
   --- Inactive Energy E0 = -2653.14266782 Eh
CI-ITERATION   0: 
 -2660.909315062   0.000000000000 (    0.00)
 -2660.843765677   0.000000000000
 -2660.830338188   0.000000000000
 -2660.804572438   0.000000000000
 -2660.800596634   0.000000000000
   CI-PROBLEM SOLVED
   DENSITIES MADE
CI-ITERATION   0: 
 -2660.871188985   0.000000000000 (    0.00)
 -2660.854121002   0.000000000000
 -2660.852848620   0.000000000000
 -2660.847935746   0.000000000000
 -2660.843870276   0.000000000000
 -2660.843176276   0.000000000000
 -2660.839539270   0.000000000000
 -2660.830793585   0.000000000000
 -2660.828586922   0.000000000000
 -2660.818947483   0.000000000000
 -2660.818364353   0.000000000000
 -2660.807571253   0.000000000000
 -2660.804098189   0.000000000000
 -2660.802655574   0.000000000000
 -2660.797030502   0.000000000000
 -2660.794927056   0.000000000000
 -2660.790669097   0.000000000000
 -2660.789545929   0.000000000000
 -2660.786136097   0.000000000000
 -2660.784407957   0.000000000000
 -2660.781351092   0.000000000000
 -2660.777600687   0.000000000000
 -2660.772118104   0.000000000000
 -2660.769385675   0.000000000000
 -2660.767980327   0.000000000000
 -2660.767039848   0.000000000000
 -2660.763959328   0.000000000000
 -2660.756227663   0.000000000000
 -2660.755212616   0.000000000000
 -2660.752047879   0.000000000000
 -2660.742564040   0.000000000000
 -2660.740363829   0.000000000000
 -2660.738966590   0.000000000000
 -2660.738257527   0.000000000000
 -2660.732800029   0.000000000000
 -2660.686597418   0.000000000000
 -2660.675133125   0.000000000000
 -2660.674410622   0.000000000000
 -2660.642423510   0.000000000000
 -2660.564016150   0.000000000000
 -2660.498737704   0.000000000000
 -2660.495524025   0.000000000000
 -2660.465656926   0.000000000000
 -2660.455139963   0.000000000000
 -2660.398254305   0.000000000000
   CI-PROBLEM SOLVED
   DENSITIES MADE
   E(CAS)= -2660.789060835 Eh DE=   -2.076978e-01
   --- Energy gap subspaces: Ext-Act = 0.267   Act-Int = 0.102
   N(occ)=  1.20000 1.20000 1.20000 1.20000 1.20000
   ||g|| =     6.416585e-01 Max(G)=    6.208771e-02 Rot=441,124
   --- Orbital Update [SuperCI(PT)]
   --- Canonicalize Internal Space
   --- Canonicalize External Space
   --- SX_PT (Skipped TA=0 IT=0): ||X|| =      0.252399303 Max(X)(126,121) =     -0.042036029 
   --- SFit(Active Orbitals)

MACRO-ITERATION   5: 
   --- Inactive Energy E0 = -2652.61544898 Eh
CI-ITERATION   0: 
 -2660.917091028   0.000000000000 (    0.00)
 -2660.891820746   0.000000000000
 -2660.878089265   0.000000000000
 -2660.854763694   0.000000000000
 -2660.851835958   0.000000000000
   CI-PROBLEM SOLVED
   DENSITIES MADE
CI-ITERATION   0: 
 -2660.888392461   0.000000000000 (    0.00)
 -2660.880027532   0.000000000000
 -2660.869784390   0.000000000000
 -2660.862639754   0.000000000000
 -2660.858618834   0.000000000000
 -2660.858177648   0.000000000000
 -2660.853452792   0.000000000000
 -2660.848513845   0.000000000000
 -2660.846245997   0.000000000000
 -2660.844535368   0.000000000000
 -2660.843353693   0.000000000000
 -2660.843087843   0.000000000000
 -2660.839268919   0.000000000000
 -2660.838536494   0.000000000000
 -2660.837426641   0.000000000000
 -2660.833820250   0.000000000000
 -2660.828544231   0.000000000000
 -2660.827556650   0.000000000000
 -2660.821236582   0.000000000000
 -2660.820400801   0.000000000000
 -2660.817069594   0.000000000000
 -2660.812864806   0.000000000000
 -2660.805853465   0.000000000000
 -2660.804359724   0.000000000000
 -2660.800627528   0.000000000000
 -2660.799249038   0.000000000000
 -2660.790444643   0.000000000000
 -2660.789835987   0.000000000000
 -2660.785599319   0.000000000000
 -2660.783724796   0.000000000000
 -2660.779801877   0.000000000000
 -2660.763681287   0.000000000000
 -2660.758584327   0.000000000000
 -2660.757991338   0.000000000000
 -2660.750644723   0.000000000000
 -2660.727305918   0.000000000000
 -2660.721121876   0.000000000000
 -2660.713590554   0.000000000000
 -2660.683016233   0.000000000000
 -2660.623352977   0.000000000000
 -2660.556502654   0.000000000000
 -2660.554870294   0.000000000000
 -2660.524267011   0.000000000000
 -2660.515019877   0.000000000000
 -2660.453888153   0.000000000000
   CI-PROBLEM SOLVED
   DENSITIES MADE
   E(CAS)= -2660.826214388 Eh DE=   -3.715355e-02
   --- Energy gap subspaces: Ext-Act = 0.291   Act-Int = 0.090
   N(occ)=  1.20000 1.20000 1.20000 1.20000 1.20000
   ||g|| =     3.306697e-01 Max(G)=    5.481358e-02 Rot=129,124
   --- Orbital Update [SuperCI(PT)]
   --- Canonicalize Internal Space
   --- Canonicalize External Space
   --- SX_PT (Skipped TA=0 IT=0): ||X|| =      0.189759840 Max(X)(129,125) =     -0.069625496 
   --- SFit(Active Orbitals)

MACRO-ITERATION   6: 
   --- Inactive Energy E0 = -2652.52011059 Eh
CI-ITERATION   0: 
 -2660.954545509   0.000000000000 (    0.00)
 -2660.912089884   0.000000000000
 -2660.899397885   0.000000000000
 -2660.873158201   0.000000000000
 -2660.870228061   0.000000000000
   CI-PROBLEM SOLVED
   DENSITIES MADE
CI-ITERATION   0: 
 -2660.912333224   0.000000000000 (    0.00)
 -2660.901659606   0.000000000000
 -2660.892569461   0.000000000000
 -2660.888671764   0.000000000000
 -2660.886557921   0.000000000000
 -2660.884564200   0.000000000000
 -2660.881692994   0.000000000000
 -2660.879968269   0.000000000000
 -2660.872630788   0.000000000000
 -2660.867921128   0.000000000000
 -2660.865861982   0.000000000000
 -2660.862594465   0.000000000000
 -2660.861655338   0.000000000000
 -2660.860200597   0.000000000000
 -2660.859881913   0.000000000000
 -2660.855416114   0.000000000000
 -2660.853030618   0.000000000000
 -2660.848355391   0.000000000000
 -2660.844559658   0.000000000000
 -2660.841403781   0.000000000000
 -2660.836562556   0.000000000000
 -2660.834062195   0.000000000000
 -2660.833701970   0.000000000000
 -2660.828869508   0.000000000000
 -2660.821044240   0.000000000000
 -2660.817259812   0.000000000000
 -2660.809241569   0.000000000000
 -2660.806752719   0.000000000000
 -2660.800867753   0.000000000000
 -2660.800259100   0.000000000000
 -2660.794902081   0.000000000000
 -2660.794101179   0.000000000000
 -2660.791256429   0.000000000000
 -2660.789951822   0.000000000000
 -2660.783722266   0.000000000000
 -2660.740310547   0.000000000000
 -2660.729604573   0.000000000000
 -2660.722978890   0.000000000000
 -2660.692175164   0.000000000000
 -2660.595317312   0.000000000000
 -2660.528628153   0.000000000000
 -2660.527223728   0.000000000000
 -2660.495723144   0.000000000000
 -2660.489560067   0.000000000000
 -2660.428459799   0.000000000000
   CI-PROBLEM SOLVED
   DENSITIES MADE
   E(CAS)= -2660.845542685 Eh DE=   -1.932830e-02
   --- Energy gap subspaces: Ext-Act = 0.297   Act-Int = 0.096
   N(occ)=  1.20000 1.20000 1.20000 1.20000 1.20000
   ||g|| =     3.516732e-01 Max(G)=    2.356557e-02 Rot=130,125
   --- Orbital Update [SuperCI(PT)]
   --- Canonicalize Internal Space
   --- Canonicalize External Space
   --- SX_PT (Skipped TA=0 IT=0): ||X|| =      0.123910205 Max(X)(129,125) =     -0.033754907 
   --- SFit(Active Orbitals)

MACRO-ITERATION   7: 
   --- Inactive Energy E0 = -2652.13013907 Eh
CI-ITERATION   0: 
 -2660.969427544   0.000000000000 (    0.00)
 -2660.931040125   0.000000000000
 -2660.918376615   0.000000000000
 -2660.893152466   0.000000000000
 -2660.890720823   0.000000000000
   CI-PROBLEM SOLVED
   DENSITIES MADE
CI-ITERATION   0: 
 -2660.922473740   0.000000000000 (    0.00)
 -2660.915752395   0.000000000000
 -2660.912727334   0.000000000000
 -2660.897315496   0.000000000000
 -2660.893077560   0.000000000000
 -2660.891199089   0.000000000000
 -2660.889632413   0.000000000000
 -2660.888908690   0.000000000000
 -2660.885752313   0.000000000000
 -2660.882758496   0.000000000000
 -2660.881753466   0.000000000000
 -2660.880957624   0.000000000000
 -2660.878304133   0.000000000000
 -2660.877331711   0.000000000000
 -2660.875894580   0.000000000000
 -2660.872369643   0.000000000000
 -2660.864634903   0.000000000000
 -2660.864091767   0.000000000000
 -2660.859456716   0.000000000000
 -2660.854246094   0.000000000000
 -2660.851948960   0.000000000000
 -2660.850727367   0.000000000000
 -2660.846254519   0.000000000000
 -2660.844824642   0.000000000000
 -2660.834951619   0.000000000000
 -2660.834630709   0.000000000000
 -2660.824297896   0.000000000000
 -2660.823212702   0.000000000000
 -2660.815445546   0.000000000000
 -2660.814264304   0.000000000000
 -2660.810689923   0.000000000000
 -2660.809254857   0.000000000000
 -2660.797868220   0.000000000000
 -2660.795861815   0.000000000000
 -2660.790682683   0.000000000000
 -2660.752227172   0.000000000000
 -2660.740449664   0.000000000000
 -2660.730168525   0.000000000000
 -2660.703069756   0.000000000000
 -2660.572039797   0.000000000000
 -2660.511576405   0.000000000000
 -2660.510702929   0.000000000000
 -2660.478283558   0.000000000000
 -2660.477007555   0.000000000000
 -2660.419230924   0.000000000000
   CI-PROBLEM SOLVED
   DENSITIES MADE
   E(CAS)= -2660.859475204 Eh DE=   -1.393252e-02
   --- Energy gap subspaces: Ext-Act = 0.312   Act-Int = 0.089
   N(occ)=  1.20000 1.20000 1.20000 1.20000 1.20000
   ||g|| =     1.357018e-01 Max(G)=    1.179738e-02 Rot=129,125
   --- Orbital Update [SuperCI(PT)]
   --- Canonicalize Internal Space
   --- Canonicalize External Space
   --- SX_PT (Skipped TA=0 IT=0): ||X|| =      0.053276624 Max(X)(129,125) =     -0.016488177 
   --- SFit(Active Orbitals)

MACRO-ITERATION   8: 
   --- Inactive Energy E0 = -2652.17526719 Eh
CI-ITERATION   0: 
 -2660.971617862   0.000000000000 (    0.00)
 -2660.932143784   0.000000000000
 -2660.919035721   0.000000000000
 -2660.894881118   0.000000000000
 -2660.893216014   0.000000000000
   CI-PROBLEM SOLVED
   DENSITIES MADE
CI-ITERATION   0: 
 -2660.924118929   0.000000000000 (    0.00)
 -2660.914484369   0.000000000000
 -2660.913934777   0.000000000000
 -2660.899820555   0.000000000000
 -2660.894955238   0.000000000000
 -2660.893652863   0.000000000000
 -2660.890105420   0.000000000000
 -2660.889780632   0.000000000000
 -2660.887221333   0.000000000000
 -2660.884354528   0.000000000000
 -2660.884137114   0.000000000000
 -2660.882532057   0.000000000000
 -2660.881771673   0.000000000000
 -2660.878722096   0.000000000000
 -2660.877726325   0.000000000000
 -2660.874068318   0.000000000000
 -2660.867059477   0.000000000000
 -2660.865671572   0.000000000000
 -2660.861776858   0.000000000000
 -2660.856569168   0.000000000000
 -2660.853863741   0.000000000000
 -2660.853466420   0.000000000000
 -2660.851143857   0.000000000000
 -2660.846599686   0.000000000000
 -2660.837993831   0.000000000000
 -2660.835986044   0.000000000000
 -2660.828615091   0.000000000000
 -2660.825858105   0.000000000000
 -2660.816966450   0.000000000000
 -2660.815960354   0.000000000000
 -2660.813319572   0.000000000000
 -2660.812824800   0.000000000000
 -2660.801085829   0.000000000000
 -2660.798164177   0.000000000000
 -2660.792691879   0.000000000000
 -2660.754400437   0.000000000000
 -2660.742452784   0.000000000000
 -2660.730695302   0.000000000000
 -2660.705545446   0.000000000000
 -2660.562684760   0.000000000000
 -2660.507955381   0.000000000000
 -2660.506630101   0.000000000000
 -2660.477620406   0.000000000000
 -2660.472062311   0.000000000000
 -2660.420677048   0.000000000000
   CI-PROBLEM SOLVED
   DENSITIES MADE
   E(CAS)= -2660.860953084 Eh DE=   -1.477881e-03
   --- Energy gap subspaces: Ext-Act = 0.312   Act-Int = 0.091
   N(occ)=  1.20000 1.20000 1.20000 1.20000 1.20000
   ||g|| =     8.643497e-02 Max(G)=    9.852203e-03 Rot=129,124
   --- Orbital Update [SuperCI(PT)]
   --- Canonicalize Internal Space
   --- Canonicalize External Space
   --- SX_PT (Skipped TA=0 IT=0): ||X|| =      0.041182435 Max(X)(129,125) =     -0.014235731 
   --- SFit(Active Orbitals)

MACRO-ITERATION   9: 
   --- Inactive Energy E0 = -2652.17005294 Eh
CI-ITERATION   0: 
 -2660.975389407   0.000000000000 (    0.00)
 -2660.932852915   0.000000000000
 -2660.919282178   0.000000000000
 -2660.896463822   0.000000000000
 -2660.895129470   0.000000000000
   CI-PROBLEM SOLVED
   DENSITIES MADE
CI-ITERATION   0: 
 -2660.925424526   0.000000000000 (    0.00)
 -2660.914849607   0.000000000000
 -2660.913701940   0.000000000000
 -2660.902962181   0.000000000000
 -2660.897589260   0.000000000000
 -2660.896897107   0.000000000000
 -2660.892426979   0.000000000000
 -2660.891235130   0.000000000000
 -2660.887734480   0.000000000000
 -2660.887429019   0.000000000000
 -2660.886881576   0.000000000000
 -2660.884188089   0.000000000000
 -2660.883238164   0.000000000000
 -2660.880569725   0.000000000000
 -2660.878540954   0.000000000000
 -2660.874976353   0.000000000000
 -2660.870098769   0.000000000000
 -2660.866302089   0.000000000000
 -2660.863339347   0.000000000000
 -2660.859440880   0.000000000000
 -2660.856041562   0.000000000000
 -2660.855324407   0.000000000000
 -2660.854943518   0.000000000000
 -2660.847435139   0.000000000000
 -2660.840210720   0.000000000000
 -2660.836169482   0.000000000000
 -2660.833335646   0.000000000000
 -2660.827370643   0.000000000000
 -2660.817790721   0.000000000000
 -2660.816977586   0.000000000000
 -2660.815190141   0.000000000000
 -2660.814605552   0.000000000000
 -2660.804909549   0.000000000000
 -2660.800970590   0.000000000000
 -2660.795712844   0.000000000000
 -2660.755182176   0.000000000000
 -2660.742946533   0.000000000000
 -2660.729956161   0.000000000000
 -2660.706803036   0.000000000000
 -2660.548567823   0.000000000000
 -2660.500067460   0.000000000000
 -2660.496854241   0.000000000000
 -2660.471935891   0.000000000000
 -2660.461688277   0.000000000000
 -2660.416556217   0.000000000000
   CI-PROBLEM SOLVED
   DENSITIES MADE
   E(CAS)= -2660.861971469 Eh DE=   -1.018385e-03
   --- Energy gap subspaces: Ext-Act = 0.313   Act-Int = 0.090
   N(occ)=  1.20000 1.20000 1.20000 1.20000 1.20000
   ||g|| =     5.294121e-02 Max(G)=    6.117299e-03 Rot=129,125
   --- Orbital Update [SuperCI(PT)]
   --- Canonicalize Internal Space
   --- Canonicalize External Space
   --- SX_PT (Skipped TA=0 IT=0): ||X|| =      0.026654019 Max(X)(129,125) =     -0.007886554 
   --- SFit(Active Orbitals)

MACRO-ITERATION  10: 
   --- Inactive Energy E0 = -2652.15926632 Eh
CI-ITERATION   0: 
 -2660.978387449   0.000000000000 (    0.00)
 -2660.933298490   0.000000000000
 -2660.919177355   0.000000000000
 -2660.897410510   0.000000000000
 -2660.896435080   0.000000000000
   CI-PROBLEM SOLVED
   DENSITIES MADE
CI-ITERATION   0: 
 -2660.926413546   0.000000000000 (    0.00)
 -2660.915317035   0.000000000000
 -2660.912301566   0.000000000000
 -2660.905579900   0.000000000000
 -2660.899764916   0.000000000000
 -2660.899405698   0.000000000000
 -2660.894952512   0.000000000000
 -2660.892344499   0.000000000000
 -2660.890914564   0.000000000000
 -2660.888782344   0.000000000000
 -2660.887995870   0.000000000000
 -2660.885063724   0.000000000000
 -2660.883522215   0.000000000000
 -2660.881855268   0.000000000000
 -2660.878978327   0.000000000000
 -2660.875544330   0.000000000000
 -2660.872728394   0.000000000000
 -2660.866611572   0.000000000000
 -2660.864242197   0.000000000000
 -2660.861611080   0.000000000000
 -2660.859250166   0.000000000000
 -2660.856126182   0.000000000000
 -2660.856009233   0.000000000000
 -2660.847691800   0.000000000000
 -2660.841740326   0.000000000000
 -2660.837020015   0.000000000000
 -2660.835931616   0.000000000000
 -2660.828271367   0.000000000000
 -2660.818057349   0.000000000000
 -2660.817657921   0.000000000000
 -2660.816246550   0.000000000000
 -2660.815146689   0.000000000000
 -2660.807799785   0.000000000000
 -2660.802981143   0.000000000000
 -2660.797643234   0.000000000000
 -2660.755357362   0.000000000000
 -2660.742724738   0.000000000000
 -2660.728725125   0.000000000000
 -2660.707262805   0.000000000000
 -2660.535414543   0.000000000000
 -2660.492975100   0.000000000000
 -2660.487665453   0.000000000000
 -2660.466481400   0.000000000000
 -2660.451713900   0.000000000000
 -2660.412192977   0.000000000000
   CI-PROBLEM SOLVED
   DENSITIES MADE
   E(CAS)= -2660.862493292 Eh DE=   -5.218231e-04
   --- Energy gap subspaces: Ext-Act = 0.314   Act-Int = 0.090
   N(occ)=  1.20000 1.20000 1.20000 1.20000 1.20000
   ||g|| =     2.778281e-02 Max(G)=    3.011286e-03 Rot=128,123
   --- Orbital Update [SuperCI(PT)]
   --- Canonicalize Internal Space
   --- Canonicalize External Space
   --- SX_PT (Skipped TA=0 IT=0): ||X|| =      0.012725587 Max(X)(126,121) =      0.003976849 
   --- SFit(Active Orbitals)

MACRO-ITERATION  11: 
   --- Inactive Energy E0 = -2652.16531914 Eh
CI-ITERATION   0: 
 -2660.979164147   0.000000000000 (    0.00)
 -2660.933338446   0.000000000000
 -2660.918764039   0.000000000000
 -2660.897589537   0.000000000000
 -2660.896731589   0.000000000000
   CI-PROBLEM SOLVED
   DENSITIES MADE
CI-ITERATION   0: 
 -2660.926601924   0.000000000000 (    0.00)
 -2660.915072097   0.000000000000
 -2660.911526741   0.000000000000
 -2660.906344912   0.000000000000
 -2660.900478808   0.000000000000
 -2660.900157415   0.000000000000
 -2660.895912977   0.000000000000
 -2660.892821944   0.000000000000
 -2660.891692952   0.000000000000
 -2660.889252520   0.000000000000
 -2660.887833999   0.000000000000
 -2660.885281656   0.000000000000
 -2660.883334108   0.000000000000
 -2660.882221051   0.000000000000
 -2660.879096995   0.000000000000
 -2660.875717200   0.000000000000
 -2660.873604764   0.000000000000
 -2660.866699876   0.000000000000
 -2660.864377831   0.000000000000
 -2660.862273435   0.000000000000
 -2660.860078927   0.000000000000
 -2660.856429683   0.000000000000
 -2660.856357001   0.000000000000
 -2660.847592793   0.000000000000
 -2660.842396730   0.000000000000
 -2660.838122618   0.000000000000
 -2660.835692581   0.000000000000
 -2660.828591397   0.000000000000
 -2660.818172974   0.000000000000
 -2660.817934700   0.000000000000
 -2660.816466740   0.000000000000
 -2660.815241961   0.000000000000
 -2660.808948291   0.000000000000
 -2660.803923514   0.000000000000
 -2660.798544749   0.000000000000
 -2660.755412394   0.000000000000
 -2660.742760183   0.000000000000
 -2660.728318128   0.000000000000
 -2660.707556699   0.000000000000
 -2660.531579351   0.000000000000
 -2660.491926311   0.000000000000
 -2660.485381183   0.000000000000
 -2660.465628861   0.000000000000
 -2660.449015302   0.000000000000
 -2660.411734642   0.000000000000
   CI-PROBLEM SOLVED
   DENSITIES MADE
   E(CAS)= -2660.862604452 Eh DE=   -1.111604e-04
   --- Energy gap subspaces: Ext-Act = 0.314   Act-Int = 0.090
   N(occ)=  1.20000 1.20000 1.20000 1.20000 1.20000
   ||g|| =     1.627554e-02 Max(G)=    2.742772e-03 Rot=128,123
   --- Orbital Update [SuperCI(PT)]
   --- Canonicalize Internal Space
   --- Canonicalize External Space
   --- SX_PT (Skipped TA=0 IT=0): ||X|| =      0.007901635 Max(X)(126,121) =      0.002253127 
   --- SFit(Active Orbitals)

MACRO-ITERATION  12: 
   --- Inactive Energy E0 = -2652.16621798 Eh
CI-ITERATION   0: 
 -2660.979606496   0.000000000000 (    0.00)
 -2660.933437742   0.000000000000
 -2660.918516348   0.000000000000
 -2660.897620129   0.000000000000
 -2660.896784546   0.000000000000
   CI-PROBLEM SOLVED
   DENSITIES MADE
CI-ITERATION   0: 
 -2660.926717878   0.000000000000 (    0.00)
 -2660.914860473   0.000000000000
 -2660.911020814   0.000000000000
 -2660.906687709   0.000000000000
 -2660.900861736   0.000000000000
 -2660.900532412   0.000000000000
 -2660.896458847   0.000000000000
 -2660.893061147   0.000000000000
 -2660.891908135   0.000000000000
 -2660.889369776   0.000000000000
 -2660.887765464   0.000000000000
 -2660.885398195   0.000000000000
 -2660.883252633   0.000000000000
 -2660.882415254   0.000000000000
 -2660.879182539   0.000000000000
 -2660.875841651   0.000000000000
 -2660.874064974   0.000000000000
 -2660.866770011   0.000000000000
 -2660.864412535   0.000000000000
 -2660.862614737   0.000000000000
 -2660.860453732   0.000000000000
 -2660.856559348   0.000000000000
 -2660.856493209   0.000000000000
 -2660.847489036   0.000000000000
 -2660.842673056   0.000000000000
 -2660.838641092   0.000000000000
 -2660.835535383   0.000000000000
 -2660.828695036   0.000000000000
 -2660.818178113   0.000000000000
 -2660.818017222   0.000000000000
 -2660.816456780   0.000000000000
 -2660.815203960   0.000000000000
 -2660.809643128   0.000000000000
 -2660.804553758   0.000000000000
 -2660.799195568   0.000000000000
 -2660.755316068   0.000000000000
 -2660.742619552   0.000000000000
 -2660.728027591   0.000000000000
 -2660.707515320   0.000000000000
 -2660.529940259   0.000000000000
 -2660.491758926   0.000000000000
 -2660.484381421   0.000000000000
 -2660.465180774   0.000000000000
 -2660.447684872   0.000000000000
 -2660.411354106   0.000000000000
   CI-PROBLEM SOLVED
   DENSITIES MADE
   E(CAS)= -2660.862649462 Eh DE=   -4.500951e-05
   --- Energy gap subspaces: Ext-Act = 0.314   Act-Int = 0.090
   N(occ)=  1.20000 1.20000 1.20000 1.20000 1.20000
   ||g|| =     1.017031e-02 Max(G)=    2.240266e-03 Rot=128,123
   --- Orbital Update [SuperCI(PT)]
   --- Canonicalize Internal Space
   --- Canonicalize External Space
   --- SX_PT (Skipped TA=0 IT=0): ||X|| =      0.005109164 Max(X)(126,121) =      0.001451045 
   --- SFit(Active Orbitals)

MACRO-ITERATION  13: 
   --- Inactive Energy E0 = -2652.16700628 Eh
CI-ITERATION   0: 
 -2660.979980891   0.000000000000 (    0.00)
 -2660.933425929   0.000000000000
 -2660.918375914   0.000000000000
 -2660.897524308   0.000000000000
 -2660.896667863   0.000000000000
   CI-PROBLEM SOLVED
   DENSITIES MADE
CI-ITERATION   0: 
 -2660.926651565   0.000000000000 (    0.00)
 -2660.914701069   0.000000000000
 -2660.911081966   0.000000000000
 -2660.906947817   0.000000000000
 -2660.901174822   0.000000000000
 -2660.900825390   0.000000000000
 -2660.896821690   0.000000000000
 -2660.893172353   0.000000000000
 -2660.892000587   0.000000000000
 -2660.889311761   0.000000000000
 -2660.887696046   0.000000000000
 -2660.885575669   0.000000000000
 -2660.883187044   0.000000000000
 -2660.882690072   0.000000000000
 -2660.879139650   0.000000000000
 -2660.875827706   0.000000000000
 -2660.874396741   0.000000000000
 -2660.866736495   0.000000000000
 -2660.864477249   0.000000000000
 -2660.862922066   0.000000000000
 -2660.860686754   0.000000000000
 -2660.856514784   0.000000000000
 -2660.856426925   0.000000000000
 -2660.847399433   0.000000000000
 -2660.842631150   0.000000000000
 -2660.838967072   0.000000000000
 -2660.835431098   0.000000000000
 -2660.828657638   0.000000000000
 -2660.818100452   0.000000000000
 -2660.817964991   0.000000000000
 -2660.816365833   0.000000000000
 -2660.815116391   0.000000000000
 -2660.810072279   0.000000000000
 -2660.805070751   0.000000000000
 -2660.799782531   0.000000000000
 -2660.755172167   0.000000000000
 -2660.742449586   0.000000000000
 -2660.727884858   0.000000000000
 -2660.707358774   0.000000000000
 -2660.529625926   0.000000000000
 -2660.491753758   0.000000000000
 -2660.484081756   0.000000000000
 -2660.464892381   0.000000000000
 -2660.447250128   0.000000000000
 -2660.410982800   0.000000000000
   CI-PROBLEM SOLVED
   DENSITIES MADE
   E(CAS)= -2660.862663912 Eh DE=   -1.445033e-05
   --- Energy gap subspaces: Ext-Act = 0.314   Act-Int = 0.090
   N(occ)=  1.20000 1.20000 1.20000 1.20000 1.20000
   ||g|| =     8.295294e-03 Max(G)=    1.521741e-03 Rot=128,123
   --- Orbital Update [SuperCI(PT)]
   --- Canonicalize Internal Space
   --- Canonicalize External Space
   --- SX_PT (Skipped TA=0 IT=0): ||X|| =      0.003949588 Max(X)(126,121) =      0.001093449 
   --- SFit(Active Orbitals)

MACRO-ITERATION  14: 
   --- Inactive Energy E0 = -2652.16764064 Eh
CI-ITERATION   0: 
 -2660.980082459   0.000000000000 (    0.00)
 -2660.933438506   0.000000000000
 -2660.918285369   0.000000000000
 -2660.897448842   0.000000000000
 -2660.896594417   0.000000000000
   CI-PROBLEM SOLVED
   DENSITIES MADE
CI-ITERATION   0: 
 -2660.926600220   0.000000000000 (    0.00)
 -2660.914566332   0.000000000000
 -2660.911083280   0.000000000000
 -2660.907005001   0.000000000000
 -2660.901270015   0.000000000000
 -2660.900894175   0.000000000000
 -2660.896931601   0.000000000000
 -2660.893166213   0.000000000000
 -2660.891987602   0.000000000000
 -2660.889233444   0.000000000000
 -2660.887662317   0.000000000000
 -2660.885628316   0.000000000000
 -2660.883155242   0.000000000000
 -2660.882785166   0.000000000000
 -2660.879133837   0.000000000000
 -2660.875840258   0.000000000000
 -2660.874513390   0.000000000000
 -2660.866746390   0.000000000000
 -2660.864491792   0.000000000000
 -2660.863041734   0.000000000000
 -2660.860776591   0.000000000000
 -2660.856495683   0.000000000000
 -2660.856405227   0.000000000000
 -2660.847341389   0.000000000000
 -2660.842632013   0.000000000000
 -2660.839101110   0.000000000000
 -2660.835383871   0.000000000000
 -2660.828649237   0.000000000000
 -2660.818064179   0.000000000000
 -2660.817934137   0.000000000000
 -2660.816301042   0.000000000000
 -2660.815064999   0.000000000000
 -2660.810255220   0.000000000000
 -2660.805307427   0.000000000000
 -2660.800057016   0.000000000000
 -2660.755109678   0.000000000000
 -2660.742376975   0.000000000000
 -2660.727832936   0.000000000000
 -2660.707269086   0.000000000000
 -2660.529860005   0.000000000000
 -2660.492100353   0.000000000000
 -2660.484321991   0.000000000000
 -2660.465043861   0.000000000000
 -2660.447370471   0.000000000000
 -2660.411065223   0.000000000000
   CI-PROBLEM SOLVED
   DENSITIES MADE
   E(CAS)= -2660.862672249 Eh DE=   -8.336265e-06
   --- Energy gap subspaces: Ext-Act = 0.314   Act-Int = 0.090
   N(occ)=  1.20000 1.20000 1.20000 1.20000 1.20000
   ||g|| =     6.690179e-03 Max(G)=    1.086926e-03 Rot=128,127
   --- Orbital Update [SuperCI(PT)]
   --- Canonicalize Internal Space
   --- Canonicalize External Space
   --- SX_PT (Skipped TA=0 IT=0): ||X|| =      0.003251058 Max(X)(126,121) =      0.000866252 
Warning: badly conditioned DIIS matrix, 1 vectors out of 14 destroyed
Warning: badly conditioned DIIS matrix, 1 vectors out of 13 destroyed
   --- SFit(Active Orbitals)

MACRO-ITERATION  15: 
   --- Inactive Energy E0 = -2652.16549041 Eh
CI-ITERATION   0: 
 -2660.980122856   0.000000000000 (    0.00)
 -2660.933512044   0.000000000000
 -2660.918132610   0.000000000000
 -2660.897473296   0.000000000000
 -2660.896666280   0.000000000000
   CI-PROBLEM SOLVED
   DENSITIES MADE
CI-ITERATION   0: 
 -2660.926583453   0.000000000000 (    0.00)
 -2660.914328840   0.000000000000
 -2660.910591612   0.000000000000
 -2660.906942594   0.000000000000
 -2660.901266241   0.000000000000
 -2660.900864115   0.000000000000
 -2660.897039592   0.000000000000
 -2660.893202193   0.000000000000
 -2660.891937078   0.000000000000
 -2660.889209608   0.000000000000
 -2660.887578452   0.000000000000
 -2660.885580599   0.000000000000
 -2660.883076139   0.000000000000
 -2660.882713183   0.000000000000
 -2660.879170818   0.000000000000
 -2660.875921819   0.000000000000
 -2660.874627157   0.000000000000
 -2660.866810035   0.000000000000
 -2660.864426700   0.000000000000
 -2660.863137795   0.000000000000
 -2660.860897103   0.000000000000
 -2660.856548891   0.000000000000
 -2660.856499655   0.000000000000
 -2660.847217825   0.000000000000
 -2660.842860441   0.000000000000
 -2660.839301396   0.000000000000
 -2660.835274438   0.000000000000
 -2660.828748423   0.000000000000
 -2660.818096917   0.000000000000
[...]
      px      :     2.098771
      py      :     2.084939
      dz2     :     1.986819  d :     9.972081
      dxz     :     2.002097
      dyz     :     1.996679
      dx2y2   :     1.997677
      dxy     :     1.988809
      f0      :     0.000400  f :     0.003718
      f+1     :     0.000479
      f-1     :     0.000579
      f+2     :     0.000665
      f-2     :     0.000522
      f+3     :     0.000659
      f-3     :     0.000413
  7 Aus       :     2.436558  s :     2.436558
      pz      :     2.125196  p :     6.493782
      px      :     2.075076
      py      :     2.293510
      dz2     :     1.988044  d :     9.979145
      dxz     :     2.006847
      dyz     :     1.995687
      dx2y2   :     1.981920
      dxy     :     2.006648
      f0      :     0.000442  f :     0.004801
      f+1     :     0.000621
      f-1     :     0.000833
      f+2     :     0.000571
      f-2     :     0.000529
      f+3     :     0.001046
      f-3     :     0.000758
  8 Aus       :     2.446167  s :     2.446167
      pz      :     2.143153  p :     6.382343
      px      :     2.170454
      py      :     2.068736
      dz2     :     2.007750  d :     9.998791
      dxz     :     1.991927
      dyz     :     1.999066
      dx2y2   :     2.001429
      dxy     :     1.998619
      f0      :     0.000666  f :     0.004665
      f+1     :     0.000712
      f-1     :     0.000895
      f+2     :     0.000533
      f-2     :     0.000626
      f+3     :     0.000455
      f-3     :     0.000779
  9 Aus       :     2.514598  s :     2.514598
      pz      :     2.112966  p :     6.399351
      px      :     2.071902
      py      :     2.214483
      dz2     :     1.991845  d :     9.962764
      dxz     :     1.990680
      dyz     :     1.993585
      dx2y2   :     1.993385
      dxy     :     1.993269
      f0      :     0.000546  f :     0.004216
      f+1     :     0.000450
      f-1     :     0.000944
      f+2     :     0.000680
      f-2     :     0.000439
      f+3     :     0.000586
      f-3     :     0.000569
 10 Aus       :     2.447160  s :     2.447160
      pz      :     2.165092  p :     6.510115
      px      :     2.152421
      py      :     2.192602
      dz2     :     1.994311  d :    10.006432
      dxz     :     2.008064
      dyz     :     1.999777
      dx2y2   :     2.004721
      dxy     :     1.999560
      f0      :     0.000555  f :     0.004854
      f+1     :     0.000697
      f-1     :     0.000817
      f+2     :     0.000581
      f-2     :     0.000567
      f+3     :     0.000691
      f-3     :     0.000946
 11 Aus       :     2.628859  s :     2.628859
      pz      :     2.080696  p :     6.302146
      px      :     2.124236
      py      :     2.097213
      dz2     :     1.994613  d :     9.972169
      dxz     :     2.004468
      dyz     :     1.986136
      dx2y2   :     1.995097
      dxy     :     1.991856
      f0      :     0.000413  f :     0.003739
      f+1     :     0.000429
      f-1     :     0.000354
      f+2     :     0.000795
      f-2     :     0.000596
      f+3     :     0.000605
      f-3     :     0.000547
 12 Crs       :     6.247450  s :     6.247450
      pz      :     4.187934  p :    12.507084
      px      :     4.191207
      py      :     4.127942
      dz2     :     0.838909  d :     6.327601
      dxz     :     1.257522
      dyz     :     1.449847
      dx2y2   :     1.264265
      dxy     :     1.517059
      f0      :     0.000219  f :     0.001343
      f+1     :     0.000291
      f-1     :     0.000183
      f+2     :     0.000191
      f-2     :     0.000108
      f+3     :     0.000179
      f-3     :     0.000172

SPIN
  0 Aus       :     0.028460  s :     0.028460
      pz      :     0.002255  p :     0.018936
      px      :     0.011908
      py      :     0.004774
      dz2     :     0.002822  d :     0.015542
      dxz     :     0.001703
      dyz     :     0.002143
      dx2y2   :     0.005644
      dxy     :     0.003229
      f0      :     0.000029  f :     0.000265
      f+1     :     0.000040
      f-1     :     0.000012
      f+2     :     0.000009
      f-2     :     0.000034
      f+3     :     0.000035
      f-3     :     0.000106
  1 Aus       :     0.028280  s :     0.028280
      pz      :     0.009618  p :     0.018553
      px      :     0.003020
      py      :     0.005915
      dz2     :     0.003753  d :     0.015773
      dxz     :     0.002166
      dyz     :     0.001629
      dx2y2   :     0.007122
      dxy     :     0.001102
      f0      :     0.000057  f :     0.000274
      f+1     :     0.000022
      f-1     :     0.000112
      f+2     :     0.000044
      f-2     :     0.000023
      f+3     :     0.000007
      f-3     :     0.000009
  2 Aus       :     0.029899  s :     0.029899
      pz      :     0.006267  p :     0.017268
      px      :     0.006548
      py      :     0.004452
      dz2     :     0.001383  d :     0.013119
      dxz     :     0.004096
      dyz     :     0.001908
      dx2y2   :     0.003272
      dxy     :     0.002460
      f0      :     0.000022  f :     0.000376
      f+1     :     0.000069
      f-1     :     0.000012
      f+2     :     0.000050
      f-2     :     0.000020
      f+3     :     0.000108
      f-3     :     0.000095
  3 Aus       :     0.010474  s :     0.010474
      pz      :     0.014159  p :     0.020758
      px      :     0.003066
      py      :     0.003533
      dz2     :     0.000929  d :     0.015293
      dxz     :     0.001029
      dyz     :     0.007218
      dx2y2   :     0.004401
      dxy     :     0.001715
      f0      :     0.000040  f :     0.000226
      f+1     :     0.000009
      f-1     :     0.000043
      f+2     :     0.000060
      f-2     :     0.000026
      f+3     :     0.000011
      f-3     :     0.000037
  4 Aus       :     0.005649  s :     0.005649
      pz      :     0.001751  p :     0.005770
      px      :     0.002231
      py      :     0.001788
      dz2     :     0.000253  d :     0.002402
      dxz     :     0.000109
      dyz     :     0.000762
      dx2y2   :     0.000545
      dxy     :     0.000732
      f0      :     0.000001  f :     0.000008
      f+1     :     0.000001
      f-1     :     0.000001
      f+2     :     0.000002
      f-2     :     0.000000
      f+3     :     0.000002
      f-3     :     0.000000
  5 Aus       :     0.028875  s :     0.028875
      pz      :     0.007797  p :     0.018425
      px      :     0.006715
      py      :     0.003913
      dz2     :     0.002526  d :     0.010483
      dxz     :     0.003006
      dyz     :     0.002033
      dx2y2   :     0.001750
      dxy     :     0.001167
      f0      :     0.000127  f :     0.000321
      f+1     :     0.000054
      f-1     :     0.000081
      f+2     :     0.000030
      f-2     :     0.000025
      f+3     :     0.000003
      f-3     :     0.000002
  6 Aus       :     0.002319  s :     0.002319
      pz      :     0.003524  p :     0.009732
      px      :     0.004995
      py      :     0.001214
      dz2     :     0.001788  d :     0.009994
      dxz     :     0.000299
      dyz     :     0.003198
      dx2y2   :     0.001146
      dxy     :     0.003564
      f0      :     0.000009  f :     0.000135
      f+1     :     0.000010
      f-1     :     0.000026
      f+2     :     0.000015
      f-2     :     0.000007
      f+3     :     0.000057
      f-3     :     0.000010
  7 Aus       :     0.029132  s :     0.029132
      pz      :     0.007639  p :     0.018615
      px      :     0.007147
      py      :     0.003829
      dz2     :     0.001218  d :     0.010474
      dxz     :     0.003621
      dyz     :     0.000667
      dx2y2   :     0.003161
      dxy     :     0.001807
      f0      :     0.000021  f :     0.000320
      f+1     :     0.000055
      f-1     :     0.000008
      f+2     :     0.000047
      f-2     :     0.000012
      f+3     :     0.000104
      f-3     :     0.000073
  8 Aus       :     0.001087  s :     0.001087
      pz      :     0.021179  p :     0.052723
      px      :     0.028593
      py      :     0.002951
      dz2     :     0.004154  d :     0.011945
      dxz     :     0.002356
      dyz     :     0.001884
      dx2y2   :     0.001969
      dxy     :     0.001582
      f0      :     0.000015  f :     0.000197
      f+1     :     0.000059
      f-1     :     0.000010
      f+2     :     0.000039
      f-2     :     0.000049
      f+3     :     0.000010
      f-3     :     0.000016
  9 Aus       :     0.029569  s :     0.029569
      pz      :     0.008767  p :     0.017022
      px      :     0.004296
      py      :     0.003959
      dz2     :     0.003107  d :     0.013155
      dxz     :     0.003964
      dyz     :     0.002264
      dx2y2   :     0.002269
      dxy     :     0.001551
      f0      :     0.000101  f :     0.000379
      f+1     :     0.000070
      f-1     :     0.000106
      f+2     :     0.000053
      f-2     :     0.000025
      f+3     :     0.000011
      f-3     :     0.000013
 10 Aus       :     0.010584  s :     0.010584
      pz      :     0.005519  p :     0.020987
      px      :     0.011875
      py      :     0.003594
      dz2     :     0.003031  d :     0.014924
      dxz     :     0.001282
      dyz     :     0.002897
      dx2y2   :     0.002528
      dxy     :     0.005187
      f0      :     0.000010  f :     0.000215
      f+1     :     0.000033
      f-1     :     0.000030
      f+2     :     0.000006
      f-2     :     0.000024
      f+3     :     0.000044
      f-3     :     0.000067
 11 Aus       :     0.002298  s :     0.002298
      pz      :     0.005552  p :     0.009748
      px      :     0.003357
      py      :     0.000840
      dz2     :     0.000959  d :     0.010152
      dxz     :     0.000569
      dyz     :     0.003844
      dx2y2   :     0.001505
      dxy     :     0.003274
      f0      :     0.000021  f :     0.000142
      f+1     :     0.000004
      f-1     :     0.000010
      f+2     :     0.000036
      f-2     :     0.000024
      f+3     :     0.000034
      f-3     :     0.000011
 12 Crs       :     0.001429  s :     0.001429
      pz      :     0.000843  p :     0.002276
      px      :     0.000818
      py      :     0.000615
      dz2     :     0.301607  d :     2.415016
      dxz     :     0.554508
      dyz     :     0.544645
      dx2y2   :     0.456710
      dxy     :     0.557545
      f0      :     0.000001  f :     0.000002
      f+1     :     0.000000
      f-1     :     0.000000
      f+2     :     0.000000
      f-2     :     0.000000
      f+3     :     0.000000
      f-3     :     0.000000


                      *****************************
                      * MAYER POPULATION ANALYSIS *
                      *****************************

  NA   - Mulliken gross atomic population
  ZA   - Total nuclear charge
  QA   - Mulliken gross atomic charge
  VA   - Mayer's total valence
  BVA  - Mayer's bonded valence
  FA   - Mayer's free valence

  ATOM       NA         ZA         QA         VA         BVA        FA
  0 Au    18.7264    19.0000     0.2736     1.4105     1.3568     0.0537
  1 Au    18.7284    19.0000     0.2716     1.4176     1.3645     0.0531
  2 Au    18.6449    19.0000     0.3551     1.3939     1.3635     0.0303
  3 Au    18.8012    19.0000     0.1988     1.5419     1.5079     0.0341
  4 Au    18.7214    19.0000     0.2786     1.1842     1.1745     0.0097
  5 Au    18.5234    19.0000     0.4766     1.3112     1.2656     0.0456
  6 Au    18.6648    19.0000     0.3352     1.2149     1.2077     0.0072
  7 Au    18.5294    19.0000     0.4706     1.3195     1.2730     0.0464
  8 Au    18.6628    19.0000     0.3372     1.2418     1.2028     0.0390
  9 Au    18.6450    19.0000     0.3550     1.3930     1.3632     0.0298
 10 Au    18.7965    19.0000     0.2035     1.5318     1.4978     0.0340
 11 Au    18.6647    19.0000     0.3353     1.2190     1.2121     0.0070
 12 Cr    27.8912    24.0000    -3.8912     8.5414     4.4832     4.0582

  Mayer bond orders larger than 0.100000
B(  0-Au,  1-Au) :   0.1133 B(  0-Au,  2-Au) :   0.2625 B(  0-Au,  3-Au) :   0.1679 
B(  0-Au,  4-Au) :   0.1629 B(  0-Au, 12-Cr) :   0.3992 B(  1-Au,  4-Au) :   0.1650 
B(  1-Au,  9-Au) :   0.2654 B(  1-Au, 10-Au) :   0.1651 B(  1-Au, 12-Cr) :   0.3980 
B(  2-Au,  5-Au) :   0.1148 B(  2-Au,  7-Au) :   0.1007 B(  2-Au, 11-Au) :   0.2976 
B(  2-Au, 12-Cr) :   0.4023 B(  3-Au,  4-Au) :   0.2421 B(  3-Au,  5-Au) :   0.1764 
B(  3-Au,  8-Au) :   0.1977 B(  3-Au, 10-Au) :   0.1031 B(  3-Au, 12-Cr) :   0.4223 
B(  4-Au, 10-Au) :   0.2421 B(  4-Au, 12-Cr) :   0.3645 B(  5-Au,  8-Au) :   0.1764 
B(  5-Au, 11-Au) :   0.2591 B(  5-Au, 12-Cr) :   0.3113 B(  6-Au,  7-Au) :   0.2625 
B(  6-Au,  9-Au) :   0.2930 B(  6-Au, 11-Au) :   0.1269 B(  6-Au, 12-Cr) :   0.3295 
B(  7-Au,  8-Au) :   0.1781 B(  7-Au,  9-Au) :   0.1142 B(  7-Au, 10-Au) :   0.1772 
B(  7-Au, 12-Cr) :   0.3119 B(  8-Au, 10-Au) :   0.1955 B(  8-Au, 12-Cr) :   0.3890 
B(  9-Au, 12-Cr) :   0.4044 B( 10-Au, 12-Cr) :   0.4239 B( 11-Au, 12-Cr) :   0.3267 



-------------------------------------------------------------
 Forming the transition density       ... done in 0.022492 sec
-------------------------------------------------------------



==========================================
CASSCF UV, CD spectra and dipole moments
==========================================
-------------------
ABSORPTION SPECTRUM
-------------------

Center of mass           = ( 14.4399, 15.5188, 14.9786)
Nuclear contribution to the dipole moment =    -4.639253,  -15.326863,   -3.214504 au

Calculating the Dipole integrals                  ... done
Transforming integrals                            ... done
Calculating the Linear Momentum integrals         ... done
Transforming integrals                            ... done
Calculating the Angular Momentum integrals        ... done
Transforming integrals                            ... done

------------------------------------------------------------------------------------------
                                ABSORPTION SPECTRUM
------------------------------------------------------------------------------------------
  States           Energy   Wavelength   fosc          T2        TX         TY        TZ  
                   (cm-1)     (nm)                   (D**2)      (D)        (D)       (D) 
------------------------------------------------------------------------------------------
  0( 0)-> 1( 0) 5   10259.9    974.7   0.000210343   0.04354   0.15799  -0.01967  -0.13486
  0( 0)-> 2( 0) 5   13641.5    733.1   0.003292656   0.51255  -0.54120   0.06434   0.46423
  0( 0)-> 3( 0) 5   18181.4    550.0   0.000008772   0.00102  -0.01736  -0.00394   0.02660
  0( 0)-> 4( 0) 5   18342.8    545.2   0.000781302   0.09045  -0.19591   0.00931  -0.22799
------------------------------------------------------------------------------------------



------------------------------------------------------------------------------
                             CD SPECTRUM
------------------------------------------------------------------------------
      States        Energy   Wavelength   R*T        RX        RY        RZ   
                    (cm-1)      (nm)   (1e40*sgs)   (au)      (au)      (au)  
------------------------------------------------------------------------------
  0( 0)-> 1( 0) 5   10259.9    974.7     0.07378  -0.06663  -0.47054  -0.01236
  0( 0)-> 2( 0) 5   13641.5    733.1     0.01579  -0.15823   0.01357  -0.18616
  0( 0)-> 3( 0) 5   18181.4    550.0    -0.03194  -0.02551  -0.01296  -0.02504
  0( 0)-> 4( 0) 5   18342.8    545.2     0.04575   0.05591  -0.00640  -0.04939
------------------------------------------------------------------------------

------------------------------------------------------------------------------
                                 DIPOLE MOMENTS
------------------------------------------------------------------------------
  Root  Block           TX        TY        TZ           |T|
                      (Debye)   (Debye)   (Debye)      (Debye)
------------------------------------------------------------------------------
    0    0            0.13728  -1.08494   0.31559      1.13821

--------------
CASSCF TIMINGS
--------------

Total time                       ...     1772.8 sec
Sum of individual times          ...     1768.6 sec ( 99.8%)

Calculation of AO operators
   F(Core) operator              ...      869.9 sec ( 49.1%)
   G(Act) operator               ...      834.8 sec ( 47.1%)
   J(AO) operators               ...        0.0 sec (  0.0%)
Calculation of MO transformed quantities
   J(MO) operators               ...       60.1 sec (  3.4%)
   (pq|rs) integrals             ...        0.0 sec (  0.0%)
   AO->MO one electron integrals ...        0.5 sec (  0.0%)
Configuration interaction steps
   CI-setup phase                ...        0.0 sec (  0.0%)
   CI-solution phase             ...        0.4 sec (  0.0%)
   Generation of densities       ...        0.0 sec (  0.0%)
Orbital improvement steps
   Orbital gradient              ...        0.1 sec (  0.0%)
   O(1) converger                ...        2.8 sec (  0.2%)
Properties                       ...        0.0 sec (  0.0%)
   SOC integral calculation      ...        0.0 sec (  0.0%)
   SSC RMEs (incl. integrals)    ...        0.0 sec (  0.0%)
   SOC RMEs                      ...        0.0 sec (  0.0%)

Maximum memory used throughout the entire CASSCF-calculation: 311.3 MB

-------------------------   --------------------
FINAL SINGLE POINT ENERGY     -2660.862705662533
-------------------------   --------------------


                            ***************************************
                            *     ORCA property calculations      *
                            ***************************************

                                    ---------------------
                                    Active property flags
                                    ---------------------
   (+) Dipole Moment


------------------------------------------------------------------------------
                       ORCA ELECTRIC PROPERTIES CALCULATION
------------------------------------------------------------------------------

Dipole Moment Calculation                       ... on
Quadrupole Moment Calculation                   ... off
Polarizability Calculation                      ... off
GBWName                                         ... casscf.gbw
Electron density                                ... casscf.scfp
The origin for moment calculation is the CENTER OF MASS  = (14.439930, 15.518838 14.978620)

-------------
DIPOLE MOMENT
-------------
                                X             Y             Z
Electronic contribution:      4.85710      15.56596       3.44112
Nuclear contribution   :     -4.63925     -15.32686      -3.21450
                        -----------------------------------------
Total Dipole Moment    :      0.21784       0.23910       0.22662
                        -----------------------------------------
Magnitude (a.u.)       :      0.39494
Magnitude (Debye)      :      1.00386



--------------------
Rotational spectrum 
--------------------
 
Rotational constants in cm-1:     0.001526     0.001215     0.001078 
Rotational constants in MHz :    45.734362    36.438065    32.326913 

 Dipole components along the rotational axes: 
x,y,z [a.u.] :     0.164151     0.000279     0.359212 
x,y,z [Debye]:     0.417239     0.000709     0.913043 

 

Timings for individual modules:

Sum of individual times         ...     1784.154 sec (=  29.736 min)
GTO integral calculation        ...        6.232 sec (=   0.104 min)   0.3 %
SCF iterations                  ...        2.576 sec (=   0.043 min)   0.1 %
CASSCF iterations               ...     1775.345 sec (=  29.589 min)  99.5 %
                             ****ORCA TERMINATED NORMALLY****
TOTAL RUN TIME: 0 days 0 hours 29 minutes 44 seconds 606 msec
