
                                 *****************
                                 * O   R   C   A *
                                 *****************

                                            #,                                       
                                            ###                                      
                                            ####                                     
                                            #####                                    
                                            ######                                   
                                           ########,                                 
                                     ,,################,,,,,                         
                               ,,#################################,,                 
                          ,,##########################################,,             
                       ,#########################################, ''#####,          
                    ,#############################################,,   '####,        
                  ,##################################################,,,,####,       
                ,###########''''           ''''###############################       
              ,#####''   ,,,,##########,,,,          '''####'''          '####       
            ,##' ,,,,###########################,,,                        '##       
           ' ,,###''''                  '''############,,,                           
         ,,##''                                '''############,,,,        ,,,,,,###''
      ,#''                                            '''#######################'''  
     '                                                          ''''####''''         
             ,#######,   #######,   ,#######,      ##                                
            ,#'     '#,  ##    ##  ,#'     '#,    #''#        ######   ,####,        
            ##       ##  ##   ,#'  ##            #'  '#       #        #'  '#        
            ##       ##  #######   ##           ,######,      #####,   #    #        
            '#,     ,#'  ##    ##  '#,     ,#' ,#      #,         ##   #,  ,#        
             '#######'   ##     ##  '#######'  #'      '#     #####' # '####'        



                  #######################################################
                  #                        -***-                        #
                  #          Department of theory and spectroscopy      #
                  #    Directorship and core code : Frank Neese         #
                  #        Max Planck Institute fuer Kohlenforschung    #
                  #                Kaiser Wilhelm Platz 1               #
                  #                 D-45470 Muelheim/Ruhr               #
                  #                      Germany                        #
                  #                                                     #
                  #                  All rights reserved                #
                  #                        -***-                        #
                  #######################################################


                         Program Version 5.0.3 -  RELEASE  -


 With contributions from (in alphabetic order):
   Daniel Aravena         : Magnetic Suceptibility
   Michael Atanasov       : Ab Initio Ligand Field Theory (pilot matlab implementation)
   Alexander A. Auer      : GIAO ZORA, VPT2 properties, NMR spectrum
   Ute Becker             : Parallelization
   Giovanni Bistoni       : ED, misc. LED, open-shell LED, HFLD
   Martin Brehm           : Molecular dynamics
   Dmytro Bykov           : SCF Hessian
   Vijay G. Chilkuri      : MRCI spin determinant printing, contributions to CSF-ICE
   Dipayan Datta          : RHF DLPNO-CCSD density
   Achintya Kumar Dutta   : EOM-CC, STEOM-CC
   Dmitry Ganyushin       : Spin-Orbit,Spin-Spin,Magnetic field MRCI
   Miquel Garcia          : C-PCM and meta-GGA Hessian, CC/C-PCM, Gaussian charge scheme
   Yang Guo               : DLPNO-NEVPT2, F12-NEVPT2, CIM, IAO-localization
   Andreas Hansen         : Spin unrestricted coupled pair/coupled cluster methods
   Benjamin Helmich-Paris : MC-RPA, TRAH-SCF, COSX integrals
   Lee Huntington         : MR-EOM, pCC
   Robert Izsak           : Overlap fitted RIJCOSX, COSX-SCS-MP3, EOM
   Marcus Kettner         : VPT2
   Christian Kollmar      : KDIIS, OOCD, Brueckner-CCSD(T), CCSD density, CASPT2, CASPT2-K
   Simone Kossmann        : Meta GGA functionals, TD-DFT gradient, OOMP2, MP2 Hessian
   Martin Krupicka        : Initial AUTO-CI
   Lucas Lang             : DCDCAS
   Marvin Lechner         : AUTO-CI (C++ implementation), FIC-MRCC
   Dagmar Lenk            : GEPOL surface, SMD
   Dimitrios Liakos       : Extrapolation schemes; Compound Job, initial MDCI parallelization
   Dimitrios Manganas     : Further ROCIS development; embedding schemes
   Dimitrios Pantazis     : SARC Basis sets
   Anastasios Papadopoulos: AUTO-CI, single reference methods and gradients
   Taras Petrenko         : DFT Hessian,TD-DFT gradient, ASA, ECA, R-Raman, ABS, FL, XAS/XES, NRVS
   Peter Pinski           : DLPNO-MP2, DLPNO-MP2 Gradient
   Christoph Reimann      : Effective Core Potentials
   Marius Retegan         : Local ZFS, SOC
   Christoph Riplinger    : Optimizer, TS searches, QM/MM, DLPNO-CCSD(T), (RO)-DLPNO pert. Triples
   Tobias Risthaus        : Range-separated hybrids, TD-DFT gradient, RPA, STAB
   Michael Roemelt        : Original ROCIS implementation
   Masaaki Saitow         : Open-shell DLPNO-CCSD energy and density
   Barbara Sandhoefer     : DKH picture change effects
   Avijit Sen             : IP-ROCIS
   Kantharuban Sivalingam : CASSCF convergence, NEVPT2, FIC-MRCI
   Bernardo de Souza      : ESD, SOC TD-DFT
   Georgi Stoychev        : AutoAux, RI-MP2 NMR, DLPNO-MP2 response
   Willem Van den Heuvel  : Paramagnetic NMR
   Boris Wezisla          : Elementary symmetry handling
   Frank Wennmohs         : Technical directorship


 We gratefully acknowledge several colleagues who have allowed us to
 interface, adapt or use parts of their codes:
   Stefan Grimme, W. Hujo, H. Kruse, P. Pracht,  : VdW corrections, initial TS optimization,
                  C. Bannwarth, S. Ehlert          DFT functionals, gCP, sTDA/sTD-DF
   Ed Valeev, F. Pavosevic, A. Kumar             : LibInt (2-el integral package), F12 methods
   Garnet Chan, S. Sharma, J. Yang, R. Olivares  : DMRG
   Ulf Ekstrom                                   : XCFun DFT Library
   Mihaly Kallay                                 : mrcc  (arbitrary order and MRCC methods)
   Jiri Pittner, Ondrej Demel                    : Mk-CCSD
   Frank Weinhold                                : gennbo (NPA and NBO analysis)
   Christopher J. Cramer and Donald G. Truhlar   : smd solvation model
   Lars Goerigk                                  : TD-DFT with DH, B97 family of functionals
   V. Asgeirsson, H. Jonsson                     : NEB implementation
   FAccTs GmbH                                   : IRC, NEB, NEB-TS, DLPNO-Multilevel, CI-OPT
                                                   MM, QMMM, 2- and 3-layer-ONIOM, Crystal-QMMM,
                                                   LR-CPCM, SF, NACMEs, symmetry and pop. for TD-DFT,
                                                   nearIR, NL-DFT gradient (VV10), updates on ESD,
                                                   ML-optimized integration grids
   S Lehtola, MJT Oliveira, MAL Marques          : LibXC Library
   Liviu Ungur et al                             : ANISO software


 Your calculation uses the libint2 library for the computation of 2-el integrals
 For citations please refer to: http://libint.valeyev.net

 Your ORCA version has been built with support for libXC version: 5.1.0
 For citations please refer to: https://tddft.org/programs/libxc/

 This ORCA versions uses:
   CBLAS   interface :  Fast vector & matrix operations
   LAPACKE interface :  Fast linear algebra routines
   SCALAPACK package :  Parallel linear algebra routines
   Shared memory     :  Shared parallel matrices
   BLAS/LAPACK       :  OpenBLAS 0.3.15  USE64BITINT DYNAMIC_ARCH NO_AFFINITY Haswell SINGLE_THREADED
        Core in use  :  Haswell
   Copyright (c) 2011-2014, The OpenBLAS Project




***************************************
The coordinates will be read from file: pbe.xyz
***************************************


================================================================================

cite the ECPs for Au [Def2-ECP] as follows:
Ce-Yb(ecp-28): M. Dolg, H. Stoll, H.Preuss, J. Chem. Phys., 1989, 90, 1730-1734.
Y-Cd(ecp-28), Hf-Hg(ecp-46): D. Andrae,U. Haeussermann, M. Dolg, H. Stoll, H. Preuss, Theor. Chim. Acta, 1990, 77, 123-141.
In-Sb(ecp-28), Tl-Bi(ecp-46): B. Metz, H. Stoll, M. Dolg, J. Chem. Phys., 2000, 113, 2563-2569.
Te-Xe(ecp-28), Po-Rn(ecp-46): K. A. Peterson, D. Figgen, E. Goll, H. Stoll, M. Dolg, J. Chem. Phys., 2003, 119, 11113-11123.
Rb(ecp-28), Cs(ecp-46): T. Leininger, A. Nicklass, W. Kuechle, H. Stoll, M. Dolg, A. Bergner, Chem. Phys. Lett., 1996, 255, 274-280.
Sr(ecp-28), Ba(ecp-46): M. Kaupp, P. V. Schleyer, H. Stoll and H. Preuss, J. Chem. Phys., 1991, 94, 1360-1366.
La(ecp-46): M. Dolg, H. Stoll, A. Savin, H. Preuss, Theor. Chim. Acta, 1989, 75, 173-194.
Lu(ecp-28): X. Cao, M. Dolg, J. Chem. Phys., 2001, 115, 7348-7355.

ECP parameters for Au [Def2-ECP] have been obtained from:
TURBOMOLE (7.0.2)

----- Orbital basis set information -----
Your calculation utilizes the basis: def2-TZVP
   F. Weigend and R. Ahlrichs, Phys. Chem. Chem. Phys. 7, 3297 (2005).

----- AuxJ basis set information -----
Your calculation utilizes the auxiliary basis: def2/J
   F. Weigend, Phys. Chem. Chem. Phys. 8, 1057 (2006).

----- AuxC basis set information -----
Your calculation utilizes the auxiliary basis: def2-TZVP/C
  H-La, Hf-Rn : A. Hellweg, C. Hattig, S. Hofener and W. Klopper, Theor. Chem. Acc. 117, 587 (2007).
        Ce-Lu : J. Chmela and M. E. Harding, Mol. Phys. (2018).

================================================================================
                                        WARNINGS
                       Please study these warnings very carefully!
================================================================================


IMPORTANT NOTE: CASSCF must signal convergence for a subsequent CASPT2/NEVPT2! 
                Set maxiter=1 to run CASPT2/NEVPT2 with arbitrary orbitals.


INFO   : the flag for use of the SHARK integral package has been found!

================================================================================
                                       INPUT FILE
================================================================================
NAME = nevpt2.inp
|  1> !SC-NEVPT2 def2-TZVP def2-TZVP/C
|  2> !MOREAD RIJCOSX def2/J
|  3> %maxcore 4000
|  4> %moinp "casscf.gbw"
|  5> %pal nprocs 8 end 
|  6> 
|  7> %casscf
|  8>  mult 5,3
|  9>  bweight 1,1
| 10>  nroots 5,45
| 11>  nel 6
| 12>  norb 5
| 13>  ptsettings
| 14>   d4tpre 1e-14 # default = 1e-10
| 15>   d3tpre 1e-14
| 16>  end
| 17>  rel           
| 18>    dosoc true   
| 19>    gtensor true 
| 20>  end           
| 21> end
| 22> 
| 23> 
| 24> *xyzfile 0 5 pbe.xyz
| 25> 
| 26> 
| 27>                          ****END OF INPUT****
================================================================================

                       ****************************
                       * Single Point Calculation *
                       ****************************

---------------------------------
CARTESIAN COORDINATES (ANGSTROEM)
---------------------------------
  Au     5.328275    9.567976    7.323774
  Au     7.575423    9.303226    5.417949
  Au     4.960829    7.143365    8.353148
  Au     7.025797   10.230007    9.396678
  Au     7.242756   11.630786    6.996804
  Au     6.867947    7.722371   10.467255
  Au     8.770025    5.000649    7.557753
  Au    10.176458    7.346608    7.630232
  Au     9.348319    8.761463    9.849047
  Au     8.300031    6.746013    5.494392
  Au     9.448486    9.961889    7.335872
  Au     6.685174    5.245023    9.316887
  Cr     7.511962    7.784978    7.836740

----------------------------
CARTESIAN COORDINATES (A.U.)
----------------------------
  NO LB      ZA    FRAG     MASS         X           Y           Z
   0 Au   19.0000*   0   196.966   10.068980   18.080854   13.839927
   1 Au   19.0000*   0   196.966   14.315474   17.580550   10.238441
   2 Au   19.0000*   0   196.966    9.374609   13.499004   15.785162
   3 Au   19.0000*   0   196.966   13.276833   19.331911   17.757148
   4 Au   19.0000*   0   196.966   13.686825   21.979000   13.222043
   5 Au   19.0000*   0   196.966   12.978540   14.593166   19.780245
   6 Au   19.0000*   0   196.966   16.572945    9.449856   14.282083
   7 Au   19.0000*   0   196.966   19.230719   13.883076   14.419049
   8 Au   19.0000*   0   196.966   17.665763   16.556766   18.612001
   9 Au   19.0000*   0   196.966   15.684786   12.748117   10.382896
  10 Au   19.0000*   0   196.966   17.855051   18.825241   13.862788
  11 Au   19.0000*   0   196.966   12.633148    9.911657   17.606365
  12 Cr   24.0000    0    52.000   14.195552   14.711477   14.809292
* core charge reduced due to ECP

--------------------------------
INTERNAL COORDINATES (ANGSTROEM)
--------------------------------
 Au     0   0   0     0.000000000000     0.00000000     0.00000000
 Au     1   0   0     2.958366491041     0.00000000     0.00000000
 Au     1   2   0     2.659579453926   105.82492017     0.00000000
 Au     1   2   3     2.759854993406    92.18493762    91.39204822
 Au     4   1   2     2.787229607275    61.42720712    51.14033240
 Au     4   1   2     2.731169969168    92.21341045   257.69605243
 Au     6   4   1     4.414846725855   106.42780015    66.06825040
 Au     7   6   4     2.736207679472    71.06049402    38.01890604
 Au     8   7   6     2.758762374598   107.86165638    13.33614764
 Au     2   1   3     2.658992241067   105.93483699     0.45801500
 Au     8   7   6     2.730620041635   132.94321370   306.63333666
 Au     6   4   1     2.737517727015   132.06954299    36.06042470
 Cr     3   1   2     2.680788063109    64.89824895    35.43654639

---------------------------
INTERNAL COORDINATES (A.U.)
---------------------------
 Au     0   0   0     0.000000000000     0.00000000     0.00000000
 Au     1   0   0     5.590502471837     0.00000000     0.00000000
 Au     1   2   0     5.025876799324   105.82492017     0.00000000
 Au     1   2   3     5.215370106873    92.18493762    91.39204822
 Au     4   1   2     5.267100630107    61.42720712    51.14033240
 Au     4   1   2     5.161163266918    92.21341045   257.69605243
 Au     6   4   1     8.342851235104   106.42780015    66.06825040
 Au     7   6   4     5.170683159734    71.06049402    38.01890604
 Au     8   7   6     5.213305356556   107.86165638    13.33614764
 Au     2   1   3     5.024767127838   105.93483699     0.45801500
 Au     8   7   6     5.160124054486   132.94321370   306.63333666
 Au     6   4   1     5.173158790814   132.06954299    36.06042470
 Cr     3   1   2     5.065955262361    64.89824895    35.43654639

---------------------
BASIS SET INFORMATION
---------------------
There are 2 groups of distinct atoms

 Group   1 Type Au  : 8s7p6d1f contracted to 6s4p3d1f pattern {311111/4111/411/1}
 Group   2 Type Cr  : 17s11p7d1f contracted to 6s4p4d1f pattern {842111/6311/4111/1}

Atom   0Au   basis set group =>   1
Atom   1Au   basis set group =>   1
Atom   2Au   basis set group =>   1
Atom   3Au   basis set group =>   1
Atom   4Au   basis set group =>   1
Atom   5Au   basis set group =>   1
Atom   6Au   basis set group =>   1
Atom   7Au   basis set group =>   1
Atom   8Au   basis set group =>   1
Atom   9Au   basis set group =>   1
Atom  10Au   basis set group =>   1
Atom  11Au   basis set group =>   1
Atom  12Cr   basis set group =>   2
---------------------------------
AUXILIARY/J BASIS SET INFORMATION
---------------------------------
There are 2 groups of distinct atoms

 Group   1 Type Au  : 11s5p5d3f3g contracted to 8s5p5d2f3g pattern {41111111/11111/11111/21/111}
 Group   2 Type Cr  : 19s5p5d3f3g contracted to 8s5p5d2f3g pattern {121111111/11111/11111/21/111}

Atom   0Au   basis set group =>   1
Atom   1Au   basis set group =>   1
Atom   2Au   basis set group =>   1
Atom   3Au   basis set group =>   1
Atom   4Au   basis set group =>   1
Atom   5Au   basis set group =>   1
Atom   6Au   basis set group =>   1
Atom   7Au   basis set group =>   1
Atom   8Au   basis set group =>   1
Atom   9Au   basis set group =>   1
Atom  10Au   basis set group =>   1
Atom  11Au   basis set group =>   1
Atom  12Cr   basis set group =>   2
---------------------------------
AUXILIARY/C BASIS SET INFORMATION
---------------------------------
There are 2 groups of distinct atoms

 Group   1 Type Au  : 8s8p7d5f3g2h contracted to 8s8p7d5f3g2h pattern {11111111/11111111/1111111/11111/111/11}
 Group   2 Type Cr  : 11s9p8d6f5g2h contracted to 9s8p8d6f5g2h pattern {311111111/21111111/11111111/111111/11111/11}

Atom   0Au   basis set group =>   1
Atom   1Au   basis set group =>   1
Atom   2Au   basis set group =>   1
Atom   3Au   basis set group =>   1
Atom   4Au   basis set group =>   1
Atom   5Au   basis set group =>   1
Atom   6Au   basis set group =>   1
Atom   7Au   basis set group =>   1
Atom   8Au   basis set group =>   1
Atom   9Au   basis set group =>   1
Atom  10Au   basis set group =>   1
Atom  11Au   basis set group =>   1
Atom  12Cr   basis set group =>   2
-------------------------
ECP PARAMETER INFORMATION
-------------------------

 Group 1, Type Au ECP Def2-ECP (replacing 60 core electrons, lmax=3)

Atom   0Au   ECP group =>   1
Atom   1Au   ECP group =>   1
Atom   2Au   ECP group =>   1
Atom   3Au   ECP group =>   1
Atom   4Au   ECP group =>   1
Atom   5Au   ECP group =>   1
Atom   6Au   ECP group =>   1
Atom   7Au   ECP group =>   1
Atom   8Au   ECP group =>   1
Atom   9Au   ECP group =>   1
Atom  10Au   ECP group =>   1
Atom  11Au   ECP group =>   1



           ************************************************************
           *        Program running with 8 parallel MPI-processes     *
           *              working on a common directory               *
           ************************************************************
------------------------------------------------------------------------------
                           ORCA GTO INTEGRAL CALCULATION
                           -- RI-GTO INTEGRALS CHOSEN --
------------------------------------------------------------------------------
------------------------------------------------------------------------------
                   ___                                                        
                  /   \      - P O W E R E D   B Y -                         
                 /     \                                                     
                 |  |  |   _    _      __       _____    __    __             
                 |  |  |  | |  | |    /  \     |  _  \  |  |  /  |          
                  \  \/   | |  | |   /    \    | | | |  |  | /  /          
                 / \  \   | |__| |  /  /\  \   | |_| |  |  |/  /          
                |  |  |   |  __  | /  /__\  \  |    /   |      \           
                |  |  |   | |  | | |   __   |  |    \   |  |\   \          
                \     /   | |  | | |  |  |  |  | |\  \  |  | \   \       
                 \___/    |_|  |_| |__|  |__|  |_| \__\ |__|  \__/        
                                                                              
                      - O R C A' S   B I G   F R I E N D -                    
                                      &                                       
                       - I N T E G R A L  F E E D E R -                       
                                                                              
 v1 FN, 2020, v2 2021                                                         
------------------------------------------------------------------------------


Reading SHARK input file nevpt2.SHARKINP.tmp ... ok
----------------------
SHARK INTEGRAL PACKAGE
----------------------

Number of atoms                             ...     13
Number of basis functions                   ...    525
Number of shells                            ...    183
Maximum angular momentum                    ...      3
Integral batch strategy                     ... SHARK/LIBINT Hybrid
RI-J (if used) integral strategy            ... SPLIT-RIJ (Revised 2003 algorithm where possible)
Printlevel                                  ...      1
Contraction scheme used                     ... SEGMENTED contraction
Coulomb Range Separation                    ... NOT USED
Exchange Range Separation                   ... NOT USED
Finite Nucleus Model                        ... NOT USED
Auxiliary Coulomb fitting basis             ... AVAILABLE
   # of basis functions in Aux-J            ...   1157
   # of shells in Aux-J                     ...    299
   Maximum angular momentum in Aux-J        ...      4
Auxiliary J/K fitting basis                 ... NOT available
Auxiliary Correlation fitting basis         ... AVAILABLE
   # of basis functions in Aux-C            ...   1994
   # of shells in Aux-C                     ...    434
   Maximum angular momentum in Aux-C        ...      5
Auxiliary 'external' fitting basis          ... NOT available
Integral threshold                          ...     1.000000e-10
Primitive cut-off                           ...     1.000000e-11
Primitive pair pre-selection threshold      ...     1.000000e-11

Calculating pre-screening integrals         ... done (  0.1 sec) Dimension = 183
Organizing shell pair data                  ... done (  0.2 sec)
Shell pair information
Total number of shell pairs                 ...     16836
Shell pairs after pre-screening             ...     13631
Total number of primitive shell pairs       ...     45389
Primitive shell pairs kept                  ...     26735
          la=0 lb=0:   2135 shell pairs
          la=1 lb=0:   3094 shell pairs
          la=1 lb=1:   1177 shell pairs
          la=2 lb=0:   2700 shell pairs
          la=2 lb=1:   1920 shell pairs
          la=2 lb=2:    792 shell pairs
          la=3 lb=0:    714 shell pairs
          la=3 lb=1:    552 shell pairs
          la=3 lb=2:    472 shell pairs
          la=3 lb=3:     75 shell pairs

Calculating one electron integrals          ... done (  0.0 sec)
Calculating ECP integrals                   ... done (  6.4 sec)
Calculating RI/J V-Matrix + Cholesky decomp.... done (  0.0 sec)
Calculating RI/C V-Matrix + Cholesky decomp.... done (  0.1 sec)
Calculating Nuclear repulsion               ... done (  0.0 sec) ENN=   4271.081453445378 Eh

SHARK setup successfully completed in   7.1 seconds

Maximum memory used throughout the entire GTOINT-calculation: 35.3 MB


           ************************************************************
           *        Program running with 8 parallel MPI-processes     *
           *              working on a common directory               *
           ************************************************************
-------------------------------------------------------------------------------
                                 ORCA SCF
-------------------------------------------------------------------------------

------------
SCF SETTINGS
------------
Hamiltonian:
 Ab initio Hamiltonian  Method          .... Hartree-Fock(GTOs)
 RI-approximation to the Coulomb term is turned on
   Number of AuxJ basis functions       .... 1157
   RIJ-COSX (HFX calculated with COS-X)).... on


General Settings:
 Integral files         IntName         .... nevpt2
 Hartree-Fock type      HFTyp           .... CASSCF
 Total Charge           Charge          ....    0
 Multiplicity           Mult            ....    5
 Number of Electrons    NEL             ....  252
 Basis Dimension        Dim             ....  525
 Nuclear Repulsion      ENuc            ....   4271.0814534454 Eh


Diagonalization of the overlap matrix:
Smallest eigenvalue                        ... 2.281e-04
Time for diagonalization                   ...    0.051 sec
Threshold for overlap eigenvalues          ... 1.000e-08
Number of eigenvalues below threshold      ... 0
Time for construction of square roots      ...    0.030 sec
Total time needed                          ...    0.082 sec

---------------------
INITIAL GUESS: MOREAD
---------------------
Guess MOs are being read from file: casscf.gbw
Input Geometry matches current geometry (good)
Input basis set matches current basis set (good)
MOs were renormalized
Gram-Schmidt orthogonalization of all MOs with pivot on actives
                      ------------------
                      INITIAL GUESS DONE (   1.3 sec)
                      ------------------
--------------------
COSX GRID GENERATION
--------------------

GRIDX 1
-------
General Integration Accuracy     IntAcc      ... 3.816
Radial Grid Type                 RadialGrid  ... OptM3 with GC (2021)
Angular Grid (max. ang.)         AngularGrid ... 1 (Lebedev-50)
Angular grid pruning method      GridPruning ... 4 (adaptive)
Weight generation scheme         WeightScheme... Becke
Basis function cutoff            BFCut       ... 1.0000e-10
Integration weight cutoff        WCut        ... 1.0000e-14
Angular grids for H and He will be reduced by one unit
Partially contracted basis set               ... on
Rotationally invariant grid construction     ... off

Total number of grid points                  ...    15201
Total number of batches                      ...      245
Average number of points per batch           ...       62
Average number of grid points per atom       ...     1169
UseSFitting                                  ... on

GRIDX 2
-------
General Integration Accuracy     IntAcc      ... 4.020
Radial Grid Type                 RadialGrid  ... OptM3 with GC (2021)
Angular Grid (max. ang.)         AngularGrid ... 2 (Lebedev-110)
Angular grid pruning method      GridPruning ... 4 (adaptive)
Weight generation scheme         WeightScheme... Becke
Basis function cutoff            BFCut       ... 1.0000e-10
Integration weight cutoff        WCut        ... 1.0000e-14
Angular grids for H and He will be reduced by one unit
Partially contracted basis set               ... on
Rotationally invariant grid construction     ... off

Total number of grid points                  ...    46118
Total number of batches                      ...      728
Average number of points per batch           ...       63
Average number of grid points per atom       ...     3548
UseSFitting                                  ... on

GRIDX 3
-------
General Integration Accuracy     IntAcc      ... 4.338
Radial Grid Type                 RadialGrid  ... OptM3 with GC (2021)
Angular Grid (max. ang.)         AngularGrid ... 3 (Lebedev-194)
Angular grid pruning method      GridPruning ... 4 (adaptive)
Weight generation scheme         WeightScheme... Becke
Basis function cutoff            BFCut       ... 1.0000e-10
Integration weight cutoff        WCut        ... 1.0000e-14
Angular grids for H and He will be reduced by one unit
Partially contracted basis set               ... on
Rotationally invariant grid construction     ... off

Total number of grid points                  ...    84363
Total number of batches                      ...     1325
Average number of points per batch           ...       63
Average number of grid points per atom       ...     6489
UseSFitting                                  ... on

Time for X-Grid setup             =    0.948 sec



 ... the calculation is a CASSCF calculation -I'm leaving here GOOD LUCK!!!



           ************************************************************
           *        Program running with 8 parallel MPI-processes     *
           *              working on a common directory               *
           ************************************************************
-------------------------------------------------------------------------------
                              ORCA-CASSCF
-------------------------------------------------------------------------------

Setting up the integral package       ... done
Setting up the integral package (RI)  ... done
Building the CAS space                ... done (5 configurations for Mult=5)
Building the CAS space                ... done (35 configurations for Mult=3)

 CASSCF (estimated) memory needed     ... 113.4 MB
 NEVPT2 (estimated) memory needed     ... 373.7 MB


SYSTEM-SPECIFIC SETTINGS:
Number of active electrons          ...    6
Number of active orbitals           ...    5
Total number of electrons           ...  252
Total number of orbitals            ...  525
Total number aux. functions         ... 1994

Determined orbital ranges:
   Internal       0 -  122 ( 123 orbitals)
   Active       123 -  127 (   5 orbitals)
   External     128 -  524 ( 397 orbitals)
Number of rotation parameters      ...  51431

CI-STEP:
CI strategy                         ... General CI
Number of multiplicity blocks       ...    2
BLOCK  1 WEIGHT=   0.5000
  Multiplicity                      ...    5
  #(Configurations)                 ...    5
  #(CSFs)                           ...    5
  #(Roots)                          ...    5
    ROOT=0 WEIGHT=    0.100000
    ROOT=1 WEIGHT=    0.100000
    ROOT=2 WEIGHT=    0.100000
    ROOT=3 WEIGHT=    0.100000
    ROOT=4 WEIGHT=    0.100000

BLOCK  2 WEIGHT=   0.5000
  Multiplicity                      ...    3
  #(Configurations)                 ...   35
  #(CSFs)                           ...   45
  #(Roots)                          ...   45
    ROOT=0 WEIGHT=    0.011111
    ROOT=1 WEIGHT=    0.011111
    ROOT=2 WEIGHT=    0.011111
    ROOT=3 WEIGHT=    0.011111
    ROOT=4 WEIGHT=    0.011111
    ROOT=5 WEIGHT=    0.011111
    ROOT=6 WEIGHT=    0.011111
    ROOT=7 WEIGHT=    0.011111
    ROOT=8 WEIGHT=    0.011111
    ROOT=9 WEIGHT=    0.011111
    ROOT=10 WEIGHT=    0.011111
    ROOT=11 WEIGHT=    0.011111
    ROOT=12 WEIGHT=    0.011111
    ROOT=13 WEIGHT=    0.011111
    ROOT=14 WEIGHT=    0.011111
    ROOT=15 WEIGHT=    0.011111
    ROOT=16 WEIGHT=    0.011111
    ROOT=17 WEIGHT=    0.011111
    ROOT=18 WEIGHT=    0.011111
    ROOT=19 WEIGHT=    0.011111
    ROOT=20 WEIGHT=    0.011111
    ROOT=21 WEIGHT=    0.011111
    ROOT=22 WEIGHT=    0.011111
    ROOT=23 WEIGHT=    0.011111
    ROOT=24 WEIGHT=    0.011111
    ROOT=25 WEIGHT=    0.011111
    ROOT=26 WEIGHT=    0.011111
    ROOT=27 WEIGHT=    0.011111
    ROOT=28 WEIGHT=    0.011111
    ROOT=29 WEIGHT=    0.011111
    ROOT=30 WEIGHT=    0.011111
    ROOT=31 WEIGHT=    0.011111
    ROOT=32 WEIGHT=    0.011111
    ROOT=33 WEIGHT=    0.011111
    ROOT=34 WEIGHT=    0.011111
    ROOT=35 WEIGHT=    0.011111
    ROOT=36 WEIGHT=    0.011111
    ROOT=37 WEIGHT=    0.011111
    ROOT=38 WEIGHT=    0.011111
    ROOT=39 WEIGHT=    0.011111
    ROOT=40 WEIGHT=    0.011111
    ROOT=41 WEIGHT=    0.011111
    ROOT=42 WEIGHT=    0.011111
    ROOT=43 WEIGHT=    0.011111
    ROOT=44 WEIGHT=    0.011111

  PrintLevel                        ...    1
  N(GuessMat)                       ...       512
  MaxDim(CI)                        ...        10
  MaxIter(CI)                       ...        64
  Energy Tolerance CI               ...  1.00e-08
  Residual Tolerance CI             ...  1.00e-08
  Shift(CI)                         ...  1.00e-04

INTEGRAL-TRANSFORMATION-STEP:
  Algorithm                         ... RI-MO

ORBITAL-IMPROVEMENT-STEP:
  Algorithm                         ... SuperCI(PT)
  Default Parametrization           ... CAYLEY
  Act-Act rotations                 ... depends on algorithm used

  Note: SuperCI(PT) will ignore FreezeIE, FreezeAct and FreezeGrad. In general Default settings are encouraged.
        In conjunction with ShiftUp, ShiftDn or GradScaling the performance of SuperCI(PT) is less optimal.  

  MaxRot                            ... 2.00e-01 
  Max. no of vectors (DIIS)         ... 15
  DThresh (cut-off) metric          ... 1.00e-06
  Switch step at gradient           ...  3.00e-02 
  Switch step at iteration          ...        50   
  Switch step to                    ... SuperCI(PT)    

SCF-SETTINGS:
  Incremental                       ... off
  RIJCOSX approximation             ... on
  UseFinalGrid                      ... on
  RI-JK approximation               ... off
  AO integral handling              ... DIRECT
  Integral Neglect Thresh           ...  1.00e-10
  Primitive cutoff TCut             ...  1.00e-11
  Energy convergence tolerance      ...  1.00e-07
  Orbital gradient convergence      ...  1.00e-03
  Max. number of iterations         ...        75  

PT2-SETTINGS:
  A PT2 calculation will be performed on top of the CASSCF wave function (PT2 = SC-NEVPT2)   
 CI step strategy                   ... General CI
  D4C handling                      ... on the fly 
  CI truncation for D4C at          ...  1.00e-14
  CI truncation for D3  at          ...  1.00e-14
  Orbitals                          ... canonical for each state 
  Last  frozen  orbital             ... 4
  First deleted orbital             ... 525
  RI Step                           ... store IJV(array) (MC_ONDISK during integral transformation) 

PROPERTIES-SETTINGS:
  Spin orbit coupling               ... true
  GTensor                           ... true
  QDPT diagonal energies            ... NEVPT2 energies 

FINAL ORBITALS:
  Active   Orbitals                 ... natural 
  Internal Orbitals                 ... canonical 
  External Orbitals                 ... canonical 

------------------
CAS-SCF ITERATIONS
------------------


MACRO-ITERATION   1: 
   --- Inactive Energy E0 = -2652.16700339 Eh
CI-ITERATION   0: 
 -2660.980191383   0.000000000000 (    0.00)
 -2660.933444003   0.000000000000
 -2660.918036290   0.000000000000
 -2660.897350868   0.000000000000
 -2660.896615581   0.000000000000
   CI-PROBLEM SOLVED
   DENSITIES MADE
CI-ITERATION   0: 
 -2660.926183281   0.000000000000 (    0.00)
 -2660.913841705   0.000000000000
 -2660.911031534   0.000000000000
 -2660.906848833   0.000000000000
 -2660.901237190   0.000000000000
 -2660.900609107   0.000000000000
 -2660.897025760   0.000000000000
 -2660.893409561   0.000000000000
 -2660.891842532   0.000000000000
 -2660.889032658   0.000000000000
 -2660.887479454   0.000000000000
 -2660.885876842   0.000000000000
 -2660.883057127   0.000000000000
 -2660.882934669   0.000000000000
 -2660.879049814   0.000000000000
 -2660.875894776   0.000000000000
 -2660.874823253   0.000000000000
 -2660.866896923   0.000000000000
 -2660.864452063   0.000000000000
 -2660.863525194   0.000000000000
 -2660.861358764   0.000000000000
 -2660.856435046   0.000000000000
 -2660.856312211   0.000000000000
 -2660.846913909   0.000000000000
 -2660.842971568   0.000000000000
 -2660.839722510   0.000000000000
 -2660.835248544   0.000000000000
 -2660.828827423   0.000000000000
 -2660.817996260   0.000000000000
 -2660.817895101   0.000000000000
 -2660.816320641   0.000000000000
 -2660.814846236   0.000000000000
 -2660.810600113   0.000000000000
 -2660.805725640   0.000000000000
 -2660.800527057   0.000000000000
 -2660.755056366   0.000000000000
 -2660.742256573   0.000000000000
 -2660.727731629   0.000000000000
 -2660.707175632   0.000000000000
 -2660.530358896   0.000000000000
 -2660.492603423   0.000000000000
 -2660.485577252   0.000000000000
 -2660.465341836   0.000000000000
 -2660.448151499   0.000000000000
 -2660.411760104   0.000000000000
   CI-PROBLEM SOLVED
   DENSITIES MADE

                 <<<<<<<<<<<<<<<<<<INITIAL CI STATE CHECK>>>>>>>>>>>>>>>>>>

BLOCK  1 MULT= 5 NROOTS= 5 
ROOT   0:  E=   -2660.9801913832 Eh
      0.88724 [     2]: 11211
      0.04829 [     0]: 11112
      0.04205 [     1]: 11121
      0.02140 [     3]: 12111
ROOT   1:  E=   -2660.9334440031 Eh  1.272 eV  10259.9 cm**-1
      0.88647 [     3]: 12111
      0.09408 [     0]: 11112
      0.01010 [     1]: 11121
      0.00934 [     2]: 11211
ROOT   2:  E=   -2660.9180362899 Eh  1.691 eV  13641.5 cm**-1
      0.94767 [     1]: 11121
      0.03459 [     2]: 11211
      0.01714 [     3]: 12111
ROOT   3:  E=   -2660.8973508683 Eh  2.254 eV  18181.4 cm**-1
      0.85609 [     0]: 11112
      0.07497 [     3]: 12111
      0.06725 [     2]: 11211
ROOT   4:  E=   -2660.8966155811 Eh  2.274 eV  18342.8 cm**-1
      0.99740 [     4]: 21111

BLOCK  2 MULT= 3 NROOTS=45 
ROOT   0:  E=   -2660.9261832813 Eh
      0.66264 [    18]: 12111
      0.07347 [    15]: 12012
      0.05581 [    10]: 11112
      0.05083 [    21]: 12210
      0.04406 [    20]: 12201
      0.03789 [    16]: 12021
      0.02440 [    13]: 11211
      0.01345 [     5]: 02211
      0.00956 [    11]: 11121
      0.00762 [     9]: 11022
      0.00405 [    12]: 11202
      0.00376 [    17]: 12102
ROOT   1:  E=   -2660.9138417046 Eh  0.336 eV   2708.7 cm**-1
      0.70429 [    11]: 11121
      0.05440 [     9]: 11022
      0.05274 [    14]: 11220
      0.03803 [    13]: 11211
      0.03587 [     5]: 02211
      0.02894 [     2]: 01221
      0.02645 [    16]: 12021
      0.02246 [     8]: 10221
      0.01221 [    31]: 21210
      0.00454 [     4]: 02121
      0.00311 [    18]: 12111
      0.00263 [     3]: 02112
ROOT   2:  E=   -2660.9110315339 Eh  0.412 eV   3325.4 cm**-1
      0.38837 [    12]: 11202
      0.27644 [    20]: 12201
      0.10832 [    13]: 11211
      0.04836 [    17]: 12102
      0.03804 [    18]: 12111
      0.02390 [    10]: 11112
      0.02372 [    28]: 21111
      0.02217 [    21]: 12210
      0.02104 [     7]: 10212
      0.01317 [     8]: 10221
      0.01013 [    11]: 11121
      0.00689 [    14]: 11220
      0.00337 [     6]: 10122
ROOT   3:  E=   -2660.9068488331 Eh  0.526 eV   4243.4 cm**-1
      0.55589 [    13]: 11211
      0.16287 [    21]: 12210
      0.07912 [    14]: 11220
      0.05717 [    18]: 12111
      0.04840 [    10]: 11112
      0.03315 [    12]: 11202
      0.01730 [    19]: 12120
      0.01092 [    11]: 11121
      0.00849 [    20]: 12201
      0.00588 [    29]: 21120
      0.00561 [    28]: 21111
      0.00333 [    15]: 12012
      0.00256 [    17]: 12102
ROOT   4:  E=   -2660.9012371896 Eh  0.679 eV   5475.0 cm**-1
      0.30942 [    31]: 21210
      0.19261 [    24]: 20211
      0.17562 [     5]: 02211
      0.12104 [     1]: 01212
      0.05834 [    28]: 21111
      0.03482 [    10]: 11112
      0.01501 [    29]: 21120
      0.01302 [    30]: 21201
      0.01108 [     4]: 02121
      0.01066 [    22]: 20112
      0.00920 [     0]: 01122
      0.00907 [    23]: 20121
      0.00757 [    34]: 22110
      0.00754 [     2]: 01221
      0.00587 [    11]: 11121
      0.00340 [    12]: 11202
ROOT   5:  E=   -2660.9006091070 Eh  0.696 eV   5612.9 cm**-1
      0.65451 [    13]: 11211
      0.06610 [    21]: 12210
      0.06190 [     7]: 10212
      0.04444 [    11]: 11121
      0.03979 [    10]: 11112
      0.03768 [    28]: 21111
      0.01678 [    20]: 12201
      0.01665 [     8]: 10221
      0.01033 [    18]: 12111
      0.00696 [     6]: 10122
      0.00671 [    12]: 11202
      0.00642 [    14]: 11220
      0.00514 [    19]: 12120
      0.00482 [    31]: 21210
      0.00430 [    25]: 21012
      0.00383 [     9]: 11022
      0.00323 [    30]: 21201
ROOT   6:  E=   -2660.8970257603 Eh  0.793 eV   6399.3 cm**-1
      0.35652 [    14]: 11220
      0.13292 [    20]: 12201
      0.11339 [    12]: 11202
      0.09227 [    13]: 11211
      0.08632 [     8]: 10221
      0.04242 [    11]: 11121
      0.04056 [    18]: 12111
      0.03976 [    21]: 12210
      0.03712 [    28]: 21111
      0.02010 [    10]: 11112
      0.01311 [     7]: 10212
      0.00437 [    29]: 21120
      0.00328 [    25]: 21012
      0.00316 [     3]: 02112
      0.00252 [    19]: 12120
ROOT   7:  E=   -2660.8934095605 Eh  0.892 eV   7193.0 cm**-1
      0.46442 [     5]: 02211
      0.11184 [     1]: 01212
      0.09393 [    31]: 21210
      0.08587 [    10]: 11112
      0.04457 [    18]: 12111
      0.04286 [     3]: 02112
      0.02645 [    11]: 11121
      0.02512 [     4]: 02121
      0.02016 [    24]: 20211
      0.01390 [     9]: 11022
      0.00912 [    13]: 11211
      0.00815 [    30]: 21201
      0.00602 [    21]: 12210
      0.00554 [    28]: 21111
      0.00523 [    19]: 12120
      0.00520 [    20]: 12201
      0.00485 [    16]: 12021
      0.00477 [    12]: 11202
      0.00475 [    29]: 21120
      0.00398 [     0]: 01122
      0.00260 [     7]: 10212
ROOT   8:  E=   -2660.8918425321 Eh  0.934 eV   7536.9 cm**-1
      0.36657 [    10]: 11112
      0.13561 [    30]: 21201
      0.11619 [     2]: 01221
      0.05569 [    31]: 21210
      0.05336 [    11]: 11121
      0.04766 [    28]: 21111
      0.04010 [    18]: 12111
      0.02957 [     5]: 02211
      0.02802 [    24]: 20211
      0.02630 [    12]: 11202
      0.01632 [    13]: 11211
      0.01292 [     7]: 10212
      0.01200 [     1]: 01212
      0.01053 [     9]: 11022
      0.00864 [     4]: 02121
      0.00770 [    27]: 21102
      0.00550 [    15]: 12012
      0.00354 [    33]: 22101
      0.00318 [     0]: 01122
      0.00292 [    29]: 21120
      0.00290 [     3]: 02112
ROOT   9:  E=   -2660.8890326581 Eh  1.011 eV   8153.6 cm**-1
      0.54621 [    28]: 21111
      0.07479 [    20]: 12201
      0.05476 [    21]: 12210
      0.05358 [    31]: 21210
      0.04413 [    26]: 21021
      0.04336 [    25]: 21012
      0.03729 [    30]: 21201
      0.02599 [     8]: 10221
      0.02496 [    24]: 20211
      0.01893 [    13]: 11211
      0.01783 [    32]: 22011
      0.01076 [    14]: 11220
      0.00765 [    11]: 11121
      0.00512 [     7]: 10212
      0.00488 [    18]: 12111
      0.00442 [    19]: 12120
      0.00315 [    17]: 12102
      0.00315 [     6]: 10122
      0.00305 [    12]: 11202
      0.00299 [    34]: 22110
      0.00262 [    10]: 11112
ROOT  10:  E=   -2660.8874794536 Eh  1.053 eV   8494.5 cm**-1
      0.56825 [    19]: 12120
      0.09409 [    11]: 11121
      0.05760 [    16]: 12021
      0.05196 [    18]: 12111
      0.04890 [    10]: 11112
      0.03839 [    17]: 12102
      0.03063 [    30]: 21201
      0.02354 [     2]: 01221
      0.01924 [    21]: 12210
      0.01354 [    14]: 11220
      0.01106 [    13]: 11211
      0.01067 [     6]: 10122
      0.00551 [     7]: 10212
      0.00511 [    20]: 12201
      0.00393 [    31]: 21210
      0.00392 [     9]: 11022
      0.00388 [     8]: 10221
ROOT  11:  E=   -2660.8858768416 Eh  1.097 eV   8846.2 cm**-1
      0.31827 [    30]: 21201
      0.19803 [    10]: 11112
      0.18121 [     2]: 01221
      0.09289 [    19]: 12120
      0.03028 [    18]: 12111
      0.02418 [     5]: 02211
      0.02333 [    28]: 21111
      0.02054 [    31]: 21210
      0.01700 [    27]: 21102
      0.01323 [    12]: 11202
      0.01284 [     9]: 11022
      0.01121 [    13]: 11211
      0.00979 [     0]: 01122
      0.00834 [    11]: 11121
      0.00784 [    33]: 22101
      0.00600 [    17]: 12102
      0.00517 [    24]: 20211
      0.00510 [     7]: 10212
      0.00369 [     6]: 10122
      0.00295 [    15]: 12012
ROOT  12:  E=   -2660.8830571274 Eh  1.174 eV   9465.1 cm**-1
      0.71886 [     4]: 02121
      0.07051 [    13]: 11211
      0.05992 [    33]: 22101
      0.03847 [     3]: 02112
      0.02047 [     2]: 01221
      0.01890 [     5]: 02211
      0.01237 [    28]: 21111
      0.01187 [    23]: 20121
      0.00927 [    27]: 21102
      0.00823 [    21]: 12210
      0.00459 [    11]: 11121
      0.00410 [    10]: 11112
      0.00401 [    32]: 22011
      0.00351 [    18]: 12111
      0.00298 [    34]: 22110
      0.00289 [     8]: 10221
ROOT  13:  E=   -2660.8829346691 Eh  1.177 eV   9492.0 cm**-1
      0.61034 [    13]: 11211
      0.06490 [     7]: 10212
      0.05694 [     4]: 02121
      0.05155 [    10]: 11112
      0.04398 [     8]: 10221
      0.04311 [    11]: 11121
      0.03321 [    28]: 21111
      0.02276 [    20]: 12201
      0.01262 [    12]: 11202
      0.01211 [     3]: 02112
      0.01099 [    29]: 21120
      0.01052 [    18]: 12111
      0.00384 [    21]: 12210
      0.00299 [    17]: 12102
      0.00286 [    23]: 20121
      0.00282 [    33]: 22101
ROOT  14:  E=   -2660.8790498142 Eh  1.283 eV  10344.6 cm**-1
      0.71918 [    18]: 12111
      0.09504 [    10]: 11112
      0.04299 [    15]: 12012
      0.04228 [    19]: 12120
      0.03911 [    21]: 12210
      0.01490 [    13]: 11211
      0.01396 [    17]: 12102
      0.00675 [    20]: 12201
      0.00594 [    11]: 11121
      0.00533 [     5]: 02211
      0.00413 [    16]: 12021
      0.00297 [    31]: 21210
ROOT  15:  E=   -2660.8758947757 Eh  1.368 eV  11037.1 cm**-1
      0.49716 [     3]: 02112
      0.19708 [    34]: 22110
      0.11015 [    28]: 21111
      0.03559 [     5]: 02211
      0.02425 [    32]: 22011
      0.02010 [    13]: 11211
      0.01926 [    22]: 20112
      0.01364 [    29]: 21120
      0.01229 [     4]: 02121
      0.01181 [    21]: 12210
      0.01064 [     1]: 01212
      0.00856 [     7]: 10212
      0.00492 [    25]: 21012
      0.00419 [     8]: 10221
      0.00419 [    26]: 21021
      0.00414 [    33]: 22101
      0.00340 [    23]: 20121
      0.00296 [    20]: 12201
ROOT  16:  E=   -2660.8748232526 Eh  1.398 eV  11272.2 cm**-1
      0.29454 [    13]: 11211
      0.24358 [    21]: 12210
      0.15114 [     7]: 10212
      0.03928 [    29]: 21120
      0.03498 [    18]: 12111
      0.03302 [     4]: 02121
      0.03140 [    20]: 12201
      0.03078 [    10]: 11112
      0.02902 [    28]: 21111
      0.01950 [     8]: 10221
      0.01813 [    11]: 11121
      0.01727 [    14]: 11220
      0.01575 [    19]: 12120
      0.00745 [    34]: 22110
      0.00716 [     3]: 02112
      0.00698 [    33]: 22101
      0.00529 [    25]: 21012
      0.00308 [     5]: 02211
      0.00262 [     6]: 10122
ROOT  17:  E=   -2660.8668969229 Eh  1.613 eV  13011.9 cm**-1
      0.71934 [    18]: 12111
      0.19073 [    10]: 11112
      0.01816 [    16]: 12021
      0.01090 [    20]: 12201
      0.00961 [    17]: 12102
      0.00793 [     1]: 01212
      0.00704 [    19]: 12120
      0.00548 [    13]: 11211
      0.00505 [    24]: 20211
      0.00438 [     5]: 02211
      0.00409 [     2]: 01221
      0.00306 [     6]: 10122
      0.00305 [    30]: 21201
ROOT  18:  E=   -2660.8644520634 Eh  1.680 eV  13548.4 cm**-1
      0.20472 [    29]: 21120
      0.13764 [    12]: 11202
      0.12023 [    14]: 11220
      0.08090 [     1]: 01212
      0.07164 [    20]: 12201
      0.06771 [     3]: 02112
      0.06126 [    21]: 12210
      0.04628 [    23]: 20121
      0.02996 [    28]: 21111
      0.02981 [    10]: 11112
      0.02792 [     5]: 02211
      0.02684 [    26]: 21021
      0.02201 [     0]: 01122
      0.01461 [    18]: 12111
      0.01176 [    13]: 11211
      0.01106 [    24]: 20211
      0.00946 [    11]: 11121
      0.00465 [     8]: 10221
      0.00366 [    30]: 21201
      0.00340 [     4]: 02121
      0.00284 [    33]: 22101
ROOT  19:  E=   -2660.8635251939 Eh  1.705 eV  13751.9 cm**-1
      0.45324 [     1]: 01212
      0.17102 [    24]: 20211
      0.06362 [     0]: 01122
      0.04744 [    29]: 21120
      0.04405 [     5]: 02211
      0.04376 [    31]: 21210
      0.03322 [    11]: 11121
      0.01846 [    20]: 12201
      0.01725 [    28]: 21111
      0.01718 [    18]: 12111
      0.01382 [    12]: 11202
      0.01369 [    17]: 12102
      0.01181 [    10]: 11112
      0.00990 [    22]: 20112
      0.00669 [     4]: 02121
      0.00612 [     3]: 02112
      0.00476 [     2]: 01221
      0.00420 [    26]: 21021
      0.00384 [    21]: 12210
      0.00254 [    30]: 21201
ROOT  20:  E=   -2660.8613587645 Eh  1.764 eV  14227.3 cm**-1
      0.23688 [    14]: 11220
      0.23358 [    29]: 21120
      0.14410 [    12]: 11202
      0.06332 [    20]: 12201
      0.04741 [     3]: 02112
      0.04391 [    23]: 20121
      0.03532 [    28]: 21111
      0.03072 [    11]: 11121
      0.02887 [     0]: 01122
      0.02062 [    34]: 22110
      0.01412 [    13]: 11211
      0.01337 [    10]: 11112
      0.01328 [     1]: 01212
      0.01312 [    26]: 21021
      0.01112 [    21]: 12210
      0.01053 [     5]: 02211
      0.00979 [     7]: 10212
      0.00566 [    33]: 22101
      0.00481 [    18]: 12111
      0.00303 [    31]: 21210
      0.00290 [    19]: 12120
      0.00287 [    32]: 22011
ROOT  21:  E=   -2660.8564350458 Eh  1.898 eV  15308.0 cm**-1
      0.55143 [    17]: 12102
      0.19228 [    11]: 11121
      0.05544 [     6]: 10122
      0.03136 [    20]: 12201
      0.02413 [    15]: 12012
      0.02056 [    10]: 11112
      0.01956 [     1]: 01212
      0.01235 [    24]: 20211
      0.01222 [    28]: 21111
      0.01051 [    18]: 12111
      0.01020 [    12]: 11202
      0.00756 [    13]: 11211
      0.00709 [    14]: 11220
      0.00662 [     9]: 11022
      0.00572 [    30]: 21201
      0.00446 [     7]: 10212
      0.00405 [     8]: 10221
      0.00349 [    29]: 21120
      0.00338 [     3]: 02112
      0.00278 [    19]: 12120
ROOT  22:  E=   -2660.8563122109 Eh  1.901 eV  15334.9 cm**-1
      0.49499 [    28]: 21111
      0.17303 [     3]: 02112
      0.11749 [    29]: 21120
      0.06848 [    34]: 22110
      0.03125 [    31]: 21210
      0.02263 [    25]: 21012
      0.01345 [    22]: 20112
      0.01234 [    23]: 20121
      0.01231 [     5]: 02211
      0.01140 [    17]: 12102
      0.00804 [    32]: 22011
      0.00663 [    13]: 11211
      0.00631 [    33]: 22101
      0.00382 [    30]: 21201
      0.00359 [     1]: 01212
      0.00279 [     0]: 01122
ROOT  23:  E=   -2660.8469139094 Eh  2.157 eV  17397.6 cm**-1
      0.63942 [    11]: 11121
      0.12168 [    19]: 12120
      0.07290 [    17]: 12102
      0.03181 [    13]: 11211
      0.03091 [    30]: 21201
      0.01988 [     6]: 10122
      0.01481 [     2]: 01221
      0.01053 [     5]: 02211
      0.00974 [    10]: 11112
      0.00690 [    24]: 20211
      0.00629 [    31]: 21210
      0.00598 [    21]: 12210
      0.00489 [    20]: 12201
      0.00479 [    15]: 12012
      0.00378 [    28]: 21111
      0.00269 [    18]: 12111
ROOT  24:  E=   -2660.8429715677 Eh  2.264 eV  18262.9 cm**-1
      0.46773 [    27]: 21102
      0.29271 [    33]: 22101
      0.06012 [     0]: 01122
      0.04995 [    29]: 21120
      0.02921 [     4]: 02121
      0.02746 [    23]: 20121
      0.02283 [    25]: 21012
      0.00836 [    32]: 22011
      0.00802 [    34]: 22110
      0.00571 [     2]: 01221
      0.00551 [    30]: 21201
      0.00376 [     1]: 01212
      0.00334 [    31]: 21210
      0.00311 [    28]: 21111
ROOT  25:  E=   -2660.8397225098 Eh  2.353 eV  18975.9 cm**-1
      0.47780 [     2]: 01221
      0.21736 [    30]: 21201
      0.08759 [    10]: 11112
      0.04129 [    11]: 11121
      0.02537 [     0]: 01122
      0.02421 [     5]: 02211
      0.02248 [    28]: 21111
      0.01957 [    13]: 11211
      0.01724 [    24]: 20211
      0.01606 [    18]: 12111
      0.01467 [    27]: 21102
      0.00671 [    31]: 21210
      0.00494 [     4]: 02121
      0.00462 [    33]: 22101
      0.00301 [    19]: 12120
      0.00299 [     9]: 11022
ROOT  26:  E=   -2660.8352485435 Eh  2.474 eV  19957.9 cm**-1
      0.74275 [    11]: 11121
      0.08144 [    17]: 12102
      0.03632 [    13]: 11211
      0.03078 [     9]: 11022
      0.02611 [    14]: 11220
      0.02041 [    24]: 20211
      0.01600 [    18]: 12111
      0.01293 [    10]: 11112
      0.00731 [    20]: 12201
      0.00492 [     8]: 10221
      0.00368 [     6]: 10122
      0.00359 [    16]: 12021
      0.00293 [    15]: 12012
      0.00256 [     5]: 02211
ROOT  27:  E=   -2660.8288274229 Eh  2.649 eV  21367.1 cm**-1
      0.75587 [    28]: 21111
      0.06332 [     8]: 10221
      0.03139 [    30]: 21201
      0.03130 [    26]: 21021
      0.01833 [    22]: 20112
      0.01556 [    13]: 11211
      0.01505 [    34]: 22110
      0.01210 [    14]: 11220
      0.00883 [    32]: 22011
      0.00840 [    23]: 20121
      0.00727 [    27]: 21102
      0.00649 [     3]: 02112
      0.00477 [    20]: 12201
      0.00465 [    33]: 22101
      0.00460 [     6]: 10122
      0.00393 [    29]: 21120
ROOT  28:  E=   -2660.8179962597 Eh  2.944 eV  23744.3 cm**-1
      0.28462 [    10]: 11112
      0.16747 [    22]: 20112
      0.16540 [    34]: 22110
      0.06636 [    18]: 12111
      0.05457 [    28]: 21111
      0.04082 [     0]: 01122
      0.03662 [    23]: 20121
      0.03399 [     8]: 10221
      0.03056 [    13]: 11211
      0.01902 [     6]: 10122
      0.01643 [    27]: 21102
      0.01504 [    20]: 12201
      0.01264 [    11]: 11121
      0.00928 [    33]: 22101
      0.00821 [     7]: 10212
      0.00687 [    12]: 11202
      0.00537 [    14]: 11220
      0.00532 [    17]: 12102
      0.00489 [    31]: 21210
      0.00350 [    25]: 21012
      0.00304 [     9]: 11022
      0.00266 [     3]: 02112
ROOT  29:  E=   -2660.8178951009 Eh  2.947 eV  23766.5 cm**-1
      0.42130 [    10]: 11112
      0.13120 [    22]: 20112
      0.11520 [    34]: 22110
      0.09576 [    18]: 12111
      0.04083 [     8]: 10221
      0.03430 [    28]: 21111
      0.02724 [     0]: 01122
      0.02365 [    23]: 20121
      0.01976 [    13]: 11211
      0.01725 [    17]: 12102
      0.01289 [    27]: 21102
      0.00803 [    14]: 11220
      0.00724 [    31]: 21210
      0.00593 [    33]: 22101
      0.00580 [    11]: 11121
      0.00474 [    12]: 11202
      0.00423 [     2]: 01221
      0.00411 [    21]: 12210
      0.00321 [     9]: 11022
      0.00286 [    25]: 21012
ROOT  30:  E=   -2660.8163206407 Eh  2.990 eV  24112.1 cm**-1
      0.66967 [    10]: 11112
      0.10005 [    18]: 12111
      0.06191 [     2]: 01221
      0.04729 [    13]: 11211
      0.04116 [    30]: 21201
      0.01968 [    12]: 11202
      0.01800 [     9]: 11022
      0.00736 [    11]: 11121
      0.00551 [    17]: 12102
      0.00510 [     6]: 10122
      0.00479 [     0]: 01122
      0.00354 [    28]: 21111
      0.00290 [     1]: 01212
ROOT  31:  E=   -2660.8148462364 Eh  3.030 eV  24435.7 cm**-1
      0.23123 [     0]: 01122
      0.18104 [    23]: 20121
      0.11822 [    34]: 22110
      0.10351 [    22]: 20112
      0.06554 [    33]: 22101
      0.06106 [     8]: 10221
      0.04432 [    28]: 21111
      0.03112 [    24]: 20211
      0.02129 [     3]: 02112
      0.02055 [    20]: 12201
      0.01894 [    29]: 21120
      0.01893 [    32]: 22011
      0.01614 [     1]: 01212
      0.01052 [    27]: 21102
      0.01011 [     7]: 10212
      0.00999 [    25]: 21012
      0.00992 [     2]: 01221
      0.00742 [     6]: 10122
      0.00420 [    13]: 11211
      0.00384 [     4]: 02121
ROOT  32:  E=   -2660.8106001133 Eh  3.145 eV  25367.6 cm**-1
      0.47954 [     8]: 10221
      0.09377 [     0]: 01122
      0.09327 [    20]: 12201
      0.08099 [    23]: 20121
      0.04836 [    33]: 22101
      0.03337 [     6]: 10122
      0.02907 [    28]: 21111
      0.02558 [    34]: 22110
      0.02094 [    14]: 11220
      0.01866 [    13]: 11211
      0.01273 [    11]: 11121
      0.01100 [     7]: 10212
      0.00999 [    27]: 21102
      0.00964 [    30]: 21201
      0.00544 [    18]: 12111
      0.00502 [    26]: 21021
      0.00501 [    17]: 12102
      0.00449 [     1]: 01212
      0.00266 [     2]: 01221
ROOT  33:  E=   -2660.8057256400 Eh  3.278 eV  26437.4 cm**-1
      0.37415 [    24]: 20211
      0.28778 [    31]: 21210
      0.10645 [     1]: 01212
      0.04007 [     5]: 02211
      0.03240 [    30]: 21201
      0.03070 [    28]: 21111
      0.02526 [    11]: 11121
      0.02025 [    22]: 20112
      0.01658 [    23]: 20121
      0.01307 [    29]: 21120
      0.00976 [     3]: 02112
      0.00793 [     2]: 01221
      0.00646 [    34]: 22110
      0.00394 [    17]: 12102
      0.00363 [    19]: 12120
      0.00357 [     4]: 02121
      0.00326 [     0]: 01122
      0.00306 [    10]: 11112
ROOT  34:  E=   -2660.8005270571 Eh  3.419 eV  27578.4 cm**-1
      0.55041 [     7]: 10212
      0.16970 [    21]: 12210
      0.15619 [    13]: 11211
      0.03465 [    12]: 11202
      0.01922 [     6]: 10122
      0.01846 [    20]: 12201
      0.01049 [    18]: 12111
      0.00999 [     8]: 10221
      0.00908 [    19]: 12120
      0.00649 [    11]: 11121
      0.00330 [    10]: 11112
      0.00329 [    29]: 21120
      0.00277 [    28]: 21111
ROOT  35:  E=   -2660.7550563664 Eh  4.657 eV  37558.0 cm**-1
      0.35707 [     0]: 01122
      0.21179 [    27]: 21102
      0.15834 [    23]: 20121
      0.13952 [    29]: 21120
      0.01943 [     1]: 01212
      0.01916 [     4]: 02121
      0.01364 [     2]: 01221
      0.01262 [    24]: 20211
      0.01153 [    25]: 21012
      0.01118 [    30]: 21201
      0.00847 [    31]: 21210
      0.00744 [    28]: 21111
      0.00600 [    33]: 22101
      0.00500 [    22]: 20112
      0.00429 [    13]: 11211
      0.00425 [     3]: 02112
      0.00322 [     7]: 10212
ROOT  36:  E=   -2660.7422565727 Eh  5.005 eV  40367.2 cm**-1
      0.40797 [    33]: 22101
      0.29947 [    23]: 20121
      0.15013 [    27]: 21102
      0.04241 [     4]: 02121
      0.03225 [    30]: 21201
      0.02014 [    32]: 22011
      0.01071 [    24]: 20211
      0.00775 [    25]: 21012
      0.00752 [    29]: 21120
      0.00559 [    26]: 21021
      0.00412 [    28]: 21111
      0.00265 [    13]: 11211
ROOT  37:  E=   -2660.7277316291 Eh  5.400 eV  43555.1 cm**-1
      0.76199 [     6]: 10122
      0.05469 [    17]: 12102
      0.04460 [     8]: 10221
      0.04028 [     7]: 10212
      0.04004 [    19]: 12120
      0.01834 [    11]: 11121
      0.01248 [    10]: 11112
      0.00804 [     9]: 11022
      0.00331 [    14]: 11220
      0.00303 [    12]: 11202
      0.00283 [    20]: 12201
      0.00271 [    24]: 20211
ROOT  38:  E=   -2660.7071756319 Eh  5.960 eV  48066.6 cm**-1
      0.46072 [    22]: 20112
      0.23254 [    28]: 21111
      0.18162 [    34]: 22110
      0.03886 [    24]: 20211
      0.03434 [     3]: 02112
      0.01497 [    31]: 21210
      0.00937 [    27]: 21102
      0.00765 [    29]: 21120
      0.00661 [    23]: 20121
      0.00287 [    32]: 22011
ROOT  39:  E=   -2660.5303588957 Eh 10.771 eV  86873.4 cm**-1
      0.81733 [    16]: 12021
      0.06379 [    18]: 12111
      0.04411 [    19]: 12120
      0.03714 [    11]: 11121
      0.02818 [    15]: 12012
ROOT  40:  E=   -2660.4926034227 Eh 11.798 eV  95159.8 cm**-1
      0.79601 [    15]: 12012
      0.09789 [    18]: 12111
      0.03902 [    10]: 11112
      0.03747 [    17]: 12102
      0.01584 [    16]: 12021
      0.00348 [    21]: 12210
      0.00270 [    20]: 12201
ROOT  41:  E=   -2660.4855772518 Eh 11.989 eV  96701.8 cm**-1
      0.43005 [    32]: 22011
      0.29785 [    26]: 21021
      0.14176 [    25]: 21012
      0.04905 [    28]: 21111
      0.02333 [    34]: 22110
      0.02004 [    33]: 22101
      0.01620 [    29]: 21120
      0.00705 [    23]: 20121
      0.00688 [    27]: 21102
      0.00347 [    22]: 20112
ROOT  42:  E=   -2660.4653418356 Eh 12.540 eV 101143.0 cm**-1
      0.54612 [    26]: 21021
      0.21763 [    32]: 22011
      0.09864 [    25]: 21012
      0.06141 [    28]: 21111
      0.02943 [    29]: 21120
      0.01316 [    23]: 20121
      0.01185 [    34]: 22110
      0.01041 [    33]: 22101
      0.00452 [    27]: 21102
ROOT  43:  E=   -2660.4481514987 Eh 13.008 eV 104915.8 cm**-1
      0.80782 [     9]: 11022
      0.08615 [    11]: 11121
      0.07273 [    10]: 11112
      0.01932 [     6]: 10122
      0.00391 [    13]: 11211
      0.00275 [    14]: 11220
ROOT  44:  E=   -2660.4117601039 Eh 13.998 eV 112902.8 cm**-1
      0.60537 [    25]: 21012
      0.22075 [    32]: 22011
      0.09303 [    28]: 21111
      0.02860 [    27]: 21102
      0.01443 [    22]: 20112
      0.01182 [    34]: 22110
      0.01044 [    33]: 22101
      0.00719 [    26]: 21021
      0.00337 [    31]: 21210
      0.00258 [    30]: 21201

                 <<<<<<<<<<<<<<<<<<INITIAL CI STATE CHECK>>>>>>>>>>>>>>>>>>

   E(CAS)= -2660.862705662 Eh DE=    0.000000e+00
   --- Energy gap subspaces: Ext-Act = 0.055   Act-Int = 0.073
   N(occ)=  1.20000 1.20000 1.20000 1.20000 1.20000
   ||g|| =     9.713090e-04 Max(G)=   -4.224435e-04 Rot=178,123
                     ---- THE CAS-SCF GRADIENT HAS CONVERGED ----
                            --- FINALIZING ORBITALS ---
                    ---- DOING ONE FINAL ITERATION FOR PRINTING ----
   --- Forming Natural Orbitals
   --- Canonicalize Internal Space
   --- Canonicalize External Space

MACRO-ITERATION   2: 
   --- Inactive Energy E0 = -2652.16700339 Eh
   --- All densities will be recomputed
CI-ITERATION   0: 
 -2660.980191383   0.000000000000 (    0.00)
 -2660.933444003   0.000000000000
 -2660.918036289   0.000000000000
 -2660.897350868   0.000000000000
 -2660.896615580   0.000000000000
   CI-PROBLEM SOLVED
   DENSITIES MADE
CI-ITERATION   0: 
 -2660.926183281   0.000000000000 (    0.00)
 -2660.913841704   0.000000000000
 -2660.911031534   0.000000000000
 -2660.906848833   0.000000000000
 -2660.901237189   0.000000000000
 -2660.900609107   0.000000000000
 -2660.897025760   0.000000000000
 -2660.893409560   0.000000000000
 -2660.891842532   0.000000000000
 -2660.889032657   0.000000000000
 -2660.887479453   0.000000000000
 -2660.885876841   0.000000000000
 -2660.883057128   0.000000000000
 -2660.882934669   0.000000000000
 -2660.879049814   0.000000000000
 -2660.875894776   0.000000000000
 -2660.874823252   0.000000000000
 -2660.866896923   0.000000000000
 -2660.864452063   0.000000000000
 -2660.863525194   0.000000000000
 -2660.861358764   0.000000000000
 -2660.856435045   0.000000000000
 -2660.856312210   0.000000000000
 -2660.846913909   0.000000000000
 -2660.842971567   0.000000000000
 -2660.839722510   0.000000000000
 -2660.835248543   0.000000000000
 -2660.828827422   0.000000000000
 -2660.817996259   0.000000000000
 -2660.817895100   0.000000000000
 -2660.816320640   0.000000000000
 -2660.814846236   0.000000000000
 -2660.810600113   0.000000000000
 -2660.805725639   0.000000000000
 -2660.800527057   0.000000000000
 -2660.755056366   0.000000000000
 -2660.742256572   0.000000000000
 -2660.727731629   0.000000000000
 -2660.707175631   0.000000000000
 -2660.530358895   0.000000000000
 -2660.492603423   0.000000000000
 -2660.485577251   0.000000000000
 -2660.465341835   0.000000000000
 -2660.448151498   0.000000000000
 -2660.411760103   0.000000000000
   CI-PROBLEM SOLVED
   DENSITIES MADE
   E(CAS)= -2660.862705662 Eh DE=    4.915819e-10
   --- Energy gap subspaces: Ext-Act = 0.060   Act-Int = 0.095
   N(occ)=  1.20000 1.20000 1.20000 1.20000 1.20000
   ||g|| =     9.713090e-04 Max(G)=   -3.626593e-04 Rot=178,127
--------------
CASSCF RESULTS
--------------

Final CASSCF energy       : -2660.862705662 Eh  -72405.7553 eV

----------------
ORBITAL ENERGIES
----------------

  NO   OCC          E(Eh)            E(eV) 
   0   2.0000    -220.493645     -5999.9371 
   1   2.0000     -26.330130      -716.4793 
   2   2.0000     -22.264835      -605.8570 
   3   2.0000     -22.263334      -605.8161 
   4   2.0000     -22.249477      -605.4390 
   5   2.0000      -4.721671      -128.4832 
   6   2.0000      -4.720286      -128.4455 
   7   2.0000      -4.720186      -128.4428 
   8   2.0000      -4.712010      -128.2203 
   9   2.0000      -4.711650      -128.2105 
  10   2.0000      -4.707847      -128.1070 
  11   2.0000      -4.707770      -128.1049 
  12   2.0000      -4.706831      -128.0794 
  13   2.0000      -4.706753      -128.0773 
  14   2.0000      -4.702791      -127.9694 
  15   2.0000      -4.692241      -127.6824 
  16   2.0000      -4.691961      -127.6748 
  17   2.0000      -3.385114       -92.1136 
  18   2.0000      -2.762320       -75.1666 
  19   2.0000      -2.761667       -75.1488 
  20   2.0000      -2.758778       -75.0702 
  21   2.0000      -2.757927       -75.0470 
  22   2.0000      -2.757663       -75.0398 
  23   2.0000      -2.757039       -75.0228 
  24   2.0000      -2.756476       -75.0075 
  25   2.0000      -2.753965       -74.9392 
  26   2.0000      -2.753867       -74.9365 
  27   2.0000      -2.750198       -74.8367 
  28   2.0000      -2.749904       -74.8287 
  29   2.0000      -2.749403       -74.8151 
  30   2.0000      -2.749124       -74.8075 
  31   2.0000      -2.748092       -74.7794 
  32   2.0000      -2.747788       -74.7711 
  33   2.0000      -2.746915       -74.7474 
  34   2.0000      -2.745770       -74.7162 
  35   2.0000      -2.744832       -74.6907 
  36   2.0000      -2.744639       -74.6854 
  37   2.0000      -2.744009       -74.6683 
  38   2.0000      -2.742486       -74.6268 
  39   2.0000      -2.741971       -74.6128 
  40   2.0000      -2.740815       -74.5814 
  41   2.0000      -2.740687       -74.5779 
  42   2.0000      -2.740362       -74.5690 
  43   2.0000      -2.739858       -74.5553 
  44   2.0000      -2.739601       -74.5483 
  45   2.0000      -2.737651       -74.4953 
  46   2.0000      -2.736632       -74.4675 
  47   2.0000      -2.736543       -74.4651 
  48   2.0000      -2.730805       -74.3090 
  49   2.0000      -2.728408       -74.2438 
  50   2.0000      -2.728006       -74.2328 
  51   2.0000      -2.725968       -74.1773 
  52   2.0000      -2.725543       -74.1658 
  53   2.0000      -2.723420       -74.1080 
  54   2.0000      -2.151593       -58.5478 
  55   2.0000      -2.150450       -58.5167 
  56   2.0000      -2.137286       -58.1585 
  57   2.0000      -0.556858       -15.1529 
  58   2.0000      -0.554234       -15.0815 
  59   2.0000      -0.551625       -15.0105 
  60   2.0000      -0.545921       -14.8553 
  61   2.0000      -0.544728       -14.8228 
  62   2.0000      -0.538503       -14.6534 
  63   2.0000      -0.536181       -14.5902 
  64   2.0000      -0.533511       -14.5176 
  65   2.0000      -0.533409       -14.5148 
  66   2.0000      -0.532415       -14.4877 
  67   2.0000      -0.530964       -14.4483 
  68   2.0000      -0.524473       -14.2716 
  69   2.0000      -0.523490       -14.2449 
  70   2.0000      -0.522069       -14.2062 
  71   2.0000      -0.521295       -14.1852 
  72   2.0000      -0.518934       -14.1209 
  73   2.0000      -0.515484       -14.0270 
  74   2.0000      -0.506377       -13.7792 
  75   2.0000      -0.505913       -13.7666 
  76   2.0000      -0.501689       -13.6516 
  77   2.0000      -0.501633       -13.6501 
  78   2.0000      -0.500590       -13.6217 
  79   2.0000      -0.495391       -13.4803 
  80   2.0000      -0.494425       -13.4540 
  81   2.0000      -0.489507       -13.3202 
  82   2.0000      -0.487040       -13.2530 
  83   2.0000      -0.486545       -13.2396 
  84   2.0000      -0.481234       -13.0950 
  85   2.0000      -0.480923       -13.0866 
  86   2.0000      -0.476779       -12.9738 
  87   2.0000      -0.475820       -12.9477 
  88   2.0000      -0.471663       -12.8346 
  89   2.0000      -0.470629       -12.8065 
  90   2.0000      -0.466185       -12.6855 
  91   2.0000      -0.462764       -12.5924 
  92   2.0000      -0.456764       -12.4292 
  93   2.0000      -0.454818       -12.3762 
  94   2.0000      -0.450247       -12.2518 
  95   2.0000      -0.450121       -12.2484 
  96   2.0000      -0.449660       -12.2359 
  97   2.0000      -0.447665       -12.1816 
  98   2.0000      -0.445621       -12.1260 
  99   2.0000      -0.442434       -12.0392 
 100   2.0000      -0.441410       -12.0114 
 101   2.0000      -0.440263       -11.9802 
 102   2.0000      -0.437579       -11.9071 
 103   2.0000      -0.436739       -11.8843 
 104   2.0000      -0.433276       -11.7901 
 105   2.0000      -0.429293       -11.6817 
 106   2.0000      -0.428886       -11.6706 
 107   2.0000      -0.426937       -11.6176 
 108   2.0000      -0.425438       -11.5767 
 109   2.0000      -0.424840       -11.5605 
 110   2.0000      -0.422639       -11.5006 
 111   2.0000      -0.418242       -11.3809 
 112   2.0000      -0.417651       -11.3649 
 113   2.0000      -0.413672       -11.2566 
 114   2.0000      -0.408286       -11.1100 
 115   2.0000      -0.402975       -10.9655 
 116   2.0000      -0.394788       -10.7427 
 117   2.0000      -0.382091       -10.3972 
 118   2.0000      -0.349672        -9.5150 
 119   2.0000      -0.339617        -9.2414 
 120   2.0000      -0.309461        -8.4209 
 121   2.0000      -0.234161        -6.3718 
 122   2.0000      -0.229114        -6.2345 
 123   1.2000      -0.079528        -2.1641 
 124   1.2000      -0.133661        -3.6371 
 125   1.2000      -0.111170        -3.0251 
 126   1.2000      -0.099484        -2.7071 
 127   1.2000      -0.080688        -2.1956 
 128   0.0000      -0.019065        -0.5188 
 129   0.0000      -0.013961        -0.3799 
 130   0.0000      -0.001539        -0.0419 
 131   0.0000       0.000444         0.0121 
 132   0.0000       0.012428         0.3382 
 133   0.0000       0.042791         1.1644 
 134   0.0000       0.049672         1.3516 
 135   0.0000       0.049894         1.3577 
 136   0.0000       0.055027         1.4974 
 137   0.0000       0.062198         1.6925 
 138   0.0000       0.073438         1.9983 
 139   0.0000       0.075858         2.0642 
 140   0.0000       0.079751         2.1701 
 141   0.0000       0.087918         2.3924 
 142   0.0000       0.088619         2.4114 
 143   0.0000       0.100967         2.7474 
 144   0.0000       0.117551         3.1987 
 145   0.0000       0.119301         3.2463 
 146   0.0000       0.126521         3.4428 
 147   0.0000       0.131609         3.5813 
 148   0.0000       0.133420         3.6305 
 149   0.0000       0.135402         3.6845 
 150   0.0000       0.138189         3.7603 
 151   0.0000       0.149565         4.0699 
 152   0.0000       0.151300         4.1171 
 153   0.0000       0.152275         4.1436 
 154   0.0000       0.154807         4.2125 
 155   0.0000       0.156094         4.2475 
 156   0.0000       0.157079         4.2743 
 157   0.0000       0.163646         4.4530 
 158   0.0000       0.174643         4.7523 
 159   0.0000       0.186104         5.0641 
 160   0.0000       0.189229         5.1492 
 161   0.0000       0.194783         5.3003 
 162   0.0000       0.198924         5.4130 
 163   0.0000       0.201353         5.4791 
 164   0.0000       0.204364         5.5610 
 165   0.0000       0.211711         5.7610 
 166   0.0000       0.211888         5.7658 
 167   0.0000       0.217625         5.9219 
 168   0.0000       0.225846         6.1456 
 169   0.0000       0.236389         6.4325 
 170   0.0000       0.237671         6.4674 
 171   0.0000       0.246710         6.7133 
 172   0.0000       0.248813         6.7705 
 173   0.0000       0.251335         6.8392 
 174   0.0000       0.257204         6.9989 
 175   0.0000       0.279366         7.6019 
 176   0.0000       0.283823         7.7232 
 177   0.0000       0.303889         8.2692 
 178   0.0000       0.327659         8.9160 
 179   0.0000       0.357170         9.7191 
 180   0.0000       0.367451         9.9989 
 181   0.0000       0.380690        10.3591 
 182   0.0000       0.381221        10.3735 
 183   0.0000       0.386411        10.5148 
 184   0.0000       0.395056        10.7500 
 185   0.0000       0.401748        10.9321 
 186   0.0000       0.402744        10.9592 
 187   0.0000       0.416042        11.3211 
 188   0.0000       0.423069        11.5123 
 189   0.0000       0.425341        11.5741 
 190   0.0000       0.429281        11.6813 
 191   0.0000       0.430720        11.7205 
 192   0.0000       0.445820        12.1314 
 193   0.0000       0.448953        12.2166 
 194   0.0000       0.451242        12.2789 
 195   0.0000       0.457425        12.4472 
 196   0.0000       0.460811        12.5393 
 197   0.0000       0.463974        12.6254 
 198   0.0000       0.464962        12.6523 
 199   0.0000       0.467790        12.7292 
 200   0.0000       0.474528        12.9126 
 201   0.0000       0.483402        13.1540 
 202   0.0000       0.489719        13.3259 
 203   0.0000       0.492678        13.4064 
 204   0.0000       0.493770        13.4362 
 205   0.0000       0.505025        13.7424 
 206   0.0000       0.508238        13.8299 
 207   0.0000       0.517407        14.0794 
 208   0.0000       0.519366        14.1327 
 209   0.0000       0.520917        14.1749 
 210   0.0000       0.529924        14.4200 
 211   0.0000       0.530413        14.4333 
 212   0.0000       0.541506        14.7351 
 213   0.0000       0.543809        14.7978 
 214   0.0000       0.544534        14.8175 
 215   0.0000       0.548364        14.9218 
 216   0.0000       0.552955        15.0467 
 217   0.0000       0.555434        15.1141 
 218   0.0000       0.566338        15.4108 
 219   0.0000       0.569464        15.4959 
 220   0.0000       0.570989        15.5374 
 221   0.0000       0.571763        15.5585 
 222   0.0000       0.583747        15.8846 
 223   0.0000       0.595112        16.1938 
 224   0.0000       0.598532        16.2869 
 225   0.0000       0.600526        16.3412 
 226   0.0000       0.605316        16.4715 
 227   0.0000       0.608644        16.5621 
 228   0.0000       0.631566        17.1858 
 229   0.0000       0.634145        17.2560 
 230   0.0000       0.638412        17.3721 
 231   0.0000       0.641912        17.4673 
 232   0.0000       0.647044        17.6070 
 233   0.0000       0.660984        17.9863 
 234   0.0000       0.664324        18.0772 
 235   0.0000       0.675449        18.3799 
 236   0.0000       0.681051        18.5323 
 237   0.0000       0.683458        18.5978 
 238   0.0000       0.686308        18.6754 
 239   0.0000       0.692266        18.8375 
 240   0.0000       0.694504        18.8984 
 241   0.0000       0.697347        18.9758 
 242   0.0000       0.702891        19.1266 
 243   0.0000       0.707730        19.2583 
 244   0.0000       0.708336        19.2748 
 245   0.0000       0.722892        19.6709 
 246   0.0000       0.731129        19.8950 
 247   0.0000       0.732348        19.9282 
 248   0.0000       0.734196        19.9785 
 249   0.0000       0.742824        20.2133 
 250   0.0000       0.762201        20.7405 
 251   0.0000       0.766318        20.8526 
 252   0.0000       0.781400        21.2630 
 253   0.0000       0.783785        21.3279 
 254   0.0000       0.814465        22.1627 
 255   0.0000       0.825639        22.4668 
 256   0.0000       0.852544        23.1989 
 257   0.0000       0.893928        24.3250 
 258   0.0000       0.921458        25.0741 
 259   0.0000       0.937586        25.5130 
 260   0.0000       0.948654        25.8142 
 261   0.0000       0.985966        26.8295 
 262   0.0000       0.999058        27.1858 
 263   0.0000       1.006516        27.3887 
 264   0.0000       1.014780        27.6136 
 265   0.0000       1.026292        27.9268 
 266   0.0000       1.031844        28.0779 
 267   0.0000       1.048944        28.5432 
 268   0.0000       1.061724        28.8910 
 269   0.0000       1.078272        29.3413 
 270   0.0000       1.079519        29.3752 
 271   0.0000       1.089672        29.6515 
 272   0.0000       1.103471        30.0270 
 273   0.0000       1.111204        30.2374 
 274   0.0000       1.127900        30.6917 
 275   0.0000       1.141403        31.0591 
 276   0.0000       1.148241        31.2452 
 277   0.0000       1.154189        31.4071 
 278   0.0000       1.162545        31.6345 
 279   0.0000       1.180916        32.1344 
 280   0.0000       1.181714        32.1561 
 281   0.0000       1.199318        32.6351 
 282   0.0000       1.204222        32.7685 
 283   0.0000       1.226865        33.3847 
 284   0.0000       1.227777        33.4095 
 285   0.0000       1.232770        33.5454 
 286   0.0000       1.247811        33.9547 
 287   0.0000       1.266800        34.4714 
 288   0.0000       1.284321        34.9482 
 289   0.0000       1.331012        36.2187 
 290   0.0000       1.360454        37.0198 
 291   0.0000       1.409512        38.3548 
 292   0.0000       1.412361        38.4323 
 293   0.0000       1.555767        42.3346 
 294   0.0000       1.563276        42.5389 
 295   0.0000       1.579247        42.9735 
 296   0.0000       1.596569        43.4449 
 297   0.0000       1.610050        43.8117 
 298   0.0000       1.636383        44.5282 
 299   0.0000       1.639420        44.6109 
 300   0.0000       1.649721        44.8912 
 301   0.0000       1.652069        44.9551 
 302   0.0000       1.657779        45.1105 
 303   0.0000       1.662189        45.2305 
 304   0.0000       1.686366        45.8884 
 305   0.0000       1.689403        45.9710 
 306   0.0000       1.701764        46.3073 
 307   0.0000       1.707648        46.4675 
 308   0.0000       1.728604        47.0377 
 309   0.0000       1.732228        47.1363 
 310   0.0000       1.741008        47.3752 
 311   0.0000       1.746230        47.5173 
 312   0.0000       1.747076        47.5404 
 313   0.0000       1.756280        47.7908 
 314   0.0000       1.758892        47.8619 
 315   0.0000       1.765255        48.0350 
 316   0.0000       1.773756        48.2664 
 317   0.0000       1.775112        48.3032 
 318   0.0000       1.781126        48.4669 
 319   0.0000       1.783601        48.5343 
 320   0.0000       1.786426        48.6111 
 321   0.0000       1.792008        48.7630 
 322   0.0000       1.794916        48.8421 
 323   0.0000       1.804223        49.0954 
 324   0.0000       1.805913        49.1414 
 325   0.0000       1.813231        49.3405 
 326   0.0000       1.817681        49.4616 
 327   0.0000       1.819991        49.5245 
 328   0.0000       1.823458        49.6188 
 329   0.0000       1.824356        49.6432 
 330   0.0000       1.826089        49.6904 
 331   0.0000       1.835004        49.9330 
 332   0.0000       1.842297        50.1315 
 333   0.0000       1.845474        50.2179 
 334   0.0000       1.846901        50.2567 
 335   0.0000       1.847268        50.2667 
 336   0.0000       1.850938        50.3666 
 337   0.0000       1.853261        50.4298 
 338   0.0000       1.855453        50.4894 
 339   0.0000       1.855681        50.4957 
 340   0.0000       1.857549        50.5465 
 341   0.0000       1.864316        50.7306 
 342   0.0000       1.866232        50.7827 
 343   0.0000       1.870230        50.8915 
 344   0.0000       1.871895        50.9369 
 345   0.0000       1.873518        50.9810 
 346   0.0000       1.876242        51.0551 
 347   0.0000       1.877101        51.0785 
 348   0.0000       1.877756        51.0963 
 349   0.0000       1.882126        51.2153 
 350   0.0000       1.884010        51.2665 
 351   0.0000       1.884604        51.2827 
 352   0.0000       1.886020        51.3212 
 353   0.0000       1.887838        51.3707 
 354   0.0000       1.889128        51.4058 
 355   0.0000       1.892392        51.4946 
 356   0.0000       1.893198        51.5165 
 357   0.0000       1.896080        51.5950 
 358   0.0000       1.897967        51.6463 
 359   0.0000       1.898660        51.6652 
 360   0.0000       1.899555        51.6895 
 361   0.0000       1.901386        51.7393 
 362   0.0000       1.901919        51.7538 
 363   0.0000       1.903615        51.8000 
 364   0.0000       1.906541        51.8796 
 365   0.0000       1.908482        51.9324 
 366   0.0000       1.911116        52.0041 
 367   0.0000       1.913179        52.0602 
 368   0.0000       1.914004        52.0827 
 369   0.0000       1.915192        52.1150 
 370   0.0000       1.918709        52.2107 
 371   0.0000       1.921191        52.2783 
 372   0.0000       1.921615        52.2898 
 373   0.0000       1.922060        52.3019 
 374   0.0000       1.922315        52.3088 
[...]
 3 117   68303.0    146.4   0.000000000   0.00000   0.00063   0.00209   0.00010
 3 118   68373.0    146.3   0.000000000   0.00000   0.00102   0.00045   0.00088
 3 119   68389.0    146.2   0.000000000   0.00000   0.00028   0.00025   0.00060
 3 120   68390.4    146.2   0.000000000   0.00000   0.00075   0.00002   0.00041
 3 121   69150.0    144.6   0.000000000   0.00001   0.00337   0.00029   0.00133
 3 122   69151.2    144.6   0.000000000   0.00002   0.00194   0.00021   0.00373
 3 123   69154.9    144.6   0.000000000   0.00000   0.00038   0.00041   0.00040
 3 124   70393.7    142.1   0.000000000   0.00000   0.00179   0.00001   0.00025
 3 125   70400.9    142.0   0.000000000   0.00000   0.00065   0.00005   0.00032
 3 126   70404.1    142.0   0.000000000   0.00001   0.00107   0.00016   0.00232
 3 127   70533.9    141.8   0.000000000   0.00000   0.00003   0.00008   0.00200
 3 128   70537.0    141.8   0.000000000   0.00000   0.00088   0.00011   0.00055
 3 129   70538.0    141.8   0.000000000   0.00001   0.00224   0.00016   0.00083
 3 130   72032.7    138.8   0.000000000   0.00000   0.00054   0.00047   0.00203
 3 131   72034.5    138.8   0.000000000   0.00000   0.00012   0.00021   0.00058
 3 132   72035.2    138.8   0.000000000   0.00000   0.00049   0.00093   0.00041
 3 133   72561.6    137.8   0.000000000   0.00000   0.00202   0.00077   0.00002
 3 134   72567.0    137.8   0.000000000   0.00000   0.00007   0.00070   0.00067
 3 135   72569.3    137.8   0.000000000   0.00000   0.00018   0.00036   0.00014
 3 136   80547.1    124.2   0.000000000   0.00000   0.00014   0.00001   0.00073
 3 137   80548.5    124.1   0.000000000   0.00000   0.00002   0.00000   0.00006
 3 138   80550.4    124.1   0.000000000   0.00000   0.00107   0.00014   0.00095
 3 139   83062.2    120.4   0.000000000   0.00000   0.00046   0.00001   0.00000
 3 140   83064.2    120.4   0.000000000   0.00000   0.00000   0.00001   0.00001
 3 141   83069.8    120.4   0.000000000   0.00000   0.00042   0.00012   0.00043
 3 142   84318.3    118.6   0.000000000   0.00000   0.00002   0.00033   0.00004
 3 143   84325.7    118.6   0.000000000   0.00000   0.00001   0.00015   0.00002
 3 144   84326.6    118.6   0.000000000   0.00000   0.00003   0.00000   0.00002
 3 145   91215.9    109.6   0.000000000   0.00000   0.00004   0.00011   0.00003
 3 146   91217.9    109.6   0.000000000   0.00000   0.00000   0.00001   0.00000
 3 147   91218.1    109.6   0.000000000   0.00000   0.00005   0.00006   0.00001
 3 148   93288.2    107.2   0.000000000   0.00000   0.00003   0.00001   0.00014
 3 149   93288.6    107.2   0.000000000   0.00000   0.00016   0.00003   0.00008
 3 150   93339.8    107.1   0.000000000   0.00000   0.00017   0.00009   0.00011
 3 151   93374.8    107.1   0.000000000   0.00000   0.00041   0.00005   0.00045
 3 152   93426.5    107.0   0.000000000   0.00000   0.00016   0.00003   0.00015
 3 153   93426.6    107.0   0.000000000   0.00000   0.00004   0.00002   0.00004
 3 154  107650.2     92.9   0.000000000   0.00000   0.00015   0.00004   0.00016
 3 155  107650.6     92.9   0.000000000   0.00000   0.00046   0.00015   0.00049
 3 156  107650.8     92.9   0.000000000   0.00000   0.00029   0.00010   0.00024
 3 157  348532.7     28.7   0.000000000   0.00000   0.00004   0.00007   0.00013
 3 158  348532.8     28.7   0.000000000   0.00000   0.00018   0.00001   0.00012
 3 159  348532.8     28.7   0.000000000   0.00000   0.00003   0.00000   0.00003
 4  5       1.5   6893601.5   0.000000000   0.00000   0.00001   0.00000   0.00000
 4  6       1.7   5847676.1   0.000000000   0.00000   0.00000   0.00000   0.00000
 4  7       2.1   4722039.9   0.000000000   0.00000   0.00000   0.00000   0.00001
 4  8   18303.1    546.4   0.000000000   0.00000   0.00008   0.00035   0.00014
 4  9   18304.5    546.3   0.000000000   0.00001   0.00021   0.00276   0.00035
 4 10   18306.7    546.2   0.000000000   0.00000   0.00033   0.00119   0.00066
 4 11   19108.0    523.3   0.000000000   0.00000   0.00067   0.00100   0.00051
 4 12   19110.6    523.3   0.000000000   0.00000   0.00017   0.00047   0.00018
 4 13   19111.8    523.2   0.000000000   0.00001   0.00114   0.00193   0.00117
 4 14   21151.1    472.8   0.000000000   0.00000   0.00102   0.00026   0.00009
 4 15   21151.6    472.8   0.000000000   0.00000   0.00080   0.00071   0.00122
 4 16   21151.9    472.8   0.000000000   0.00000   0.00041   0.00050   0.00077
 4 17   22162.6    451.2   0.000000000   0.00000   0.00064   0.00063   0.00055
 4 18   22162.9    451.2   0.000000000   0.00000   0.00024   0.00021   0.00023
 4 19   22163.7    451.2   0.000000000   0.00000   0.00062   0.00140   0.00066
 4 20   26230.2    381.2   0.000000000   0.00000   0.00125   0.00009   0.00017
 4 21   26230.7    381.2   0.000000000   0.00000   0.00026   0.00004   0.00022
 4 22   26236.0    381.2   0.000000000   0.00000   0.00119   0.00018   0.00141
 4 23   27805.5    359.6   0.000000000   0.00000   0.00013   0.00010   0.00015
 4 24   27809.0    359.6   0.000000000   0.00000   0.00025   0.00058   0.00031
 4 25   27821.6    359.4   0.000000000   0.00000   0.00022   0.00030   0.00010
 4 26   28897.0    346.1   0.000000000   0.00001   0.00182   0.00047   0.00183
 4 27   28902.6    346.0   0.000000000   0.00000   0.00020   0.00023   0.00015
 4 28   28908.3    345.9   0.000000000   0.00000   0.00101   0.00103   0.00034
 4 29   29427.1    339.8   0.000000000   0.00001   0.00242   0.00035   0.00260
 4 30   29430.7    339.8   0.000000000   0.00000   0.00196   0.00003   0.00080
 4 31   29433.1    339.8   0.000000000   0.00000   0.00002   0.00011   0.00007
 4 32   31740.9    315.1   0.000000000   0.00000   0.00058   0.00009   0.00032
 4 33   31740.9    315.1   0.000000000   0.00000   0.00137   0.00018   0.00101
 4 34   31746.6    315.0   0.000000000   0.00000   0.00014   0.00018   0.00078
 4 35   32600.4    306.7   0.000000000   0.00000   0.00008   0.00040   0.00044
 4 36   32601.8    306.7   0.000000000   0.00000   0.00030   0.00027   0.00024
 4 37   32631.1    306.5   0.000000000   0.00000   0.00014   0.00008   0.00023
 4 38   33034.6    302.7   0.000000000   0.00000   0.00032   0.00082   0.00056
 4 39   33066.2    302.4   0.000000000   0.00000   0.00030   0.00125   0.00168
 4 40   33070.0    302.4   0.000000000   0.00000   0.00015   0.00012   0.00009
 4 41   37768.1    264.8   0.000000000   0.00000   0.00041   0.00024   0.00058
 4 42   37772.9    264.7   0.000000000   0.00000   0.00009   0.00003   0.00010
 4 43   37778.0    264.7   0.000000000   0.00000   0.00054   0.00028   0.00003
 4 44   38726.7    258.2   0.000000000   0.00000   0.00002   0.00001   0.00003
 4 45   38726.8    258.2   0.000000000   0.00000   0.00054   0.00013   0.00066
 4 46   38727.2    258.2   0.000000000   0.00000   0.00122   0.00011   0.00090
 4 47   40656.0    246.0   0.000000000   0.00001   0.00192   0.00152   0.00038
 4 48   40660.3    245.9   0.000000000   0.00000   0.00009   0.00012   0.00019
 4 49   40665.6    245.9   0.000000000   0.00001   0.00165   0.00121   0.00213
 4 50   44222.1    226.1   0.000000000   0.00001   0.00193   0.00202   0.00200
 4 51   44222.6    226.1   0.000000000   0.00001   0.00200   0.00175   0.00003
 4 52   44225.3    226.1   0.000000000   0.00001   0.00140   0.00193   0.00137
 4 53   44554.4    224.4   0.000000000   0.00001   0.00150   0.00289   0.00117
 4 54   44556.1    224.4   0.000000000   0.00000   0.00101   0.00036   0.00042
 4 55   44560.2    224.4   0.000000000   0.00002   0.00060   0.00393   0.00034
 4 56   45536.4    219.6   0.000000000   0.00001   0.00326   0.00040   0.00091
 4 57   45536.7    219.6   0.000000000   0.00001   0.00090   0.00130   0.00165
 4 58   45544.2    219.6   0.000000000   0.00001   0.00186   0.00103   0.00315
 4 59   45745.7    218.6   0.000000000   0.00001   0.00233   0.00023   0.00274
 4 60   45757.0    218.5   0.000000000   0.00004   0.00526   0.00079   0.00408
 4 61   45758.7    218.5   0.000000000   0.00000   0.00023   0.00032   0.00044
 4 62   52379.1    190.9   0.000000000   0.00003   0.00392   0.00108   0.00344
 4 63   52382.6    190.9   0.000000000   0.00000   0.00011   0.00067   0.00060
 4 64   52402.6    190.8   0.000000000   0.00002   0.00298   0.00231   0.00146
 4 65   52561.0    190.3   0.000000000   0.00003   0.00241   0.00108   0.00479
 4 66   52585.6    190.2   0.000000000   0.00002   0.00367   0.00077   0.00320
 4 67   52587.0    190.2   0.000000000   0.00009   0.00776   0.00051   0.00537
 4 68   52910.1    189.0   0.000000000   0.00856   0.07090   0.00887   0.05875
 4 69   52910.2    189.0   0.000000000   0.02081   0.10868   0.01353   0.09388
 4 70   52911.4    189.0   0.000000000   0.00279   0.03975   0.00496   0.03445
 4 71   52912.1    189.0   0.000000000   0.01003   0.07618   0.00934   0.06433
 4 72   52912.3    189.0   0.000000000   0.00146   0.02839   0.00364   0.02539
 4 73   55348.0    180.7   0.000000000   0.04510   0.15891   0.01901   0.13958
 4 74   55348.8    180.7   0.000000000   0.00041   0.01489   0.00206   0.01347
 4 75   55352.8    180.7   0.000000000   0.39520   0.47631   0.05656   0.40636
 4 76   55357.7    180.6   0.000000000   0.03520   0.14173   0.01665   0.12180
 4 77   55358.1    180.6   0.000000000   0.03222   0.13400   0.01622   0.11832
 4 78   55454.1    180.3   0.000000000   0.00002   0.00425   0.00091   0.00208
 4 79   55458.2    180.3   0.000000000   0.00009   0.00694   0.00089   0.00612
 4 80   55459.2    180.3   0.000000000   0.00082   0.02112   0.00307   0.01919
 4 81   56770.4    176.1   0.000000000   0.00001   0.00213   0.00019   0.00204
 4 82   56772.1    176.1   0.000000000   0.00230   0.03674   0.00454   0.03052
 4 83   56777.3    176.1   0.000000000   0.00044   0.01473   0.00132   0.01497
 4 84   58550.3    170.8   0.000000000   0.00006   0.00524   0.00128   0.00559
 4 85   58555.2    170.8   0.000000000   0.00000   0.00043   0.00004   0.00030
 4 86   58557.4    170.8   0.000000000   0.00002   0.00367   0.00115   0.00084
 4 87   61195.9    163.4   0.000000000   0.00009   0.00539   0.00098   0.00780
 4 88   61196.9    163.4   0.000000000   0.00012   0.01039   0.00125   0.00325
 4 89   61205.4    163.4   0.000000000   0.00081   0.01629   0.00351   0.02316
 4 90   61212.3    163.4   0.000000000   0.00034   0.00986   0.00011   0.01548
 4 91   61213.9    163.4   0.000000000   0.00013   0.00406   0.00131   0.01060
 4 92   61907.6    161.5   0.000000000   0.00010   0.00975   0.00010   0.00300
 4 93   61911.2    161.5   0.000000000   0.00019   0.00804   0.00005   0.01115
 4 94   61912.4    161.5   0.000000000   0.00045   0.01218   0.00010   0.01749
 4 95   62397.3    160.3   0.000000000   0.01068   0.06196   0.00266   0.08266
 4 96   62402.8    160.2   0.000000000   0.00010   0.00717   0.00079   0.00708
 4 97   62406.5    160.2   0.000000000   0.07349   0.17966   0.00890   0.20280
 4 98   62425.5    160.2   0.000000000   0.00001   0.00256   0.00006   0.00278
 4 99   62425.6    160.2   0.000000000   0.00488   0.04094   0.00168   0.05654
 4 100   62981.1    158.8   0.000000000   0.00000   0.00001   0.00008   0.00067
 4 101   62982.0    158.8   0.000000000   0.00001   0.00223   0.00059   0.00231
 4 102   62984.9    158.8   0.000000000   0.00000   0.00160   0.00021   0.00149
 4 103   63854.7    156.6   0.000000000   0.00000   0.00038   0.00016   0.00030
 4 104   63858.9    156.6   0.000000000   0.00001   0.00262   0.00037   0.00212
 4 105   63860.0    156.6   0.000000000   0.00015   0.00806   0.00180   0.00918
 4 106   65107.8    153.6   0.000000000   0.00001   0.00216   0.00010   0.00077
 4 107   65110.2    153.6   0.000000000   0.00001   0.00262   0.00014   0.00142
 4 108   65112.1    153.6   0.000000000   0.00001   0.00044   0.00059   0.00271
 4 109   65922.3    151.7   0.000000000   0.00001   0.00048   0.00292   0.00151
 4 110   65929.4    151.7   0.000000000   0.00000   0.00012   0.00016   0.00002
 4 111   65933.4    151.7   0.000000000   0.00000   0.00114   0.00057   0.00154
 4 112   67489.3    148.2   0.000000000   0.00001   0.00307   0.00036   0.00054
 4 113   67495.9    148.2   0.000000000   0.00000   0.00062   0.00009   0.00016
 4 114   67497.7    148.2   0.000000000   0.00002   0.00318   0.00002   0.00362
 4 115   68280.9    146.5   0.000000000   0.00000   0.00061   0.00059   0.00064
 4 116   68284.6    146.4   0.000000000   0.00001   0.00073   0.00231   0.00017
 4 117   68303.0    146.4   0.000000000   0.00000   0.00056   0.00089   0.00064
 4 118   68373.0    146.3   0.000000000   0.00000   0.00052   0.00058   0.00034
 4 119   68389.0    146.2   0.000000000   0.00000   0.00109   0.00019   0.00073
 4 120   68390.4    146.2   0.000000000   0.00000   0.00006   0.00054   0.00052
 4 121   69150.0    144.6   0.000000000   0.00002   0.00188   0.00023   0.00363
 4 122   69151.2    144.6   0.000000000   0.00001   0.00349   0.00031   0.00142
 4 123   69154.9    144.6   0.000000000   0.00000   0.00023   0.00009   0.00010
 4 124   70393.7    142.1   0.000000000   0.00001   0.00112   0.00016   0.00233
 4 125   70400.8    142.0   0.000000000   0.00000   0.00003   0.00000   0.00045
 4 126   70404.1    142.0   0.000000000   0.00000   0.00184   0.00001   0.00027
 4 127   70533.9    141.8   0.000000000   0.00001   0.00236   0.00020   0.00098
 4 128   70537.0    141.8   0.000000000   0.00000   0.00017   0.00009   0.00060
 4 129   70538.0    141.8   0.000000000   0.00000   0.00021   0.00004   0.00201
 4 130   72032.7    138.8   0.000000000   0.00000   0.00044   0.00094   0.00022
 4 131   72034.5    138.8   0.000000000   0.00000   0.00029   0.00014   0.00040
 4 132   72035.2    138.8   0.000000000   0.00001   0.00061   0.00055   0.00211
 4 133   72561.5    137.8   0.000000000   0.00000   0.00010   0.00084   0.00069
 4 134   72566.9    137.8   0.000000000   0.00000   0.00180   0.00067   0.00004
 4 135   72569.3    137.8   0.000000000   0.00000   0.00073   0.00037   0.00002
 4 136   80547.1    124.2   0.000000000   0.00000   0.00111   0.00014   0.00101
 4 137   80548.5    124.1   0.000000000   0.00000   0.00006   0.00003   0.00004
 4 138   80550.4    124.1   0.000000000   0.00000   0.00015   0.00001   0.00073
 4 139   83062.1    120.4   0.000000000   0.00000   0.00039   0.00012   0.00041
 4 140   83064.1    120.4   0.000000000   0.00000   0.00002   0.00003   0.00001
 4 141   83069.8    120.4   0.000000000   0.00000   0.00047   0.00001   0.00001
 4 142   84318.2    118.6   0.000000000   0.00000   0.00001   0.00015   0.00002
 4 143   84325.7    118.6   0.000000000   0.00000   0.00002   0.00031   0.00004
 4 144   84326.6    118.6   0.000000000   0.00000   0.00005   0.00001   0.00003
 4 145   91215.9    109.6   0.000000000   0.00000   0.00005   0.00006   0.00001
 4 146   91217.9    109.6   0.000000000   0.00000   0.00000   0.00002   0.00001
 4 147   91218.1    109.6   0.000000000   0.00000   0.00004   0.00011   0.00004
 4 148   93288.2    107.2   0.000000000   0.00000   0.00014   0.00007   0.00008
 4 149   93288.6    107.2   0.000000000   0.00000   0.00024   0.00003   0.00028
 4 150   93339.8    107.1   0.000000000   0.00000   0.00000   0.00002   0.00013
 4 151   93374.8    107.1   0.000000000   0.00000   0.00022   0.00004   0.00017
 4 152   93426.4    107.0   0.000000000   0.00000   0.00032   0.00004   0.00033
 4 153   93426.5    107.0   0.000000000   0.00000   0.00006   0.00005   0.00010
 4 154  107650.2     92.9   0.000000000   0.00000   0.00008   0.00004   0.00006
 4 155  107650.6     92.9   0.000000000   0.00000   0.00028   0.00010   0.00023
 4 156  107650.7     92.9   0.000000000   0.00000   0.00046   0.00015   0.00050
 4 157  348532.7     28.7   0.000000000   0.00000   0.00018   0.00001   0.00012
 4 158  348532.8     28.7   0.000000000   0.00000   0.00004   0.00007   0.00013
 4 159  348532.8     28.7   0.000000000   0.00000   0.00001   0.00001   0.00001

------------------------------------------------------------------------------
                           SOC CORRECTED DIPOLE MOMENTS
------------------------------------------------------------------------------
      TX        TY        TZ           |T|
   (Debye)   (Debye)   (Debye)      (Debye)
------------------------------------------------------------------------------
 -11.79204 -38.95779  -8.17062     41.51531

--------------
CASSCF TIMINGS
--------------

Total time                       ...     2707.2 sec
Sum of individual times          ...     2710.0 sec (100.1%)

Calculation of AO operators
   F(Core) operator              ...       22.3 sec (  0.8%)
   G(Act) operator               ...       21.3 sec (  0.8%)
   J(AO) operators               ...        0.0 sec (  0.0%)
Calculation of MO transformed quantities
   J(MO) operators               ...        2.5 sec (  0.1%)
   (pq|rs) integrals             ...        0.0 sec (  0.0%)
   AO->MO one electron integrals ...        0.1 sec (  0.0%)
Configuration interaction steps
   CI-setup phase                ...        0.0 sec (  0.0%)
   CI-solution phase             ...        0.1 sec (  0.0%)
   Generation of densities       ...        0.0 sec (  0.0%)
Orbital improvement steps
   Orbital gradient              ...        0.0 sec (  0.0%)
PT2 
   NEVPT2 time                   ...     2647.0 sec ( 97.8%)
Properties                       ...        8.9 sec (  0.3%)
   SOC integral calculation      ...        7.7 sec (  0.3%)
   SSC RMEs (incl. integrals)    ...        0.0 sec (  0.0%)
   SOC RMEs                      ...        0.0 sec (  0.0%)

Maximum memory used throughout the entire CASSCF-calculation: 1126.6 MB

-------------------------   --------------------
FINAL SINGLE POINT ENERGY     -2666.933816733764
-------------------------   --------------------


                            ***************************************
                            *     ORCA property calculations      *
                            ***************************************

                                    ---------------------
                                    Active property flags
                                    ---------------------
   (+) Dipole Moment


------------------------------------------------------------------------------
                       ORCA ELECTRIC PROPERTIES CALCULATION
------------------------------------------------------------------------------

Dipole Moment Calculation                       ... on
Quadrupole Moment Calculation                   ... off
Polarizability Calculation                      ... off
GBWName                                         ... nevpt2.gbw
Electron density                                ... nevpt2.scfp
The origin for moment calculation is the CENTER OF MASS  = (14.439930, 15.518838 14.978620)

-------------
DIPOLE MOMENT
-------------
                                X             Y             Z
Electronic contribution:      4.85710      15.56596       3.44112
Nuclear contribution   :     -4.63925     -15.32686      -3.21450
                        -----------------------------------------
Total Dipole Moment    :      0.21784       0.23910       0.22662
                        -----------------------------------------
Magnitude (a.u.)       :      0.39494
Magnitude (Debye)      :      1.00386



--------------------
Rotational spectrum 
--------------------
 
Rotational constants in cm-1:     0.001526     0.001215     0.001078 
Rotational constants in MHz :    45.734362    36.438065    32.326913 

 Dipole components along the rotational axes: 
x,y,z [a.u.] :     0.164151     0.000279     0.359212 
x,y,z [Debye]:     0.417239     0.000709     0.913043 

 

Timings for individual modules:

Sum of individual times         ...     2720.312 sec (=  45.339 min)
GTO integral calculation        ...        7.235 sec (=   0.121 min)   0.3 %
SCF iterations                  ...        2.847 sec (=   0.047 min)   0.1 %
CASSCF iterations               ...     2710.230 sec (=  45.170 min)  99.6 %
                             ****ORCA TERMINATED NORMALLY****
TOTAL RUN TIME: 0 days 0 hours 45 minutes 20 seconds 819 msec
