
                                 *****************
                                 * O   R   C   A *
                                 *****************

                                            #,                                       
                                            ###                                      
                                            ####                                     
                                            #####                                    
                                            ######                                   
                                           ########,                                 
                                     ,,################,,,,,                         
                               ,,#################################,,                 
                          ,,##########################################,,             
                       ,#########################################, ''#####,          
                    ,#############################################,,   '####,        
                  ,##################################################,,,,####,       
                ,###########''''           ''''###############################       
              ,#####''   ,,,,##########,,,,          '''####'''          '####       
            ,##' ,,,,###########################,,,                        '##       
           ' ,,###''''                  '''############,,,                           
         ,,##''                                '''############,,,,        ,,,,,,###''
      ,#''                                            '''#######################'''  
     '                                                          ''''####''''         
             ,#######,   #######,   ,#######,      ##                                
            ,#'     '#,  ##    ##  ,#'     '#,    #''#        ######   ,####,        
            ##       ##  ##   ,#'  ##            #'  '#       #        #'  '#        
            ##       ##  #######   ##           ,######,      #####,   #    #        
            '#,     ,#'  ##    ##  '#,     ,#' ,#      #,         ##   #,  ,#        
             '#######'   ##     ##  '#######'  #'      '#     #####' # '####'        



                  #######################################################
                  #                        -***-                        #
                  #          Department of theory and spectroscopy      #
                  #    Directorship and core code : Frank Neese         #
                  #        Max Planck Institute fuer Kohlenforschung    #
                  #                Kaiser Wilhelm Platz 1               #
                  #                 D-45470 Muelheim/Ruhr               #
                  #                      Germany                        #
                  #                                                     #
                  #                  All rights reserved                #
                  #                        -***-                        #
                  #######################################################


                         Program Version 5.0.3 -  RELEASE  -


 With contributions from (in alphabetic order):
   Daniel Aravena         : Magnetic Suceptibility
   Michael Atanasov       : Ab Initio Ligand Field Theory (pilot matlab implementation)
   Alexander A. Auer      : GIAO ZORA, VPT2 properties, NMR spectrum
   Ute Becker             : Parallelization
   Giovanni Bistoni       : ED, misc. LED, open-shell LED, HFLD
   Martin Brehm           : Molecular dynamics
   Dmytro Bykov           : SCF Hessian
   Vijay G. Chilkuri      : MRCI spin determinant printing, contributions to CSF-ICE
   Dipayan Datta          : RHF DLPNO-CCSD density
   Achintya Kumar Dutta   : EOM-CC, STEOM-CC
   Dmitry Ganyushin       : Spin-Orbit,Spin-Spin,Magnetic field MRCI
   Miquel Garcia          : C-PCM and meta-GGA Hessian, CC/C-PCM, Gaussian charge scheme
   Yang Guo               : DLPNO-NEVPT2, F12-NEVPT2, CIM, IAO-localization
   Andreas Hansen         : Spin unrestricted coupled pair/coupled cluster methods
   Benjamin Helmich-Paris : MC-RPA, TRAH-SCF, COSX integrals
   Lee Huntington         : MR-EOM, pCC
   Robert Izsak           : Overlap fitted RIJCOSX, COSX-SCS-MP3, EOM
   Marcus Kettner         : VPT2
   Christian Kollmar      : KDIIS, OOCD, Brueckner-CCSD(T), CCSD density, CASPT2, CASPT2-K
   Simone Kossmann        : Meta GGA functionals, TD-DFT gradient, OOMP2, MP2 Hessian
   Martin Krupicka        : Initial AUTO-CI
   Lucas Lang             : DCDCAS
   Marvin Lechner         : AUTO-CI (C++ implementation), FIC-MRCC
   Dagmar Lenk            : GEPOL surface, SMD
   Dimitrios Liakos       : Extrapolation schemes; Compound Job, initial MDCI parallelization
   Dimitrios Manganas     : Further ROCIS development; embedding schemes
   Dimitrios Pantazis     : SARC Basis sets
   Anastasios Papadopoulos: AUTO-CI, single reference methods and gradients
   Taras Petrenko         : DFT Hessian,TD-DFT gradient, ASA, ECA, R-Raman, ABS, FL, XAS/XES, NRVS
   Peter Pinski           : DLPNO-MP2, DLPNO-MP2 Gradient
   Christoph Reimann      : Effective Core Potentials
   Marius Retegan         : Local ZFS, SOC
   Christoph Riplinger    : Optimizer, TS searches, QM/MM, DLPNO-CCSD(T), (RO)-DLPNO pert. Triples
   Tobias Risthaus        : Range-separated hybrids, TD-DFT gradient, RPA, STAB
   Michael Roemelt        : Original ROCIS implementation
   Masaaki Saitow         : Open-shell DLPNO-CCSD energy and density
   Barbara Sandhoefer     : DKH picture change effects
   Avijit Sen             : IP-ROCIS
   Kantharuban Sivalingam : CASSCF convergence, NEVPT2, FIC-MRCI
   Bernardo de Souza      : ESD, SOC TD-DFT
   Georgi Stoychev        : AutoAux, RI-MP2 NMR, DLPNO-MP2 response
   Willem Van den Heuvel  : Paramagnetic NMR
   Boris Wezisla          : Elementary symmetry handling
   Frank Wennmohs         : Technical directorship


 We gratefully acknowledge several colleagues who have allowed us to
 interface, adapt or use parts of their codes:
   Stefan Grimme, W. Hujo, H. Kruse, P. Pracht,  : VdW corrections, initial TS optimization,
                  C. Bannwarth, S. Ehlert          DFT functionals, gCP, sTDA/sTD-DF
   Ed Valeev, F. Pavosevic, A. Kumar             : LibInt (2-el integral package), F12 methods
   Garnet Chan, S. Sharma, J. Yang, R. Olivares  : DMRG
   Ulf Ekstrom                                   : XCFun DFT Library
   Mihaly Kallay                                 : mrcc  (arbitrary order and MRCC methods)
   Jiri Pittner, Ondrej Demel                    : Mk-CCSD
   Frank Weinhold                                : gennbo (NPA and NBO analysis)
   Christopher J. Cramer and Donald G. Truhlar   : smd solvation model
   Lars Goerigk                                  : TD-DFT with DH, B97 family of functionals
   V. Asgeirsson, H. Jonsson                     : NEB implementation
   FAccTs GmbH                                   : IRC, NEB, NEB-TS, DLPNO-Multilevel, CI-OPT
                                                   MM, QMMM, 2- and 3-layer-ONIOM, Crystal-QMMM,
                                                   LR-CPCM, SF, NACMEs, symmetry and pop. for TD-DFT,
                                                   nearIR, NL-DFT gradient (VV10), updates on ESD,
                                                   ML-optimized integration grids
   S Lehtola, MJT Oliveira, MAL Marques          : LibXC Library
   Liviu Ungur et al                             : ANISO software


 Your calculation uses the libint2 library for the computation of 2-el integrals
 For citations please refer to: http://libint.valeyev.net

 Your ORCA version has been built with support for libXC version: 5.1.0
 For citations please refer to: https://tddft.org/programs/libxc/

 This ORCA versions uses:
   CBLAS   interface :  Fast vector & matrix operations
   LAPACKE interface :  Fast linear algebra routines
   SCALAPACK package :  Parallel linear algebra routines
   Shared memory     :  Shared parallel matrices
   BLAS/LAPACK       :  OpenBLAS 0.3.15  USE64BITINT DYNAMIC_ARCH NO_AFFINITY Sandybridge SINGLE_THREADED
        Core in use  :  Sandybridge
   Copyright (c) 2011-2014, The OpenBLAS Project




***************************************
The coordinates will be read from file: 5.xyz
***************************************


================================================================================

cite the ECPs for Au [Def2-ECP] as follows:
Ce-Yb(ecp-28): M. Dolg, H. Stoll, H.Preuss, J. Chem. Phys., 1989, 90, 1730-1734.
Y-Cd(ecp-28), Hf-Hg(ecp-46): D. Andrae,U. Haeussermann, M. Dolg, H. Stoll, H. Preuss, Theor. Chim. Acta, 1990, 77, 123-141.
In-Sb(ecp-28), Tl-Bi(ecp-46): B. Metz, H. Stoll, M. Dolg, J. Chem. Phys., 2000, 113, 2563-2569.
Te-Xe(ecp-28), Po-Rn(ecp-46): K. A. Peterson, D. Figgen, E. Goll, H. Stoll, M. Dolg, J. Chem. Phys., 2003, 119, 11113-11123.
Rb(ecp-28), Cs(ecp-46): T. Leininger, A. Nicklass, W. Kuechle, H. Stoll, M. Dolg, A. Bergner, Chem. Phys. Lett., 1996, 255, 274-280.
Sr(ecp-28), Ba(ecp-46): M. Kaupp, P. V. Schleyer, H. Stoll and H. Preuss, J. Chem. Phys., 1991, 94, 1360-1366.
La(ecp-46): M. Dolg, H. Stoll, A. Savin, H. Preuss, Theor. Chim. Acta, 1989, 75, 173-194.
Lu(ecp-28): X. Cao, M. Dolg, J. Chem. Phys., 2001, 115, 7348-7355.

ECP parameters for Au [Def2-ECP] have been obtained from:
TURBOMOLE (7.0.2)

----- Orbital basis set information -----
Your calculation utilizes the basis: def2-TZVP
   F. Weigend and R. Ahlrichs, Phys. Chem. Chem. Phys. 7, 3297 (2005).

----- AuxJ basis set information -----
Your calculation utilizes the auxiliary basis: def2/J
   F. Weigend, Phys. Chem. Chem. Phys. 8, 1057 (2006).

================================================================================
                                        WARNINGS
                       Please study these warnings very carefully!
================================================================================


WARNING: your system is open-shell and RHF/RKS was chosen
  ===> : WILL SWITCH to UHF/UKS


WARNING: Geometry Optimization
  ===> : Switching off AutoStart
         For restart on a previous wavefunction, please use MOREAD

INFO   : the flag for use of the SHARK integral package has been found!

================================================================================
                                       INPUT FILE
================================================================================
NAME = pbe.inp
|  1> %pal nprocs 16 end 
|  2> 
|  3> !PBE def2-TZVP OPT UNO
|  4> !SLOWCONV KDIIS 
|  5> 
|  6> %geom maxiter 300 end
|  7> 
|  8> *xyzfile 0 3 5.xyz                           ****END OF INPUT****
================================================================================

                       *****************************
                       * Geometry Optimization Run *
                       *****************************

Geometry optimization settings:
Update method            Update   .... BFGS
Choice of coordinates    CoordSys .... Z-matrix Internals
Initial Hessian          InHess   .... Almoef's Model

Convergence Tolerances:
Energy Change            TolE     ....  5.0000e-06 Eh
Max. Gradient            TolMAXG  ....  3.0000e-04 Eh/bohr
RMS Gradient             TolRMSG  ....  1.0000e-04 Eh/bohr
Max. Displacement        TolMAXD  ....  4.0000e-03 bohr
RMS Displacement         TolRMSD  ....  2.0000e-03 bohr
Strict Convergence                ....  False
------------------------------------------------------------------------------
                        ORCA OPTIMIZATION COORDINATE SETUP
------------------------------------------------------------------------------

The optimization will be done in new redundant internal coordinates
Making redundant internal coordinates   ...  (new redundants) done
Evaluating the initial hessian          ...  (Almloef) done
Evaluating the coordinates              ...  done
Calculating the B-matrix                .... done
Calculating the G-matrix                .... done
Diagonalizing the G-matrix              .... done
The first mode is                       ....   71
The number of degrees of freedom        ....   33

    -----------------------------------------------------------------
                    Redundant Internal Coordinates


    -----------------------------------------------------------------
         Definition                    Initial Value    Approx d2E/dq
    -----------------------------------------------------------------
      1. B(Au  1,Au  0)                  2.7958         0.006918   
      2. B(Au  4,Au  1)                  2.7443         0.008360   
      3. B(Au 11,Au  1)                  2.7443         0.008359   
      4. B(Fe 12,Au  3)                  2.6549         0.084417   
      5. B(Fe 12,Au  6)                  2.7067         0.069791   
      6. B(Fe 12,Au  7)                  2.6517         0.085391   
      7. B(Fe 12,Au  5)                  2.7346         0.062990   
      8. B(Fe 12,Au  9)                  2.7067         0.069776   
      9. B(Fe 12,Au 10)                  2.6618         0.082281   
     10. B(Fe 12,Au 11)                  2.8533         0.040719   
     11. B(Fe 12,Au  8)                  2.6618         0.082288   
     12. B(Fe 12,Au  4)                  2.8534         0.040711   
     13. B(Fe 12,Au  2)                  2.7346         0.062987   
     14. B(Fe 12,Au  0)                  2.7891         0.051564   
     15. A(Au  1,Au  0,Fe 12)          102.1287         0.176433   
     16. A(Au  0,Au  1,Au 11)           65.5817         0.140644   
     17. A(Au  0,Au  1,Au  4)           65.5839         0.140645   
     18. A(Au  4,Au  1,Au 11)           69.9457         0.142905   
     19. A(Au  1,Au  4,Fe 12)          101.7871         0.175507   
     20. A(Au  1,Au 11,Fe 12)          101.7881         0.175509   
     21. A(Au  0,Fe 12,Au  5)           63.1740         0.250660   
     22. A(Au  3,Fe 12,Au  4)          115.9987         0.252739   
     23. A(Au  2,Fe 12,Au  3)           63.0601         0.269738   
     24. A(Au  0,Fe 12,Au  6)          118.6660         0.254455   
     25. A(Au  2,Fe 12,Au  6)           65.1204         0.262120   
     26. A(Au  3,Fe 12,Au  6)           65.5626         0.273984   
     27. A(Au  5,Fe 12,Au  6)          117.3208         0.262123   
     28. A(Au  0,Fe 12,Au  7)          115.5711         0.262185   
     29. A(Au  4,Fe 12,Au  5)           62.3084         0.242240   
     30. A(Au  2,Fe 12,Au  4)          118.0259         0.242238   
     31. A(Au  6,Fe 12,Au  7)          115.5429         0.274465   
     32. A(Au  5,Fe 12,Au  7)          116.5136         0.270211   
     33. A(Au  0,Fe 12,Au  8)          115.8225         0.260740   
     34. A(Au  3,Fe 12,Au  8)          116.8795         0.281011   
     35. A(Au  4,Fe 12,Au  8)           60.9929         0.251795   
     36. A(Au  5,Fe 12,Au  8)           63.4368         0.268699   
     37. A(Au  6,Fe 12,Au  8)          115.8648         0.272918   
     38. A(Au  7,Fe 12,Au  8)           63.5178         0.281510   
     39. A(Au  0,Fe 12,Au  9)          118.6687         0.254447   
     40. A(Au  2,Fe 12,Au  9)          117.3220         0.262112   
     41. A(Au  3,Fe 12,Au  9)           65.5640         0.273975   
     42. A(Au  4,Fe 12,Au  9)          115.2336         0.245830   
     43. A(Au  5,Fe 12,Au  9)           65.1201         0.262114   
     44. A(Au  6,Fe 12,Au  9)           62.5179         0.266178   
     45. A(Au  3,Fe 12,Au  5)           63.0607         0.269741   
     46. A(Au  2,Fe 12,Au 10)           63.4392         0.268693   
     47. A(Au  0,Fe 12,Au 10)          115.8204         0.260736   
     48. A(Au  4,Fe 12,Au  7)           62.9393         0.253165   
     49. A(Au  3,Fe 12,Au 10)          116.8813         0.281007   
     50. A(Au  4,Fe 12,Au 10)          117.1391         0.251792   
     51. A(Au  6,Fe 12,Au 10)           63.2855         0.272914   
     52. A(Au  7,Fe 12,Au 10)           63.5183         0.281506   
     53. A(Au  8,Fe 12,Au 10)          117.1978         0.279900   
     54. A(Au  9,Fe 12,Au 10)          115.8650         0.272905   
     55. A(Au  0,Fe 12,Au 11)           64.2450         0.235459   
     56. A(Au  2,Fe 12,Au 11)           62.3084         0.242244   
     57. A(Au  3,Fe 12,Au 11)          115.9988         0.252746   
     58. A(Au  4,Fe 12,Au 11)           66.9105         0.227831   
     59. A(Au  5,Fe 12,Au 11)          118.0268         0.242246   
     60. A(Au  6,Fe 12,Au 11)          115.2339         0.245844   
     61. A(Au  7,Fe 12,Au 11)           62.9406         0.253172   
     62. A(Au  8,Fe 12,Au 11)          117.1407         0.251802   
     63. A(Au 10,Fe 12,Au 11)           60.9920         0.251799   
     64. A(Au  8,Fe 12,Au  9)           63.2829         0.272909   
     65. A(Au  7,Fe 12,Au  9)          115.5402         0.274456   
     66. A(Au  2,Fe 12,Au  7)          116.5164         0.270209   
     67. A(Au  2,Fe 12,Au  5)          115.9130         0.258149   
     68. A(Au  0,Fe 12,Au  4)           64.2463         0.235452   
     69. A(Au  0,Fe 12,Au  3)           63.0814         0.261735   
     70. A(Au  0,Fe 12,Au  2)           63.1705         0.250657   
     71. D(Au  4,Au  1,Au  0,Fe 12)     39.0119         0.001501   
     72. D(Au 11,Au  1,Au  0,Fe 12)    -39.0132         0.001501   
     73. D(Fe 12,Au  4,Au  1,Au 11)     33.5664         0.001502   
     74. D(Fe 12,Au  4,Au  1,Au  0)    -37.9166         0.001502   
     75. D(Fe 12,Au 11,Au  1,Au  0)     37.9188         0.001502   
     76. D(Fe 12,Au 11,Au  1,Au  4)    -33.5672         0.001502   
     77. D(Au  2,Fe 12,Au  0,Au  1)    108.2179         0.001514   
     78. D(Au 10,Fe 12,Au  4,Au  1)    -68.7061         0.001509   
     79. D(Au  7,Fe 12,Au  0,Au  1)      0.0008         0.001514   
     80. D(Au  6,Fe 12,Au  0,Au  1)    143.7448         0.001514   
     81. D(Au 11,Fe 12,Au  4,Au  1)    -32.8908         0.001509   
     82. D(Au  8,Fe 12,Au  0,Au  1)    -71.4797         0.001514   
     83. D(Au  9,Fe 12,Au  0,Au  1)   -143.7422         0.001514   
     84. D(Au 10,Fe 12,Au  0,Au  1)     71.4810         0.001514   
     85. D(Au  5,Fe 12,Au  4,Au  1)    110.2986         0.001509   
     86. D(Au  5,Fe 12,Au  0,Au  1)   -108.2144         0.001514   
     87. D(Au  3,Fe 12,Au  4,Au  1)     75.9088         0.001509   
     88. D(Au  2,Fe 12,Au  4,Au  1)      4.0540         0.001509   
     89. D(Au  4,Fe 12,Au  0,Au  1)    -37.7396         0.001514   
     90. D(Au  7,Fe 12,Au  4,Au  1)   -103.1641         0.001509   
     91. D(Au  8,Fe 12,Au  4,Au  1)   -176.3480         0.001509   
     92. D(Au  9,Fe 12,Au  4,Au  1)    149.7107         0.001509   
     93. D(Au  0,Fe 12,Au  4,Au  1)     38.5193         0.001509   
     94. D(Au  8,Fe 12,Au 11,Au  1)     68.7055         0.001509   
     95. D(Au  0,Fe 12,Au 11,Au  1)    -38.5213         0.001509   
     96. D(Au  2,Fe 12,Au 11,Au  1)   -110.2970         0.001509   
     97. D(Au  3,Fe 12,Au 11,Au  1)    -75.9086         0.001509   
     98. D(Au  4,Fe 12,Au 11,Au  1)     32.8908         0.001509   
     99. D(Au  5,Fe 12,Au 11,Au  1)     -4.0528         0.001509   
    100. D(Au  6,Fe 12,Au 11,Au  1)   -149.7091         0.001509   
    101. D(Au  7,Fe 12,Au 11,Au  1)    103.1622         0.001509   
    102. D(Au 11,Fe 12,Au  0,Au  1)     37.7415         0.001514   
    103. D(Au 10,Fe 12,Au 11,Au  1)    176.3464         0.001509   
    104. D(Au  3,Fe 12,Au  0,Au  1)   -179.9979         0.001514   
    -----------------------------------------------------------------

Number of atoms                         .... 13
Number of degrees of freedom            .... 104

         *************************************************************
         *                GEOMETRY OPTIMIZATION CYCLE   1            *
         *************************************************************
---------------------------------
CARTESIAN COORDINATES (ANGSTROEM)
---------------------------------
  Au     8.320575    7.334478   11.057904
  Au    10.208936    8.997348   12.276797
  Au     9.528943    4.917843   10.022574
  Au     7.063982    5.821481    8.995256
  Au     9.576092    9.697601    9.699889
  Au     7.035406    8.634799    8.815031
  Au     9.044281    4.794604    7.137093
  Au    11.535454    8.488615    7.971207
  Au     9.068735    9.340745    6.965614
  Au     7.533380    7.046819    6.405363
  Au    11.512921    5.697550    8.149160
  Au    11.268265    7.175169   10.519285
  Fe     9.300307    7.145724    8.453421

----------------------------
CARTESIAN COORDINATES (A.U.)
----------------------------
  NO LB      ZA    FRAG     MASS         X           Y           Z
   0 Au   19.0000*   0   196.966   15.723607   13.860155   20.896411
   1 Au   19.0000*   0   196.966   19.292093   17.002524   23.199785
   2 Au   19.0000*   0   196.966   18.007092    9.293377   18.939920
   3 Au   19.0000*   0   196.966   13.348992   11.001004   16.998570
   4 Au   19.0000*   0   196.966   18.096191   18.325810   18.330135
   5 Au   19.0000*   0   196.966   13.294990   16.317406   16.657995
   6 Au   19.0000*   0   196.966   17.091214    9.060488   13.487150
   7 Au   19.0000*   0   196.966   21.798849   16.041157   15.063399
   8 Au   19.0000*   0   196.966   17.137425   17.651449   13.163103
   9 Au   19.0000*   0   196.966   14.236025   13.316557   12.104383
  10 Au   19.0000*   0   196.966   21.756267   10.766808   15.399681
  11 Au   19.0000*   0   196.966   21.293935   13.559105   19.878568
  12 Fe   26.0000    0    55.850   17.575033   13.503462   15.974650
* core charge reduced due to ECP

--------------------------------
INTERNAL COORDINATES (ANGSTROEM)
--------------------------------
 Au     0   0   0     0.000000000000     0.00000000     0.00000000
 Au     1   0   0     2.795844569010     0.00000000     0.00000000
 Au     1   2   0     2.893473004984   111.75741719     0.00000000
 Au     3   1   2     2.819215026114    59.83712273   201.90694492
 Au     2   1   3     2.744321334546    65.58393005    98.61305942
 Au     4   3   1     2.819230478769   110.61051672    37.97350257
 Au     4   3   1     2.903244526634    61.54082288   138.56218302
 Au     5   2   1     2.879078136617   107.44051802   265.24406335
 Au     8   5   2     2.796792253637    59.18345640   160.49039268
 Au     7   4   3     2.809042853907    61.06966307   219.73908615
 Au     8   5   2     2.796823213149   112.04720351    61.27150374
 Au     2   1   3     2.744333195286    65.58169360    20.58802515
 Fe     8   5   2     2.651748111354    61.95495773    92.40380896

---------------------------
INTERNAL COORDINATES (A.U.)
---------------------------
 Au     0   0   0     0.000000000000     0.00000000     0.00000000
 Au     1   0   0     5.283380548439     0.00000000     0.00000000
 Au     1   2   0     5.467871555313   111.75741719     0.00000000
 Au     3   1   2     5.327544311991    59.83712273   201.90694492
 Au     2   1   3     5.186015745770    65.58393005    98.61305942
 Au     4   3   1     5.327573513278   110.61051672    37.97350257
 Au     4   3   1     5.486337055144    61.54082288   138.56218302
 Au     5   2   1     5.440669196367   107.44051802   265.24406335
 Au     8   5   2     5.285171412847    59.18345640   160.49039268
 Au     7   4   3     5.308321692333    61.06966307   219.73908615
 Au     8   5   2     5.285229917845   112.04720351    61.27150374
 Au     2   1   3     5.186038159320    65.58169360    20.58802515
 Fe     8   5   2     5.011077706601    61.95495773    92.40380896

---------------------
BASIS SET INFORMATION
---------------------
There are 2 groups of distinct atoms

 Group   1 Type Au  : 8s7p6d1f contracted to 6s4p3d1f pattern {311111/4111/411/1}
 Group   2 Type Fe  : 17s11p7d1f contracted to 6s4p4d1f pattern {842111/6311/4111/1}

Atom   0Au   basis set group =>   1
Atom   1Au   basis set group =>   1
Atom   2Au   basis set group =>   1
Atom   3Au   basis set group =>   1
Atom   4Au   basis set group =>   1
Atom   5Au   basis set group =>   1
Atom   6Au   basis set group =>   1
Atom   7Au   basis set group =>   1
Atom   8Au   basis set group =>   1
Atom   9Au   basis set group =>   1
Atom  10Au   basis set group =>   1
Atom  11Au   basis set group =>   1
Atom  12Fe   basis set group =>   2
---------------------------------
AUXILIARY/J BASIS SET INFORMATION
---------------------------------
There are 2 groups of distinct atoms

 Group   1 Type Au  : 11s5p5d3f3g contracted to 8s5p5d2f3g pattern {41111111/11111/11111/21/111}
 Group   2 Type Fe  : 19s5p5d3f3g contracted to 8s5p5d2f3g pattern {121111111/11111/11111/21/111}

Atom   0Au   basis set group =>   1
Atom   1Au   basis set group =>   1
Atom   2Au   basis set group =>   1
Atom   3Au   basis set group =>   1
Atom   4Au   basis set group =>   1
Atom   5Au   basis set group =>   1
Atom   6Au   basis set group =>   1
Atom   7Au   basis set group =>   1
Atom   8Au   basis set group =>   1
Atom   9Au   basis set group =>   1
Atom  10Au   basis set group =>   1
Atom  11Au   basis set group =>   1
Atom  12Fe   basis set group =>   2
-------------------------
ECP PARAMETER INFORMATION
-------------------------

 Group 1, Type Au ECP Def2-ECP (replacing 60 core electrons, lmax=3)

Atom   0Au   ECP group =>   1
Atom   1Au   ECP group =>   1
Atom   2Au   ECP group =>   1
Atom   3Au   ECP group =>   1
Atom   4Au   ECP group =>   1
Atom   5Au   ECP group =>   1
Atom   6Au   ECP group =>   1
Atom   7Au   ECP group =>   1
Atom   8Au   ECP group =>   1
Atom   9Au   ECP group =>   1
Atom  10Au   ECP group =>   1
Atom  11Au   ECP group =>   1



           ************************************************************
           *        Program running with 16 parallel MPI-processes    *
           *              working on a common directory               *
           ************************************************************
------------------------------------------------------------------------------
                           ORCA GTO INTEGRAL CALCULATION
                           -- RI-GTO INTEGRALS CHOSEN --
------------------------------------------------------------------------------
------------------------------------------------------------------------------
                   ___                                                        
                  /   \      - P O W E R E D   B Y -                         
                 /     \                                                     
                 |  |  |   _    _      __       _____    __    __             
                 |  |  |  | |  | |    /  \     |  _  \  |  |  /  |          
                  \  \/   | |  | |   /    \    | | | |  |  | /  /          
                 / \  \   | |__| |  /  /\  \   | |_| |  |  |/  /          
                |  |  |   |  __  | /  /__\  \  |    /   |      \           
                |  |  |   | |  | | |   __   |  |    \   |  |\   \          
                \     /   | |  | | |  |  |  |  | |\  \  |  | \   \       
                 \___/    |_|  |_| |__|  |__|  |_| \__\ |__|  \__/        
                                                                              
                      - O R C A' S   B I G   F R I E N D -                    
                                      &                                       
                       - I N T E G R A L  F E E D E R -                       
                                                                              
 v1 FN, 2020, v2 2021                                                         
------------------------------------------------------------------------------


Reading SHARK input file pbe.SHARKINP.tmp ... ok
----------------------
SHARK INTEGRAL PACKAGE
----------------------

Number of atoms                             ...     13
Number of basis functions                   ...    525
Number of shells                            ...    183
Maximum angular momentum                    ...      3
Integral batch strategy                     ... SHARK/LIBINT Hybrid
RI-J (if used) integral strategy            ... SPLIT-RIJ (Revised 2003 algorithm where possible)
Printlevel                                  ...      1
Contraction scheme used                     ... SEGMENTED contraction
Coulomb Range Separation                    ... NOT USED
Exchange Range Separation                   ... NOT USED
Finite Nucleus Model                        ... NOT USED
Auxiliary Coulomb fitting basis             ... AVAILABLE
   # of basis functions in Aux-J            ...   1157
   # of shells in Aux-J                     ...    299
   Maximum angular momentum in Aux-J        ...      4
Auxiliary J/K fitting basis                 ... NOT available
Auxiliary Correlation fitting basis         ... NOT available
Auxiliary 'external' fitting basis          ... NOT available
Integral threshold                          ...     2.500000e-11
Primitive cut-off                           ...     2.500000e-12
Primitive pair pre-selection threshold      ...     2.500000e-12

Calculating pre-screening integrals         ... done (  0.1 sec) Dimension = 183
Organizing shell pair data                  ... done (  0.8 sec)
Shell pair information
Total number of shell pairs                 ...     16836
Shell pairs after pre-screening             ...     14036
Total number of primitive shell pairs       ...     45389
Primitive shell pairs kept                  ...     27752
          la=0 lb=0:   2174 shell pairs
          la=1 lb=0:   3228 shell pairs
          la=1 lb=1:   1201 shell pairs
          la=2 lb=0:   2792 shell pairs
          la=2 lb=1:   1949 shell pairs
          la=2 lb=2:    804 shell pairs
          la=3 lb=0:    741 shell pairs
          la=3 lb=1:    572 shell pairs
          la=3 lb=2:    494 shell pairs
          la=3 lb=3:     81 shell pairs

Calculating one electron integrals          ... done (  0.0 sec)
Calculating ECP integrals                   ... done (  8.4 sec)
Calculating RI/J V-Matrix + Cholesky decomp.... done (  0.1 sec)
Calculating Nuclear repulsion               ... done (  0.0 sec) ENN=   4473.814741534751 Eh

SHARK setup successfully completed in   9.8 seconds

Maximum memory used throughout the entire GTOINT-calculation: 31.1 MB


           ************************************************************
           *        Program running with 16 parallel MPI-processes    *
           *              working on a common directory               *
           ************************************************************
-------------------------------------------------------------------------------
                                 ORCA SCF
-------------------------------------------------------------------------------

------------
SCF SETTINGS
------------
Hamiltonian:
 Density Functional     Method          .... DFT(GTOs)
 Exchange Functional    Exchange        .... PBE
   PBE kappa parameter   XKappa         ....  0.804000
   PBE mue parameter    XMuePBE         ....  0.219520
 Correlation Functional Correlation     .... PBE
   PBE beta parameter  CBetaPBE         ....  0.066725
 LDA part of GGA corr.  LDAOpt          .... PW91-LDA
 Gradients option       PostSCFGGA      .... off
   Density functional embedding theory  .... OFF
   NL short-range parameter             ....  6.400000
 RI-approximation to the Coulomb term is turned on
   Number of AuxJ basis functions       .... 1157


General Settings:
 Integral files         IntName         .... pbe
 Hartree-Fock type      HFTyp           .... UHF
 Total Charge           Charge          ....    0
 Multiplicity           Mult            ....    3
 Number of Electrons    NEL             ....  254
 Basis Dimension        Dim             ....  525
 Nuclear Repulsion      ENuc            ....   4473.8147415348 Eh

Convergence Acceleration:
 DIIS                   CNVDIIS         .... off
 Trust-Rad. Augm. Hess. CNVTRAH         .... auto
   Auto Start mean grad. ratio tolernc. ....  1.125000
   Auto Start start iteration           ....    20
   Auto Start num. interpolation iter.  ....    10
   Max. Number of Micro iterations      ....    16
   Max. Number of Macro iterations      .... Maxiter - #DIIS iter
   Number of Davidson start vectors     ....     2
   Converg. threshold I  (grad. norm)   ....   1.000e-05
   Converg. threshold II (energy diff.) ....   1.000e-08
   Grad. Scal. Fac. for Micro threshold ....   0.100
   Minimum threshold for Micro iter.    ....   0.010
   NR start threshold (gradient norm)   ....   0.001
   Initial trust radius                 ....   0.400
   Minimum AH scaling param. (alpha)    ....   1.000
   Maximum AH scaling param. (alpha)    .... 1000.000
   Orbital update algorithm             .... Taylor
   White noise on init. David. guess    .... on
   Maximum white noise                  ....   0.010
   Quad. conv. algorithm                .... NR
 SOSCF                  CNVSOSCF        .... off
 Level Shifting         CNVShift        .... off
 Zerner damping         CNVZerner       .... off
 Static damping         CNVDamp         .... off
 Fernandez-Rico         CNVRico         .... off

SCF Procedure:
 Maximum # iterations   MaxIter         ....   125
 SCF integral mode      SCFMode         .... Direct
   Integral package                     .... SHARK and LIBINT hybrid scheme
 Reset frequency        DirectResetFreq ....    20
 Integral Threshold     Thresh          ....  2.500e-11 Eh
 Primitive CutOff       TCut            ....  2.500e-12 Eh

Convergence Tolerance:
 Convergence Check Mode ConvCheckMode   .... Total+1el-Energy
 Convergence forced     ConvForced      .... 0
 Energy Change          TolE            ....  1.000e-08 Eh
 1-El. energy change                    ....  1.000e-05 Eh


Diagonalization of the overlap matrix:
Smallest eigenvalue                        ... 3.634e-04
Time for diagonalization                   ...    0.076 sec
Threshold for overlap eigenvalues          ... 1.000e-08
Number of eigenvalues below threshold      ... 0
Time for construction of square roots      ...    0.042 sec
Total time needed                          ...    0.120 sec

Time for model grid setup =    0.388 sec

------------------------------
INITIAL GUESS: MODEL POTENTIAL
------------------------------
Loading Hartree-Fock densities                     ... done
  calling /home/ehlert/src/miniconda3/envs/orca500/Programs/ORCA501/orca pbe_atom79.inp > pbe_atom79.out in order to generate an atomic fitting density for atom 0 (Au with ECP) on-the-fly... 
    atom 0 (Au), assumed electronic state with S=2: 1s2 2s2 2p6 3s2 3p6 4s2 3d10 4p6 5s2 4d10 5p6 6s1 4f14 5d10           ... done
Calculating cut-offs                               ... done
Initializing the effective Hamiltonian             ... done
Setting up the integral package (SHARK)            ... done
Starting the Coulomb interaction                   ... done (   0.2 sec)
Reading the grid                                   ... done
Mapping shells                                     ... done
Starting the XC term evaluation                    ... done (   0.2 sec)
  promolecular density results
     # of electrons  =    974.012876982
     EX              =  -4443.976645970
     EC              =    -59.281798117
     EX+EC           =  -4503.258444087
Transforming the Hamiltonian                       ... done (   0.0 sec)
Diagonalizing the Hamiltonian                      ... done (   0.1 sec)
Back transforming the eigenvectors                 ... done (   0.0 sec)
Now organizing SCF variables                       ... done
                      ------------------
                      INITIAL GUESS DONE (   1.7 sec)
                      ------------------
-------------------
DFT GRID GENERATION
-------------------

General Integration Accuracy     IntAcc      ... 4.388
Radial Grid Type                 RadialGrid  ... OptM3 with GC (2021)
Angular Grid (max. ang.)         AngularGrid ... 4 (Lebedev-302)
Angular grid pruning method      GridPruning ... 4 (adaptive)
Weight generation scheme         WeightScheme... Becke
Basis function cutoff            BFCut       ... 1.0000e-11
Integration weight cutoff        WCut        ... 1.0000e-14
Angular grids for H and He will be reduced by one unit
Partially contracted basis set               ... off
Rotationally invariant grid construction     ... off

Total number of grid points                  ...   144453
Total number of batches                      ...     2265
Average number of points per batch           ...       63
Average number of grid points per atom       ...    11112
Time for grid setup =    1.377 sec

--------------
SCF ITERATIONS
--------------
ITER       Energy         Delta-E        Max-DP      RMS-DP      [F,P]   Gradient Norm
               ***  Starting incremental Fock matrix formation  ***
                             ****Resetting KDIIS****
                             ****Turning on KDIIS(Cayley)****
  0  -2890.0370074908   0.000000000000 0.42471815  0.00216473  0.4053317   0.260461497
  1  -2892.1355968574  -2.098589366563 0.66290753  0.00250527  0.3625305   0.173007072
  2  -2892.9050949721  -0.769498114674 0.12229065  0.00149486  0.2865033   0.124448556
  3  -2893.1549026295  -0.249807657428 0.13377462  0.00146628  0.1668688   0.075666907
  4  -2893.1842264580  -0.029323828459 0.06791969  0.00046585  0.0739295   0.034661005
  5  -2893.2679607270  -0.083734269057 0.27543891  0.00087578  0.0431440   0.012441166
  6  -2893.3055172681  -0.037556541114 0.09868556  0.00114158  0.0425398   0.015144600
  7  -2893.3355004232  -0.029983155106 0.13625502  0.00046950  0.0226195   0.014235281
  8  -2893.3461574253  -0.010657002101 0.02151577  0.00020340  0.0292969   0.014819147
  9  -2893.3593681602  -0.013210734885 0.01163333  0.00012736  0.0075262   0.005260537
 10  -2893.3620049944  -0.002636834122 0.02586394  0.00021355  0.0102529   0.002937619
 11  -2893.3672235660  -0.005218571668 0.00992334  0.00008090  0.0071240   0.002439677
 12  -2893.3681359730  -0.000912407004 0.03413775  0.00021986  0.0064942   0.002337528
 13  -2893.3729041598  -0.004768186730 0.01998248  0.00024421  0.0062096   0.002209955
 14  -2893.3776978160  -0.004793656219 0.01716182  0.00016273  0.0071488   0.001486580
 15  -2893.3800394544  -0.002341638385 0.01427611  0.00007473  0.0081329   0.003033382
 16  -2893.3809742997  -0.000934845303 0.00960418  0.00007154  0.0060226   0.001776303
 17  -2893.3819120971  -0.000937797399 0.02132019  0.00024343  0.0073535   0.001606250
 18  -2893.3849838223  -0.003071725266 0.02557335  0.00011369  0.0047272   0.001701375
 19  -2893.3856842641  -0.000700441815 0.02043493  0.00007552  0.0047346   0.002450512
               *** Restarting incremental Fock matrix formation ***
                             ****Resetting KDIIS****

 WARNING: the maximum gradient error descreased on average only by a factor   1.1
          during the last 20 iterations

                      *** Initiating the TRAH-SCF procedure ***

                    *** KDIIS BlockDiag ( 0.182 sec) ***

TRAH GRID
---------

General Integration Accuracy     IntAcc      ... 3.467
Radial Grid Type                 RadialGrid  ... OptM3 with GC (2021)
Angular Grid (max. ang.)         AngularGrid ... 1 (Lebedev-50)
Angular grid pruning method      GridPruning ... 4 (adaptive)
Weight generation scheme         WeightScheme... Becke
Basis function cutoff            BFCut       ... 1.0000e-11
Integration weight cutoff        WCut        ... 1.0000e-14
Angular grids for H and He will be reduced by one unit
Partially contracted basis set               ... off
Rotationally invariant grid construction     ... off

Total number of grid points                  ...    62307
Total number of batches                      ...      978
Average number of points per batch           ...       63
Average number of grid points per atom       ...     4793

 --------------------------------------------------------------------------------------------
   Iter.        energy            ||Error||_2        Shift      TRadius  Mac/Mic        Rej.
 --------------------------------------------------------------------------------------------
    0      -2893.385806138926     2.594944e-02                     0.400 (TRAH MAcro)   No
WARNING : small    HOMO - LUMO gap : (op = alpha) 0.005564
    0     dE    -1.478610e-04     4.508345e-02    -1.4786e-04      0.006 (TRAH MIcro)
    0     dE    -1.189385e-03     3.416912e-02    -1.1736e-03      0.116 (TRAH MIcro)
    0     dE    -1.536845e-03     3.767455e-02    -1.5030e-03      0.150 (TRAH MIcro)
    0     dE    -2.270032e-03     2.274936e-02    -2.1537e-03      0.232 (TRAH MIcro)
    0     dE    -2.444810e-03     8.897488e-03    -2.2967e-03      0.254 (TRAH MIcro)
    0     dE    -2.522109e-03     8.570430e-03    -2.3591e-03      0.263 (TRAH MIcro)
    0     dE    -2.557166e-03     4.171045e-03    -2.3892e-03      0.265 (TRAH MIcro)
    0     dE    -2.565097e-03     1.637670e-03    -2.3953e-03      0.266 (TRAH MIcro)
    1      -2893.387935464005     1.483418e-02                     0.480 (TRAH MAcro)   No
WARNING : small    HOMO - LUMO gap : (op = alpha) 0.006576
    1     dE    -4.215659e-05     9.547741e-03    -4.2156e-05      0.003 (TRAH MIcro)
    1     dE    -7.694147e-05     3.691736e-03    -7.6934e-05      0.010 (TRAH MIcro)
    1     dE    -1.262186e-04     3.943826e-03    -1.2609e-04      0.033 (TRAH MIcro)
    1     dE    -1.342850e-04     1.986207e-03    -1.3409e-04      0.038 (TRAH MIcro)
    1     dE    -1.368018e-04     1.232854e-03    -1.3658e-04      0.040 (TRAH MIcro)
    2      -2893.388074873680     1.250900e-03                     0.576 (TRAH MAcro)   No
WARNING : small    HOMO - LUMO gap : (op = alpha) 0.006630
    2     dE    -3.007654e-07     2.585220e-03    -3.0077e-07      0.000 (TRAH MIcro)
    2     dE    -1.144019e-06     7.299756e-04    -1.1440e-06      0.003 (TRAH MIcro)
    2     dE    -1.724393e-06     1.146830e-03    -1.7243e-06      0.006 (TRAH MIcro)
    2     dE    -1.898438e-06     1.106280e-03    -1.8984e-06      0.007 (TRAH MIcro)
    2     dE    -2.244940e-06     3.915180e-04    -2.2448e-06      0.009 (TRAH MIcro)
    2     dE    -2.380966e-06     3.246597e-04    -2.3807e-06      0.010 (TRAH MIcro)
    2     dE    -2.470481e-06     2.564287e-04    -2.4702e-06      0.012 (TRAH MIcro)
    2     dE    -2.506331e-06     1.548908e-04    -2.5060e-06      0.012 (TRAH MIcro)
    2     dE    -2.520732e-06     8.127980e-05    -2.5203e-06      0.012 (TRAH MIcro)
    3      -2893.388077358914     8.324068e-05                           (NR   MAcro)
WARNING : small    HOMO - LUMO gap : (op = alpha) 0.006612
    3     dE    -2.551010e-09     7.216847e-05                           (NR   MIcro)
    3     dE    -4.034459e-09     3.814576e-05                           (NR   MIcro)
    3     dE    -5.563509e-09     3.240994e-05                           (NR   MIcro)
    3     dE    -6.223355e-09     1.958183e-05                           (NR   MIcro)
    3     dE    -6.456606e-09     1.005552e-05                           (NR   MIcro)
    3     dE    -6.527885e-09     6.484321e-06                           (NR   MIcro)
    3     dE    -6.552635e-09     3.621002e-06                           (NR   MIcro)
    3     dE    -6.561588e-09     2.369196e-06                           (NR   MIcro)
    3     dE    -6.567452e-09     1.618467e-06                           (NR   MIcro)
    3     dE    -6.569885e-09     1.436647e-06                           (NR   MIcro)
    3     dE    -6.571207e-09     1.179627e-06                           (NR   MIcro)
    3     dE    -6.572095e-09     4.684337e-07                           (NR   MIcro)
    4      -2893.388077365474     4.829208e-07                           (NR   MAcro)
WARNING : small    HOMO - LUMO gap : (op = alpha) 0.006616

               *****************************************************
               *                     SUCCESS                       *
               *           SCF CONVERGED AFTER  59 CYCLES          *
               *****************************************************


----------------
TOTAL SCF ENERGY
----------------

Total Energy       :        -2893.38807737 Eh          -78733.09230 eV

Components:
Nuclear Repulsion  :         4473.81474153 Eh          121738.68819 eV
Electronic Energy  :        -7367.20281890 Eh         -200471.78049 eV
One Electron Energy:       -13548.24622668 Eh         -368666.52247 eV
Two Electron Energy:         6181.04340778 Eh          168194.74198 eV

Virial components:
Potential Energy   :        -4704.49298682 Eh         -128015.76237 eV
Kinetic Energy     :         1811.10490945 Eh           49282.67007 eV
Virial Ratio       :            2.59758171


DFT components:
N(Alpha)           :      127.999993202219 electrons
N(Beta)            :      125.999992100696 electrons
N(Total)           :      253.999985302915 electrons
E(X)               :     -198.905279104870 Eh       
E(C)               :      -11.098030835977 Eh       
E(XC)              :     -210.003309940847 Eh       
DFET-embed. en.    :        0.000000000000 Eh       

---------------
SCF CONVERGENCE
---------------

  Last Energy change         ...   -6.5597e-09  Tolerance :   1.0000e-08
  Last Orbital Gradient      ...    4.8292e-07  Tolerance :   1.0000e-05
  Last Orbital Rotation      ...    3.0219e-04

             **** THE GBW FILE WAS UPDATED (pbe.gbw) ****
             **** DENSITY pbe.scfp WAS UPDATED ****
             **** ENERGY FILE WAS UPDATED (pbe.en.tmp) ****
----------------------
UHF SPIN CONTAMINATION
----------------------

Warning: in a DFT calculation there is little theoretical justification to 
         calculate <S**2> as in Hartree-Fock theory. We will do it anyways
         but you should keep in mind that the values have only limited relevance

Expectation value of <S**2>     :     3.333950
Ideal value S*(S+1) for S=1.0   :     2.000000
Deviation                       :     1.333950

             **** THE GBW FILE WAS UPDATED (pbe.gbw) ****
             **** DENSITY pbe.scfp WAS UPDATED ****
----------------
ORBITAL ENERGIES
----------------
                 SPIN UP ORBITALS
  NO   OCC          E(Eh)            E(eV) 
   0   1.0000    -254.752143     -6932.1582 
   1   1.0000     -29.588934      -805.1558 
   2   1.0000     -25.528196      -694.6575 
   3   1.0000     -25.526698      -694.6168 
   4   1.0000     -25.518840      -694.4029 
   5   1.0000      -4.029167      -109.6392 
   6   1.0000      -4.028536      -109.6220 
   7   1.0000      -4.025483      -109.5390 
   8   1.0000      -4.025477      -109.5388 
   9   1.0000      -4.025260      -109.5329 
  10   1.0000      -4.025241      -109.5324 
  11   1.0000      -4.023114      -109.4745 
  12   1.0000      -4.023112      -109.4745 
  13   1.0000      -4.022897      -109.4686 
  14   1.0000      -4.018874      -109.3591 
  15   1.0000      -4.013126      -109.2027 
  16   1.0000      -4.013014      -109.1997 
  17   1.0000      -3.364583       -91.5550 
  18   1.0000      -2.245910       -61.1143 
  19   1.0000      -2.243828       -61.0577 
  20   1.0000      -2.243358       -61.0449 
  21   1.0000      -2.243166       -61.0396 
  22   1.0000      -2.242268       -61.0152 
  23   1.0000      -2.241100       -60.9834 
  24   1.0000      -2.240946       -60.9792 
  25   1.0000      -2.240690       -60.9723 
  26   1.0000      -2.240440       -60.9655 
  27   1.0000      -2.240170       -60.9581 
  28   1.0000      -2.239801       -60.9481 
  29   1.0000      -2.238939       -60.9246 
  30   1.0000      -2.238654       -60.9169 
  31   1.0000      -2.237673       -60.8902 
  32   1.0000      -2.237670       -60.8901 
  33   1.0000      -2.237505       -60.8856 
  34   1.0000      -2.236988       -60.8715 
  35   1.0000      -2.236585       -60.8606 
  36   1.0000      -2.236452       -60.8570 
  37   1.0000      -2.235907       -60.8421 
  38   1.0000      -2.235513       -60.8314 
  39   1.0000      -2.235054       -60.8189 
  40   1.0000      -2.234787       -60.8116 
  41   1.0000      -2.234277       -60.7978 
  42   1.0000      -2.234211       -60.7960 
  43   1.0000      -2.233976       -60.7896 
  44   1.0000      -2.233705       -60.7822 
  45   1.0000      -2.232473       -60.7487 
  46   1.0000      -2.229983       -60.6809 
  47   1.0000      -2.229563       -60.6695 
  48   1.0000      -2.229210       -60.6599 
  49   1.0000      -2.228096       -60.6296 
  50   1.0000      -2.226567       -60.5880 
  51   1.0000      -2.224984       -60.5449 
  52   1.0000      -2.223182       -60.4959 
  53   1.0000      -2.222493       -60.4771 
  54   1.0000      -2.185756       -59.4775 
  55   1.0000      -2.183268       -59.4098 
  56   1.0000      -2.165933       -58.9380 
  57   1.0000      -0.431380       -11.7385 
  58   1.0000      -0.382021       -10.3953 
  59   1.0000      -0.381123       -10.3709 
  60   1.0000      -0.378078       -10.2880 
  61   1.0000      -0.373549       -10.1648 
  62   1.0000      -0.367385        -9.9971 
  63   1.0000      -0.363790        -9.8992 
  64   1.0000      -0.357965        -9.7407 
  65   1.0000      -0.356977        -9.7138 
  66   1.0000      -0.346726        -9.4349 
  67   1.0000      -0.343948        -9.3593 
  68   1.0000      -0.343478        -9.3465 
  69   1.0000      -0.342599        -9.3226 
  70   1.0000      -0.337910        -9.1950 
  71   1.0000      -0.336510        -9.1569 
  72   1.0000      -0.334853        -9.1118 
  73   1.0000      -0.330781        -9.0010 
  74   1.0000      -0.329771        -8.9735 
  75   1.0000      -0.328855        -8.9486 
  76   1.0000      -0.322035        -8.7630 
  77   1.0000      -0.321689        -8.7536 
  78   1.0000      -0.318625        -8.6702 
  79   1.0000      -0.317999        -8.6532 
  80   1.0000      -0.317105        -8.6289 
  81   1.0000      -0.315109        -8.5746 
  82   1.0000      -0.313704        -8.5363 
  83   1.0000      -0.309700        -8.4274 
  84   1.0000      -0.306575        -8.3423 
  85   1.0000      -0.303034        -8.2460 
  86   1.0000      -0.301598        -8.2069 
  87   1.0000      -0.296648        -8.0722 
  88   1.0000      -0.294266        -8.0074 
  89   1.0000      -0.293404        -7.9839 
  90   1.0000      -0.290159        -7.8956 
  91   1.0000      -0.284056        -7.7296 
  92   1.0000      -0.281170        -7.6510 
  93   1.0000      -0.279857        -7.6153 
  94   1.0000      -0.279204        -7.5975 
  95   1.0000      -0.277994        -7.5646 
  96   1.0000      -0.274767        -7.4768 
  97   1.0000      -0.273589        -7.4447 
  98   1.0000      -0.271676        -7.3927 
  99   1.0000      -0.270499        -7.3606 
 100   1.0000      -0.269884        -7.3439 
 101   1.0000      -0.267073        -7.2674 
 102   1.0000      -0.265676        -7.2294 
 103   1.0000      -0.264480        -7.1969 
 104   1.0000      -0.261905        -7.1268 
 105   1.0000      -0.260961        -7.1011 
 106   1.0000      -0.260587        -7.0909 
 107   1.0000      -0.256254        -6.9730 
 108   1.0000      -0.255804        -6.9608 
 109   1.0000      -0.252820        -6.8796 
 110   1.0000      -0.250669        -6.8211 
 111   1.0000      -0.250145        -6.8068 
 112   1.0000      -0.249687        -6.7943 
 113   1.0000      -0.248751        -6.7689 
 114   1.0000      -0.247695        -6.7401 
 115   1.0000      -0.247334        -6.7303 
 116   1.0000      -0.244426        -6.6512 
 117   1.0000      -0.244008        -6.6398 
 118   1.0000      -0.243132        -6.6160 
 119   1.0000      -0.241893        -6.5822 
 120   1.0000      -0.241241        -6.5645 
 121   1.0000      -0.240707        -6.5500 
 122   1.0000      -0.239288        -6.5113 
 123   1.0000      -0.238959        -6.5024 
 124   1.0000      -0.234680        -6.3860 
 125   1.0000      -0.231314        -6.2944 
 126   1.0000      -0.204106        -5.5540 
 127   1.0000      -0.183648        -4.9973 
 128   0.0000      -0.177033        -4.8173 
 129   0.0000      -0.173431        -4.7193 
 130   0.0000      -0.155744        -4.2380 
 131   0.0000      -0.139734        -3.8024 
 132   0.0000      -0.114075        -3.1041 
 133   0.0000      -0.113817        -3.0971 
 134   0.0000      -0.102769        -2.7965 
 135   0.0000      -0.061743        -1.6801 
 136   0.0000      -0.060095        -1.6353 
 137   0.0000      -0.056630        -1.5410 
 138   0.0000      -0.052335        -1.4241 
 139   0.0000      -0.052062        -1.4167 
 140   0.0000      -0.042108        -1.1458 
 141   0.0000      -0.037896        -1.0312 
 142   0.0000      -0.035723        -0.9721 
 143   0.0000      -0.017403        -0.4736 
 144   0.0000      -0.001031        -0.0281 
 145   0.0000       0.009853         0.2681 
 146   0.0000       0.010987         0.2990 
 147   0.0000       0.030411         0.8275 
 148   0.0000       0.040837         1.1112 
 149   0.0000       0.040850         1.1116 
 150   0.0000       0.043118         1.1733 
 151   0.0000       0.048255         1.3131 
 152   0.0000       0.051992         1.4148 
 153   0.0000       0.052487         1.4283 
 154   0.0000       0.055221         1.5026 
 155   0.0000       0.059359         1.6152 
 156   0.0000       0.066791         1.8175 
 157   0.0000       0.072095         1.9618 
 158   0.0000       0.074918         2.0386 
 159   0.0000       0.078126         2.1259 
 160   0.0000       0.084088         2.2881 
 161   0.0000       0.085308         2.3213 
 162   0.0000       0.097604         2.6559 
 163   0.0000       0.098895         2.6911 
 164   0.0000       0.109688         2.9848 
 165   0.0000       0.124515         3.3882 
 166   0.0000       0.129839         3.5331 
 167   0.0000       0.134159         3.6506 
 168   0.0000       0.134613         3.6630 
 169   0.0000       0.142070         3.8659 
 170   0.0000       0.143420         3.9027 
 171   0.0000       0.149493         4.0679 
 172   0.0000       0.149903         4.0791 
 173   0.0000       0.174104         4.7376 
 174   0.0000       0.178570         4.8591 
 175   0.0000       0.178633         4.8608 
 176   0.0000       0.180178         4.9029 
 177   0.0000       0.180536         4.9126 
 178   0.0000       0.180970         4.9244 
 179   0.0000       0.191872         5.2211 
 180   0.0000       0.201653         5.4873 
 181   0.0000       0.211635         5.7589 
 182   0.0000       0.215008         5.8507 
 183   0.0000       0.223406         6.0792 
 184   0.0000       0.225247         6.1293 
 185   0.0000       0.227367         6.1870 
 186   0.0000       0.230351         6.2682 
 187   0.0000       0.235478         6.4077 
 188   0.0000       0.237782         6.4704 
 189   0.0000       0.246080         6.6962 
 190   0.0000       0.247081         6.7234 
 191   0.0000       0.250444         6.8149 
 192   0.0000       0.255101         6.9417 
 193   0.0000       0.255162         6.9433 
 194   0.0000       0.269603         7.3363 
 195   0.0000       0.272074         7.4035 
 196   0.0000       0.273038         7.4297 
 197   0.0000       0.286029         7.7832 
 198   0.0000       0.290554         7.9064 
 199   0.0000       0.300941         8.1890 
 200   0.0000       0.306378         8.3370 
 201   0.0000       0.307135         8.3576 
 202   0.0000       0.313522         8.5314 
 203   0.0000       0.316496         8.6123 
 204   0.0000       0.318516         8.6672 
 205   0.0000       0.322635         8.7793 
 206   0.0000       0.324891         8.8407 
 207   0.0000       0.331133         9.0106 
 208   0.0000       0.334139         9.0924 
 209   0.0000       0.339589         9.2407 
 210   0.0000       0.350918         9.5490 
 211   0.0000       0.351833         9.5739 
 212   0.0000       0.358697         9.7606 
 213   0.0000       0.371387        10.1059 
 214   0.0000       0.375064        10.2060 
 215   0.0000       0.375885        10.2284 
 216   0.0000       0.384724        10.4689 
 217   0.0000       0.386500        10.5172 
 218   0.0000       0.388812        10.5801 
 219   0.0000       0.397048        10.8042 
 220   0.0000       0.403823        10.9886 
 221   0.0000       0.404157        10.9977 
 222   0.0000       0.421199        11.4614 
 223   0.0000       0.431568        11.7436 
 224   0.0000       0.434343        11.8191 
 225   0.0000       0.439514        11.9598 
 226   0.0000       0.443410        12.0658 
 227   0.0000       0.452732        12.3195 
 228   0.0000       0.458385        12.4733 
 229   0.0000       0.463926        12.6241 
 230   0.0000       0.468556        12.7501 
 231   0.0000       0.469224        12.7682 
 232   0.0000       0.479790        13.0558 
 233   0.0000       0.480506        13.0752 
 234   0.0000       0.483031        13.1439 
 235   0.0000       0.488137        13.2829 
 236   0.0000       0.488494        13.2926 
 237   0.0000       0.489962        13.3325 
 238   0.0000       0.501086        13.6352 
 239   0.0000       0.501742        13.6531 
 240   0.0000       0.505548        13.7567 
 241   0.0000       0.512782        13.9535 
 242   0.0000       0.513250        13.9662 
 243   0.0000       0.515599        14.0302 
 244   0.0000       0.522380        14.2147 
 245   0.0000       0.522710        14.2237 
 246   0.0000       0.526027        14.3139 
 247   0.0000       0.528880        14.3916 
 248   0.0000       0.543515        14.7898 
 249   0.0000       0.549038        14.9401 
 250   0.0000       0.549524        14.9533 
 251   0.0000       0.583850        15.8874 
 252   0.0000       0.615089        16.7374 
 253   0.0000       0.640218        17.4212 
 254   0.0000       0.652445        17.7539 
 255   0.0000       0.657239        17.8844 
 256   0.0000       0.659198        17.9377 
 257   0.0000       0.679678        18.4950 
 258   0.0000       0.683066        18.5872 
 259   0.0000       0.690657        18.7937 
 260   0.0000       0.699220        19.0268 
 261   0.0000       0.700215        19.0538 
 262   0.0000       0.703829        19.1522 
 263   0.0000       0.712038        19.3755 
 264   0.0000       0.724210        19.7068 
 265   0.0000       0.726544        19.7703 
 266   0.0000       0.741688        20.1823 
 267   0.0000       0.753680        20.5087 
 268   0.0000       0.774875        21.0854 
 269   0.0000       0.784400        21.3446 
 270   0.0000       0.790109        21.5000 
 271   0.0000       0.799948        21.7677 
 272   0.0000       0.803659        21.8687 
 273   0.0000       0.825456        22.4618 
 274   0.0000       0.848917        23.1002 
 275   0.0000       0.855669        23.2839 
 276   0.0000       0.879759        23.9395 
 277   0.0000       0.884546        24.0697 
 278   0.0000       0.896649        24.3991 
 279   0.0000       0.910609        24.7789 
 280   0.0000       0.916025        24.9263 
 281   0.0000       0.925402        25.1815 
 282   0.0000       0.942243        25.6397 
 283   0.0000       0.944416        25.6989 
 284   0.0000       0.953668        25.9506 
 285   0.0000       0.973925        26.5019 
 286   0.0000       0.981266        26.7016 
 287   0.0000       1.064037        28.9539 
 288   0.0000       1.114378        30.3238 
 289   0.0000       1.123639        30.5758 
 290   0.0000       1.198159        32.6036 
 291   0.0000       1.200554        32.6687 
 292   0.0000       1.221301        33.2333 
 293   0.0000       1.235332        33.6151 
 294   0.0000       1.255975        34.1768 
 295   0.0000       1.265105        34.4253 
 296   0.0000       1.279409        34.8145 
 297   0.0000       1.279568        34.8188 
 298   0.0000       1.282913        34.9099 
 299   0.0000       1.288936        35.0737 
 300   0.0000       1.295893        35.2630 
 301   0.0000       1.301482        35.4151 
 302   0.0000       1.305222        35.5169 
 303   0.0000       1.321044        35.9474 
 304   0.0000       1.328275        36.1442 
 305   0.0000       1.338877        36.4327 
 306   0.0000       1.345694        36.6182 
 307   0.0000       1.346418        36.6379 
 308   0.0000       1.356266        36.9059 
 309   0.0000       1.362789        37.0834 
 310   0.0000       1.374805        37.4104 
 311   0.0000       1.395888        37.9840 
 312   0.0000       1.405154        38.2362 
 313   0.0000       1.411461        38.4078 
 314   0.0000       1.415972        38.5305 
 315   0.0000       1.421897        38.6918 
 316   0.0000       1.423096        38.7244 
 317   0.0000       1.428902        38.8824 
 318   0.0000       1.430567        38.9277 
 319   0.0000       1.438515        39.1440 
 320   0.0000       1.440099        39.1871 
 321   0.0000       1.443937        39.2915 
 322   0.0000       1.448352        39.4117 
 323   0.0000       1.451616        39.5005 
 324   0.0000       1.452492        39.5243 
 325   0.0000       1.453610        39.5547 
 326   0.0000       1.454394        39.5761 
 327   0.0000       1.457231        39.6533 
 328   0.0000       1.466749        39.9123 
 329   0.0000       1.468477        39.9593 
 330   0.0000       1.470447        40.0129 
 331   0.0000       1.470991        40.0277 
 332   0.0000       1.475900        40.1613 
 333   0.0000       1.480446        40.2850 
 334   0.0000       1.481818        40.3223 
 335   0.0000       1.485375        40.4191 
 336   0.0000       1.486930        40.4614 
 337   0.0000       1.487249        40.4701 
 338   0.0000       1.488282        40.4982 
 339   0.0000       1.490101        40.5477 
 340   0.0000       1.491997        40.5993 
 341   0.0000       1.494434        40.6656 
 342   0.0000       1.495307        40.6894 
 343   0.0000       1.496849        40.7313 
 344   0.0000       1.497163        40.7399 
 345   0.0000       1.499895        40.8142 
 346   0.0000       1.500700        40.8361 
 347   0.0000       1.502061        40.8732 
 348   0.0000       1.503031        40.8995 
 349   0.0000       1.504671        40.9442 
 350   0.0000       1.505097        40.9558 
 351   0.0000       1.507688        41.0263 
 352   0.0000       1.508538        41.0494 
 353   0.0000       1.509860        41.0854 
 354   0.0000       1.511262        41.1235 
 355   0.0000       1.512066        41.1454 
 356   0.0000       1.512382        41.1540 
 357   0.0000       1.516324        41.2613 
 358   0.0000       1.516598        41.2687 
 359   0.0000       1.518248        41.3136 
 360   0.0000       1.518616        41.3236 
 361   0.0000       1.519347        41.3435 
 362   0.0000       1.519458        41.3466 
 363   0.0000       1.523183        41.4479 
 364   0.0000       1.525258        41.5044 
 365   0.0000       1.526360        41.5344 
 366   0.0000       1.527435        41.5636 
 367   0.0000       1.528186        41.5841 
 368   0.0000       1.532426        41.6994 
 369   0.0000       1.535904        41.7941 
 370   0.0000       1.536965        41.8230 
 371   0.0000       1.544959        42.0405 
 372   0.0000       1.548623        42.1402 
 373   0.0000       1.550455        42.1900 
 374   0.0000       1.551520        42.2190 
 375   0.0000       1.553857        42.2826 
 376   0.0000       1.556581        42.3567 
 377   0.0000       1.558597        42.4116 
 378   0.0000       1.562533        42.5187 
 379   0.0000       1.563885        42.5555 
 380   0.0000       1.568302        42.6757 
 381   0.0000       1.571158        42.7534 
 382   0.0000       1.573736        42.8235 
 383   0.0000       1.577025        42.9130 
 384   0.0000       1.583171        43.0803 
 385   0.0000       1.583621        43.0925 
 386   0.0000       1.584852        43.1260 
 387   0.0000       1.587168        43.1890 
 388   0.0000       1.587290        43.1924 
 389   0.0000       1.590243        43.2727 
 390   0.0000       1.592623        43.3375 
 391   0.0000       1.593561        43.3630 
 392   0.0000       1.599986        43.5378 
 393   0.0000       1.604343        43.6564 
 394   0.0000       1.606612        43.7181 
 395   0.0000       1.608280        43.7635 
 396   0.0000       1.612592        43.8809 
 397   0.0000       1.616028        43.9743 
 398   0.0000       1.616198        43.9790 
 399   0.0000       1.625226        44.2246 
 400   0.0000       1.629055        44.3288 
 401   0.0000       1.629608        44.3439 
 402   0.0000       1.637668        44.5632 
 403   0.0000       1.639463        44.6120 
 404   0.0000       1.646826        44.8124 
 405   0.0000       1.652475        44.9661 
 406   0.0000       1.665073        45.3089 
 407   0.0000       1.674129        45.5554 
 408   0.0000       1.675369        45.5891 
 409   0.0000       1.676287        45.6141 
 410   0.0000       1.686401        45.8893 
 411   0.0000       1.704674        46.3865 
 412   0.0000       1.709777        46.5254 
 413   0.0000       1.717850        46.7451 
 414   0.0000       1.726320        46.9755 
 415   0.0000       1.739143        47.3245 
 416   0.0000       1.744754        47.4772 
 417   0.0000       1.747983        47.5650 
 418   0.0000       1.754744        47.7490 
 419   0.0000       1.765720        48.0477 
 420   0.0000       1.765944        48.0538 
 421   0.0000       1.775606        48.3167 
 422   0.0000       1.793106        48.7929 
 423   0.0000       1.794972        48.8437 
 424   0.0000       1.795416        48.8557 
 425   0.0000       1.799349        48.9628 
 426   0.0000       1.816811        49.4379 
 427   0.0000       1.818792        49.4918 
 428   0.0000       1.847271        50.2668 
 429   0.0000       1.848624        50.3036 
 430   0.0000       1.856869        50.5280 
 431   0.0000       1.858042        50.5599 
 432   0.0000       1.915616        52.1266 
 433   0.0000       1.973761        53.7088 
 434   0.0000       1.999226        54.4017 
 435   0.0000       2.087677        56.8086 
 436   0.0000       2.111213        57.4490 
 437   0.0000       2.129712        57.9524 
 438   0.0000       2.251462        61.2654 
 439   0.0000       2.284650        62.1685 
 440   0.0000       2.305884        62.7463 
 441   0.0000       2.363283        64.3082 
 442   0.0000       2.400337        65.3165 
 443   0.0000       2.436448        66.2991 
 444   0.0000       2.453724        66.7692 
 445   0.0000       2.460038        66.9410 
 446   0.0000       2.460762        66.9607 
 447   0.0000       2.471468        67.2521 
 448   0.0000       2.494648        67.8828 
 449   0.0000       2.514925        68.4346 
 450   0.0000       2.599351        70.7319 
 451   0.0000       2.617267        71.2194 
 452   0.0000       3.328178        90.5643 
 453   0.0000       3.594713        97.8171 
 454   0.0000       3.657773        99.5331 
 455   0.0000       3.676989       100.0559 
 456   0.0000       3.689665       100.4009 
 457   0.0000       3.728582       101.4599 
 458   0.0000       3.914468       106.5181 
 459   0.0000       3.914817       106.5276 
 460   0.0000       3.916177       106.5646 
 461   0.0000       3.923027       106.7510 
 462   0.0000       3.926486       106.8451 
 463   0.0000       3.926705       106.8511 
 464   0.0000       3.934304       107.0579 
 465   0.0000      23.809155       647.8801 
 466   0.0000      23.839469       648.7049 
 467   0.0000      23.873635       649.6346 
 468   0.0000      24.346207       662.4940 
 469   0.0000      24.446853       665.2327 
 470   0.0000      24.697857       672.0629 
 471   0.0000      24.791979       674.6240 
 472   0.0000      24.982380       679.8051 
 473   0.0000      25.109268       683.2579 
 474   0.0000      25.150216       684.3722 
 475   0.0000      25.305276       688.5916 
 476   0.0000      25.404968       691.3043 
 477   0.0000      25.558638       695.4859 
 478   0.0000      25.610210       696.8893 
 479   0.0000      25.630702       697.4469 
 480   0.0000      25.687070       698.9807 
 481   0.0000      25.990177       707.2287 
 482   0.0000      26.037968       708.5291 
 483   0.0000      26.277338       715.0427 
 484   0.0000      26.362237       717.3529 
 485   0.0000      26.460837       720.0360 
 486   0.0000      26.513396       721.4662 
 487   0.0000      26.690025       726.2725 
 488   0.0000      26.732338       727.4239 
 489   0.0000      26.962139       733.6771 
 490   0.0000      27.038959       735.7675 
 491   0.0000      27.296037       742.7629 
 492   0.0000      27.535258       749.2725 
 493   0.0000      27.905782       759.3549 
 494   0.0000      28.005511       762.0687 
 495   0.0000      28.075185       763.9646 
 496   0.0000      28.561679       777.2028 
 497   0.0000      28.803743       783.7897 
 498   0.0000      30.235089       822.7386 
 499   0.0000      30.843890       839.3049 
 500   0.0000      31.888957       867.7426 
 501   0.0000      43.862164      1193.5502 
 502   0.0000      43.998020      1197.2470 
 503   0.0000      44.054351      1198.7798 
 504   0.0000      44.060487      1198.9468 
 505   0.0000      44.104311      1200.1393 
 506   0.0000      44.111465      1200.3340 
 507   0.0000      44.132144      1200.8967 
 508   0.0000      44.137597      1201.0451 
 509   0.0000      44.141622      1201.1546 
 510   0.0000      44.156704      1201.5650 
 511   0.0000      44.168278      1201.8799 
 512   0.0000      44.230345      1203.5689 
 513   0.0000     205.075525      5580.3887 
 514   0.0000     205.131638      5581.9157 
 515   0.0000     205.152326      5582.4786 
 516   0.0000     205.153967      5582.5233 
 517   0.0000     205.175877      5583.1195 
 518   0.0000     205.182599      5583.3024 
 519   0.0000     205.188846      5583.4724 
 520   0.0000     205.190602      5583.5202 
 521   0.0000     205.193513      5583.5994 
 522   0.0000     205.198389      5583.7320 
 523   0.0000     205.202002      5583.8303 
 524   0.0000     205.223269      5584.4091 

                 SPIN DOWN ORBITALS
  NO   OCC          E(Eh)            E(eV) 
   0   1.0000    -254.751482     -6932.1403 
   1   1.0000     -29.533136      -803.6375 
   2   1.0000     -25.484727      -693.4747 
   3   1.0000     -25.483034      -693.4286 
   4   1.0000     -25.479547      -693.3337 
   5   1.0000      -4.029277      -109.6422 
   6   1.0000      -4.028899      -109.6319 
   7   1.0000      -4.025690      -109.5446 
   8   1.0000      -4.025684      -109.5444 
   9   1.0000      -4.025445      -109.5379 
  10   1.0000      -4.025426      -109.5374 
  11   1.0000      -4.023488      -109.4847 
  12   1.0000      -4.023486      -109.4846 
  13   1.0000      -4.023180      -109.4763 
  14   1.0000      -4.019653      -109.3803 
  15   1.0000      -4.013147      -109.2033 
  16   1.0000      -4.013035      -109.2002 
  17   1.0000      -3.238991       -88.1374 
  18   1.0000      -2.245954       -61.1155 
  19   1.0000      -2.243671       -61.0534 
  20   1.0000      -2.243430       -61.0468 
  21   1.0000      -2.243306       -61.0435 
  22   1.0000      -2.242103       -61.0107 
  23   1.0000      -2.241684       -60.9993 
  24   1.0000      -2.241064       -60.9824 
  25   1.0000      -2.240876       -60.9773 
  26   1.0000      -2.240714       -60.9729 
  27   1.0000      -2.240644       -60.9710 
  28   1.0000      -2.239664       -60.9444 
  29   1.0000      -2.239232       -60.9326 
  30   1.0000      -2.238593       -60.9152 
  31   1.0000      -2.237841       -60.8947 
  32   1.0000      -2.237771       -60.8928 
  33   1.0000      -2.237285       -60.8796 
  34   1.0000      -2.236874       -60.8684 
  35   1.0000      -2.236739       -60.8648 
  36   1.0000      -2.236692       -60.8635 
  37   1.0000      -2.236639       -60.8620 
  38   1.0000      -2.236103       -60.8475 
  39   1.0000      -2.235651       -60.8351 
  40   1.0000      -2.235443       -60.8295 
  41   1.0000      -2.235145       -60.8214 
  42   1.0000      -2.234761       -60.8109 
  43   1.0000      -2.234523       -60.8044 
  44   1.0000      -2.234288       -60.7981 
  45   1.0000      -2.233054       -60.7645 
  46   1.0000      -2.230752       -60.7018 
  47   1.0000      -2.230191       -60.6866 
  48   1.0000      -2.228414       -60.6382 
  49   1.0000      -2.227631       -60.6169 
  50   1.0000      -2.227140       -60.6036 
  51   1.0000      -2.225375       -60.5555 
  52   1.0000      -2.223381       -60.5013 
  53   1.0000      -2.222561       -60.4790 
  54   1.0000      -2.059103       -56.0310 
  55   1.0000      -2.056329       -55.9556 
  56   1.0000      -2.050860       -55.8067 
  57   1.0000      -0.428033       -11.6474 
  58   1.0000      -0.381507       -10.3813 
  59   1.0000      -0.380865       -10.3639 
  60   1.0000      -0.376828       -10.2540 
  61   1.0000      -0.366183        -9.9644 
  62   1.0000      -0.361533        -9.8378 
  63   1.0000      -0.359310        -9.7773 
  64   1.0000      -0.353567        -9.6210 
  65   1.0000      -0.351732        -9.5711 
  66   1.0000      -0.347400        -9.4532 
  67   1.0000      -0.345675        -9.4063 
  68   1.0000      -0.342832        -9.3289 
  69   1.0000      -0.342321        -9.3150 
  70   1.0000      -0.338523        -9.2117 
  71   1.0000      -0.337116        -9.1734 
  72   1.0000      -0.333861        -9.0848 
  73   1.0000      -0.332144        -9.0381 
  74   1.0000      -0.329748        -8.9729 
  75   1.0000      -0.328601        -8.9417 
  76   1.0000      -0.323824        -8.8117 
  77   1.0000      -0.320869        -8.7313 
  78   1.0000      -0.319205        -8.6860 
  79   1.0000      -0.317144        -8.6299 
  80   1.0000      -0.315294        -8.5796 
  81   1.0000      -0.311803        -8.4846 
  82   1.0000      -0.309535        -8.4229 
  83   1.0000      -0.309486        -8.4215 
  84   1.0000      -0.307399        -8.3647 
  85   1.0000      -0.301048        -8.1919 
  86   1.0000      -0.296370        -8.0646 
  87   1.0000      -0.293822        -7.9953 
  88   1.0000      -0.291171        -7.9232 
  89   1.0000      -0.290527        -7.9056 
  90   1.0000      -0.284823        -7.7504 
  91   1.0000      -0.282763        -7.6944 
  92   1.0000      -0.280625        -7.6362 
  93   1.0000      -0.280225        -7.6253 
  94   1.0000      -0.277527        -7.5519 
  95   1.0000      -0.275816        -7.5053 
  96   1.0000      -0.274009        -7.4562 
  97   1.0000      -0.273120        -7.4320 
  98   1.0000      -0.270823        -7.3695 
  99   1.0000      -0.270027        -7.3478 
 100   1.0000      -0.267673        -7.2838 
 101   1.0000      -0.266761        -7.2589 
 102   1.0000      -0.265763        -7.2318 
 103   1.0000      -0.265227        -7.2172 
 104   1.0000      -0.262234        -7.1358 
 105   1.0000      -0.261479        -7.1152 
 106   1.0000      -0.260839        -7.0978 
 107   1.0000      -0.256562        -6.9814 
 108   1.0000      -0.256231        -6.9724 
 109   1.0000      -0.253425        -6.8961 
 110   1.0000      -0.253000        -6.8845 
 111   1.0000      -0.251529        -6.8445 
 112   1.0000      -0.249860        -6.7990 
 113   1.0000      -0.249766        -6.7965 
 114   1.0000      -0.245820        -6.6891 
 115   1.0000      -0.245471        -6.6796 
 116   1.0000      -0.245269        -6.6741 
 117   1.0000      -0.240899        -6.5552 
 118   1.0000      -0.240085        -6.5330 
 119   1.0000      -0.240007        -6.5309 
 120   1.0000      -0.232955        -6.3390 
 121   1.0000      -0.211550        -5.7566 
 122   1.0000      -0.198723        -5.4075 
 123   1.0000      -0.197567        -5.3761 
 124   1.0000      -0.192630        -5.2417 
 125   1.0000      -0.180005        -4.8982 
 126   0.0000      -0.158500        -4.3130 
 127   0.0000      -0.151672        -4.1272 
 128   0.0000      -0.151073        -4.1109 
 129   0.0000      -0.147621        -4.0170 
 130   0.0000      -0.144838        -3.9412 
 131   0.0000      -0.130812        -3.5596 
 132   0.0000      -0.113770        -3.0958 
 133   0.0000      -0.111607        -3.0370 
 134   0.0000      -0.104824        -2.8524 
 135   0.0000      -0.062172        -1.6918 
 136   0.0000      -0.060902        -1.6572 
 137   0.0000      -0.056606        -1.5403 
 138   0.0000      -0.055413        -1.5079 
 139   0.0000      -0.053147        -1.4462 
 140   0.0000      -0.045701        -1.2436 
 141   0.0000      -0.039464        -1.0739 
 142   0.0000      -0.033537        -0.9126 
 143   0.0000      -0.016120        -0.4387 
 144   0.0000      -0.000845        -0.0230 
 145   0.0000       0.011206         0.3049 
 146   0.0000       0.011988         0.3262 
 147   0.0000       0.030103         0.8192 
 148   0.0000       0.039643         1.0787 
 149   0.0000       0.042519         1.1570 
 150   0.0000       0.043855         1.1934 
 151   0.0000       0.045895         1.2489 
 152   0.0000       0.050014         1.3610 
 153   0.0000       0.051772         1.4088 
 154   0.0000       0.054932         1.4948 
 155   0.0000       0.057560         1.5663 
 156   0.0000       0.066542         1.8107 
 157   0.0000       0.070393         1.9155 
 158   0.0000       0.073643         2.0039 
 159   0.0000       0.075320         2.0496 
 160   0.0000       0.083724         2.2782 
 161   0.0000       0.085233         2.3193 
 162   0.0000       0.096500         2.6259 
 163   0.0000       0.098200         2.6722 
 164   0.0000       0.108556         2.9539 
 165   0.0000       0.123160         3.3513 
 166   0.0000       0.127132         3.4594 
 167   0.0000       0.132330         3.6009 
 168   0.0000       0.135209         3.6792 
 169   0.0000       0.141383         3.8472 
 170   0.0000       0.142987         3.8909 
 171   0.0000       0.151495         4.1224 
 172   0.0000       0.151744         4.1292 
 173   0.0000       0.177383         4.8268 
 174   0.0000       0.178264         4.8508 
 175   0.0000       0.179500         4.8845 
 176   0.0000       0.181888         4.9494 
 177   0.0000       0.182064         4.9542 
 178   0.0000       0.184034         5.0078 
 179   0.0000       0.195778         5.3274 
 180   0.0000       0.208733         5.6799 
 181   0.0000       0.210317         5.7230 
 182   0.0000       0.215859         5.8738 
 183   0.0000       0.221111         6.0167 
 184   0.0000       0.222832         6.0636 
 185   0.0000       0.224719         6.1149 
 186   0.0000       0.228417         6.2155 
 187   0.0000       0.233323         6.3491 
 188   0.0000       0.235516         6.4087 
 189   0.0000       0.243854         6.6356 
 190   0.0000       0.244062         6.6413 
 191   0.0000       0.248238         6.7549 
 192   0.0000       0.252629         6.8744 
 193   0.0000       0.253027         6.8852 
 194   0.0000       0.267132         7.2690 
 195   0.0000       0.270232         7.3534 
 196   0.0000       0.271974         7.4008 
 197   0.0000       0.284876         7.7519 
 198   0.0000       0.289461         7.8766 
 199   0.0000       0.298946         8.1347 
 200   0.0000       0.304309         8.2807 
 201   0.0000       0.305072         8.3014 
 202   0.0000       0.310722         8.4552 
 203   0.0000       0.313570         8.5327 
 204   0.0000       0.315598         8.5878 
 205   0.0000       0.320659         8.7256 
 206   0.0000       0.321814         8.7570 
 207   0.0000       0.330064         8.9815 
 208   0.0000       0.332031         9.0350 
 209   0.0000       0.338617         9.2142 
 210   0.0000       0.349855         9.5200 
 211   0.0000       0.350013         9.5243 
 212   0.0000       0.357211         9.7202 
 213   0.0000       0.368716        10.0333 
 214   0.0000       0.372277        10.1302 
 215   0.0000       0.372514        10.1366 
 216   0.0000       0.382561        10.4100 
 217   0.0000       0.386306        10.5119 
[...]
 140( 0) :    -0.042234 a.u.    -1.149 eV
 141( 0) :    -0.036972 a.u.    -1.006 eV
 142( 0) :    -0.032308 a.u.    -0.879 eV
 143( 0) :    -0.014367 a.u.    -0.391 eV
 144( 0) :    -0.000833 a.u.    -0.023 eV
 145( 0) :     0.010627 a.u.     0.289 eV
 146( 0) :     0.010914 a.u.     0.297 eV
 147( 0) :     0.032541 a.u.     0.885 eV
 148( 0) :     0.040648 a.u.     1.106 eV
 149( 0) :     0.041284 a.u.     1.123 eV
 150( 0) :     0.044626 a.u.     1.214 eV
 151( 0) :     0.049037 a.u.     1.334 eV
 152( 0) :     0.050936 a.u.     1.386 eV
 153( 0) :     0.053186 a.u.     1.447 eV
 154( 0) :     0.055975 a.u.     1.523 eV
 155( 0) :     0.059448 a.u.     1.618 eV
 156( 0) :     0.067158 a.u.     1.827 eV
 157( 0) :     0.072378 a.u.     1.970 eV
 158( 0) :     0.074693 a.u.     2.032 eV
 159( 0) :     0.077976 a.u.     2.122 eV
 160( 0) :     0.084304 a.u.     2.294 eV
 161( 0) :     0.085804 a.u.     2.335 eV
 162( 0) :     0.098813 a.u.     2.689 eV
 163( 0) :     0.100192 a.u.     2.726 eV
 164( 0) :     0.111171 a.u.     3.025 eV
 165( 0) :     0.124239 a.u.     3.381 eV
 166( 0) :     0.130299 a.u.     3.546 eV
 167( 0) :     0.132436 a.u.     3.604 eV
 168( 0) :     0.135361 a.u.     3.683 eV
 169( 0) :     0.142167 a.u.     3.869 eV
 170( 0) :     0.144235 a.u.     3.925 eV
 171( 0) :     0.148538 a.u.     4.042 eV
 172( 0) :     0.151308 a.u.     4.117 eV
 173( 0) :     0.170708 a.u.     4.645 eV
 174( 0) :     0.177975 a.u.     4.843 eV
 175( 0) :     0.178640 a.u.     4.861 eV
 176( 0) :     0.180788 a.u.     4.919 eV
 177( 0) :     0.181262 a.u.     4.932 eV
 178( 0) :     0.181903 a.u.     4.950 eV
 179( 0) :     0.191044 a.u.     5.199 eV
 180( 0) :     0.203690 a.u.     5.543 eV
 181( 0) :     0.213150 a.u.     5.800 eV
 182( 0) :     0.218581 a.u.     5.948 eV
 183( 0) :     0.222804 a.u.     6.063 eV
 184( 0) :     0.223156 a.u.     6.072 eV
 185( 0) :     0.226920 a.u.     6.175 eV
 186( 0) :     0.227981 a.u.     6.204 eV
 187( 0) :     0.235167 a.u.     6.399 eV
 188( 0) :     0.239962 a.u.     6.530 eV
 189( 0) :     0.246563 a.u.     6.709 eV
 190( 0) :     0.248275 a.u.     6.756 eV
 191( 0) :     0.250831 a.u.     6.825 eV
 192( 0) :     0.256500 a.u.     6.980 eV
 193( 0) :     0.256638 a.u.     6.983 eV
 194( 0) :     0.268682 a.u.     7.311 eV
 195( 0) :     0.271925 a.u.     7.399 eV
 196( 0) :     0.274160 a.u.     7.460 eV
 197( 0) :     0.287417 a.u.     7.821 eV
 198( 0) :     0.291301 a.u.     7.927 eV
 199( 0) :     0.301542 a.u.     8.205 eV
 200( 0) :     0.305845 a.u.     8.322 eV
 201( 0) :     0.307379 a.u.     8.364 eV
 202( 0) :     0.314600 a.u.     8.561 eV
 203( 0) :     0.317255 a.u.     8.633 eV
 204( 0) :     0.320077 a.u.     8.710 eV
 205( 0) :     0.322643 a.u.     8.780 eV
 206( 0) :     0.325439 a.u.     8.856 eV
 207( 0) :     0.333311 a.u.     9.070 eV
 208( 0) :     0.337836 a.u.     9.193 eV
 209( 0) :     0.343873 a.u.     9.357 eV
 210( 0) :     0.349414 a.u.     9.508 eV
 211( 0) :     0.354555 a.u.     9.648 eV
 212( 0) :     0.355976 a.u.     9.687 eV
 213( 0) :     0.372245 a.u.    10.129 eV
 214( 0) :     0.372660 a.u.    10.141 eV
 215( 0) :     0.374690 a.u.    10.196 eV
 216( 0) :     0.383593 a.u.    10.438 eV
 217( 0) :     0.389856 a.u.    10.609 eV
 218( 0) :     0.391023 a.u.    10.640 eV
 219( 0) :     0.397931 a.u.    10.828 eV
 220( 0) :     0.402120 a.u.    10.942 eV
 221( 0) :     0.404777 a.u.    11.015 eV
 222( 0) :     0.421811 a.u.    11.478 eV
 223( 0) :     0.435150 a.u.    11.841 eV
 224( 0) :     0.435580 a.u.    11.853 eV
 225( 0) :     0.440360 a.u.    11.983 eV
 226( 0) :     0.443068 a.u.    12.056 eV
 227( 0) :     0.452425 a.u.    12.311 eV
 228( 0) :     0.460307 a.u.    12.526 eV
 229( 0) :     0.463925 a.u.    12.624 eV
 230( 0) :     0.469299 a.u.    12.770 eV
 231( 0) :     0.470608 a.u.    12.806 eV
 232( 0) :     0.480042 a.u.    13.063 eV
 233( 0) :     0.483015 a.u.    13.144 eV
 234( 0) :     0.484320 a.u.    13.179 eV
 235( 0) :     0.489602 a.u.    13.323 eV
 236( 0) :     0.490137 a.u.    13.337 eV
 237( 0) :     0.491258 a.u.    13.368 eV
 238( 0) :     0.500166 a.u.    13.610 eV
 239( 0) :     0.503223 a.u.    13.693 eV
 240( 0) :     0.505337 a.u.    13.751 eV
 241( 0) :     0.509973 a.u.    13.877 eV
 242( 0) :     0.513046 a.u.    13.961 eV
 243( 0) :     0.516602 a.u.    14.057 eV
 244( 0) :     0.525592 a.u.    14.302 eV
 245( 0) :     0.525777 a.u.    14.307 eV
 246( 0) :     0.527833 a.u.    14.363 eV
 247( 0) :     0.529859 a.u.    14.418 eV
 248( 0) :     0.538500 a.u.    14.653 eV
 249( 0) :     0.545443 a.u.    14.842 eV
 250( 0) :     0.551379 a.u.    15.004 eV
 251( 0) :     0.579297 a.u.    15.763 eV
 252( 0) :     0.610430 a.u.    16.611 eV
 253( 0) :     0.635588 a.u.    17.295 eV
 254( 0) :     0.642614 a.u.    17.486 eV
 255( 0) :     0.653595 a.u.    17.785 eV
 256( 0) :     0.657234 a.u.    17.884 eV
 257( 0) :     0.677037 a.u.    18.423 eV
 258( 0) :     0.681206 a.u.    18.537 eV
 259( 0) :     0.686944 a.u.    18.693 eV
 260( 0) :     0.700416 a.u.    19.059 eV
 261( 0) :     0.704258 a.u.    19.164 eV
 262( 0) :     0.704647 a.u.    19.174 eV
 263( 0) :     0.706464 a.u.    19.224 eV
 264( 0) :     0.725103 a.u.    19.731 eV
 265( 0) :     0.732377 a.u.    19.929 eV
 266( 0) :     0.750056 a.u.    20.410 eV
 267( 0) :     0.752011 a.u.    20.463 eV
 268( 0) :     0.780531 a.u.    21.239 eV
 269( 0) :     0.792176 a.u.    21.556 eV
 270( 0) :     0.795681 a.u.    21.652 eV
 271( 0) :     0.797381 a.u.    21.698 eV
 272( 0) :     0.807255 a.u.    21.967 eV
 273( 0) :     0.826863 a.u.    22.500 eV
 274( 0) :     0.847978 a.u.    23.075 eV
 275( 0) :     0.857808 a.u.    23.342 eV
 276( 0) :     0.880252 a.u.    23.953 eV
 277( 0) :     0.886285 a.u.    24.117 eV
 278( 0) :     0.900831 a.u.    24.513 eV
 279( 0) :     0.903459 a.u.    24.584 eV
 280( 0) :     0.921837 a.u.    25.084 eV
 281( 0) :     0.931188 a.u.    25.339 eV
 282( 0) :     0.939221 a.u.    25.558 eV
 283( 0) :     0.942770 a.u.    25.654 eV
 284( 0) :     0.945399 a.u.    25.726 eV
 285( 0) :     0.954220 a.u.    25.966 eV
 286( 0) :     0.976029 a.u.    26.559 eV
 287( 0) :     1.055424 a.u.    28.720 eV
 288( 0) :     1.130727 a.u.    30.769 eV
 289( 0) :     1.136774 a.u.    30.933 eV
 290( 0) :     1.192926 a.u.    32.461 eV
 291( 0) :     1.203712 a.u.    32.755 eV
 292( 0) :     1.215865 a.u.    33.085 eV
 293( 0) :     1.243151 a.u.    33.828 eV
 294( 0) :     1.248954 a.u.    33.986 eV
 295( 0) :     1.255478 a.u.    34.163 eV
 296( 0) :     1.276839 a.u.    34.745 eV
 297( 0) :     1.277464 a.u.    34.762 eV
 298( 0) :     1.282294 a.u.    34.893 eV
 299( 0) :     1.289624 a.u.    35.092 eV
 300( 0) :     1.294184 a.u.    35.217 eV
 301( 0) :     1.304990 a.u.    35.511 eV
 302( 0) :     1.305356 a.u.    35.521 eV
 303( 0) :     1.322667 a.u.    35.992 eV
 304( 0) :     1.324459 a.u.    36.040 eV
 305( 0) :     1.341839 a.u.    36.513 eV
 306( 0) :     1.344317 a.u.    36.581 eV
 307( 0) :     1.344867 a.u.    36.596 eV
 308( 0) :     1.354577 a.u.    36.860 eV
 309( 0) :     1.365410 a.u.    37.155 eV
 310( 0) :     1.370574 a.u.    37.295 eV
 311( 0) :     1.392763 a.u.    37.899 eV
 312( 0) :     1.405646 a.u.    38.250 eV
 313( 0) :     1.407505 a.u.    38.300 eV
 314( 0) :     1.409816 a.u.    38.363 eV
 315( 0) :     1.418622 a.u.    38.603 eV
 316( 0) :     1.419749 a.u.    38.633 eV
 317( 0) :     1.423745 a.u.    38.742 eV
 318( 0) :     1.429364 a.u.    38.895 eV
 319( 0) :     1.432337 a.u.    38.976 eV
 320( 0) :     1.439565 a.u.    39.173 eV
 321( 0) :     1.441913 a.u.    39.236 eV
 322( 0) :     1.446213 a.u.    39.353 eV
 323( 0) :     1.449598 a.u.    39.446 eV
 324( 0) :     1.450601 a.u.    39.473 eV
 325( 0) :     1.453848 a.u.    39.561 eV
 326( 0) :     1.454632 a.u.    39.583 eV
 327( 0) :     1.456266 a.u.    39.627 eV
 328( 0) :     1.465300 a.u.    39.873 eV
 329( 0) :     1.468229 a.u.    39.953 eV
 330( 0) :     1.469206 a.u.    39.979 eV
 331( 0) :     1.469933 a.u.    39.999 eV
 332( 0) :     1.474235 a.u.    40.116 eV
 333( 0) :     1.480755 a.u.    40.293 eV
 334( 0) :     1.481577 a.u.    40.316 eV
 335( 0) :     1.488046 a.u.    40.492 eV
 336( 0) :     1.488286 a.u.    40.498 eV
 337( 0) :     1.488645 a.u.    40.508 eV
 338( 0) :     1.491177 a.u.    40.577 eV
 339( 0) :     1.493710 a.u.    40.646 eV
 340( 0) :     1.493952 a.u.    40.652 eV
 341( 0) :     1.496610 a.u.    40.725 eV
 342( 0) :     1.496680 a.u.    40.727 eV
 343( 0) :     1.498341 a.u.    40.772 eV
 344( 0) :     1.499925 a.u.    40.815 eV
 345( 0) :     1.500218 a.u.    40.823 eV
 346( 0) :     1.501960 a.u.    40.870 eV
 347( 0) :     1.504664 a.u.    40.944 eV
 348( 0) :     1.505140 a.u.    40.957 eV
 349( 0) :     1.505995 a.u.    40.980 eV
 350( 0) :     1.507844 a.u.    41.031 eV
 351( 0) :     1.511167 a.u.    41.121 eV
 352( 0) :     1.511843 a.u.    41.139 eV
 353( 0) :     1.512510 a.u.    41.157 eV
 354( 0) :     1.513592 a.u.    41.187 eV
 355( 0) :     1.515118 a.u.    41.228 eV
 356( 0) :     1.516645 a.u.    41.270 eV
 357( 0) :     1.518252 a.u.    41.314 eV
 358( 0) :     1.518687 a.u.    41.326 eV
 359( 0) :     1.518928 a.u.    41.332 eV
 360( 0) :     1.521802 a.u.    41.410 eV
 361( 0) :     1.522057 a.u.    41.417 eV
 362( 0) :     1.523155 a.u.    41.447 eV
 363( 0) :     1.526352 a.u.    41.534 eV
 364( 0) :     1.528416 a.u.    41.590 eV
 365( 0) :     1.528624 a.u.    41.596 eV
 366( 0) :     1.531851 a.u.    41.684 eV
 367( 0) :     1.533478 a.u.    41.728 eV
 368( 0) :     1.535199 a.u.    41.775 eV
 369( 0) :     1.536765 a.u.    41.818 eV
 370( 0) :     1.539456 a.u.    41.891 eV
 371( 0) :     1.544462 a.u.    42.027 eV
 372( 0) :     1.544715 a.u.    42.034 eV
 373( 0) :     1.548080 a.u.    42.125 eV
 374( 0) :     1.549976 a.u.    42.177 eV
 375( 0) :     1.554649 a.u.    42.304 eV
 376( 0) :     1.557080 a.u.    42.370 eV
 377( 0) :     1.558712 a.u.    42.415 eV
 378( 0) :     1.561892 a.u.    42.501 eV
 379( 0) :     1.562738 a.u.    42.524 eV
 380( 0) :     1.565923 a.u.    42.611 eV
 381( 0) :     1.567202 a.u.    42.646 eV
 382( 0) :     1.568412 a.u.    42.679 eV
 383( 0) :     1.577258 a.u.    42.919 eV
 384( 0) :     1.579221 a.u.    42.973 eV
 385( 0) :     1.580620 a.u.    43.011 eV
 386( 0) :     1.584278 a.u.    43.110 eV
 387( 0) :     1.586243 a.u.    43.164 eV
 388( 0) :     1.587109 a.u.    43.187 eV
 389( 0) :     1.589476 a.u.    43.252 eV
 390( 0) :     1.593777 a.u.    43.369 eV
 391( 0) :     1.594017 a.u.    43.375 eV
 392( 0) :     1.601103 a.u.    43.568 eV
 393( 0) :     1.605690 a.u.    43.693 eV
 394( 0) :     1.609889 a.u.    43.807 eV
 395( 0) :     1.610467 a.u.    43.823 eV
 396( 0) :     1.611423 a.u.    43.849 eV
 397( 0) :     1.612166 a.u.    43.869 eV
 398( 0) :     1.614538 a.u.    43.934 eV
 399( 0) :     1.620271 a.u.    44.090 eV
 400( 0) :     1.627185 a.u.    44.278 eV
 401( 0) :     1.632475 a.u.    44.422 eV
 402( 0) :     1.636656 a.u.    44.536 eV
 403( 0) :     1.641513 a.u.    44.668 eV
 404( 0) :     1.645313 a.u.    44.771 eV
 405( 0) :     1.652736 a.u.    44.973 eV
 406( 0) :     1.659639 a.u.    45.161 eV
 407( 0) :     1.665470 a.u.    45.320 eV
 408( 0) :     1.666744 a.u.    45.354 eV
 409( 0) :     1.682558 a.u.    45.785 eV
 410( 0) :     1.690149 a.u.    45.991 eV
 411( 0) :     1.698471 a.u.    46.218 eV
 412( 0) :     1.702544 a.u.    46.329 eV
 413( 0) :     1.722669 a.u.    46.876 eV
 414( 0) :     1.725314 a.u.    46.948 eV
 415( 0) :     1.745652 a.u.    47.502 eV
 416( 0) :     1.747903 a.u.    47.563 eV
 417( 0) :     1.761566 a.u.    47.935 eV
 418( 0) :     1.764040 a.u.    48.002 eV
 419( 0) :     1.766643 a.u.    48.073 eV
 420( 0) :     1.771600 a.u.    48.208 eV
 421( 0) :     1.788427 a.u.    48.666 eV
 422( 0) :     1.796181 a.u.    48.877 eV
 423( 0) :     1.799393 a.u.    48.964 eV
 424( 0) :     1.806991 a.u.    49.171 eV
 425( 0) :     1.818492 a.u.    49.484 eV
 426( 0) :     1.828491 a.u.    49.756 eV
 427( 0) :     1.836138 a.u.    49.964 eV
 428( 0) :     1.858882 a.u.    50.583 eV
 429( 0) :     1.871336 a.u.    50.922 eV
 430( 0) :     1.879013 a.u.    51.131 eV
 431( 0) :     1.881061 a.u.    51.186 eV
 432( 0) :     1.954687 a.u.    53.190 eV
 433( 0) :     1.969197 a.u.    53.585 eV
 434( 0) :     2.005800 a.u.    54.581 eV
 435( 0) :     2.099962 a.u.    57.143 eV
 436( 0) :     2.109120 a.u.    57.392 eV
 437( 0) :     2.132176 a.u.    58.019 eV
 438( 0) :     2.261886 a.u.    61.549 eV
 439( 0) :     2.287666 a.u.    62.251 eV
 440( 0) :     2.308017 a.u.    62.804 eV
 441( 0) :     2.375293 a.u.    64.635 eV
 442( 0) :     2.422941 a.u.    65.932 eV
 443( 0) :     2.443087 a.u.    66.480 eV
 444( 0) :     2.463015 a.u.    67.022 eV
 445( 0) :     2.467172 a.u.    67.135 eV
 446( 0) :     2.472120 a.u.    67.270 eV
 447( 0) :     2.486135 a.u.    67.651 eV
 448( 0) :     2.506895 a.u.    68.216 eV
 449( 0) :     2.528223 a.u.    68.796 eV
 450( 0) :     2.617157 a.u.    71.216 eV
 451( 0) :     2.627333 a.u.    71.493 eV
 452( 0) :     3.344541 a.u.    91.010 eV
 453( 0) :     3.600955 a.u.    97.987 eV
 454( 0) :     3.654782 a.u.    99.452 eV
 455( 0) :     3.675261 a.u.   100.009 eV
 456( 0) :     3.706713 a.u.   100.865 eV
 457( 0) :     3.718628 a.u.   101.189 eV
 458( 0) :     3.911707 a.u.   106.443 eV
 459( 0) :     3.913250 a.u.   106.485 eV
 460( 0) :     3.916614 a.u.   106.576 eV
 461( 0) :     3.921286 a.u.   106.704 eV
 462( 0) :     3.924106 a.u.   106.780 eV
 463( 0) :     3.924625 a.u.   106.794 eV
 464( 0) :     3.934386 a.u.   107.060 eV
 465( 0) :    23.749681 a.u.   646.262 eV
 466( 0) :    23.836849 a.u.   648.634 eV
 467( 0) :    23.851844 a.u.   649.042 eV
 468( 0) :    24.273384 a.u.   660.512 eV
 469( 0) :    24.456046 a.u.   665.483 eV
 470( 0) :    24.650204 a.u.   670.766 eV
 471( 0) :    24.740250 a.u.   673.216 eV
 472( 0) :    24.936541 a.u.   678.558 eV
 473( 0) :    25.026405 a.u.   681.003 eV
 474( 0) :    25.138871 a.u.   684.063 eV
 475( 0) :    25.378892 a.u.   690.595 eV
 476( 0) :    25.417249 a.u.   691.639 eV
 477( 0) :    25.552763 a.u.   695.326 eV
 478( 0) :    25.681076 a.u.   698.818 eV
 479( 0) :    25.777312 a.u.   701.436 eV
 480( 0) :    25.790620 a.u.   701.798 eV
 481( 0) :    26.060234 a.u.   709.135 eV
 482( 0) :    26.183798 a.u.   712.497 eV
 483( 0) :    26.355515 a.u.   717.170 eV
 484( 0) :    26.379009 a.u.   717.809 eV
 485( 0) :    26.439813 a.u.   719.464 eV
 486( 0) :    26.632243 a.u.   724.700 eV
 487( 0) :    26.763177 a.u.   728.263 eV
 488( 0) :    26.801870 a.u.   729.316 eV
 489( 0) :    27.117395 a.u.   737.902 eV
 490( 0) :    27.148773 a.u.   738.756 eV
 491( 0) :    27.338238 a.u.   743.911 eV
 492( 0) :    27.664755 a.u.   752.796 eV
 493( 0) :    27.946093 a.u.   760.452 eV
 494( 0) :    28.009550 a.u.   762.179 eV
 495( 0) :    28.262593 a.u.   769.064 eV
 496( 0) :    29.009523 a.u.   789.389 eV
 497( 0) :    29.082421 a.u.   791.373 eV
 498( 0) :    30.213009 a.u.   822.138 eV
 499( 0) :    30.849193 a.u.   839.449 eV
 500( 0) :    31.955698 a.u.   869.559 eV
 501( 0) :    43.869110 a.u.  1193.739 eV
 502( 0) :    44.004791 a.u.  1197.431 eV
 503( 0) :    44.056071 a.u.  1198.827 eV
 504( 0) :    44.058945 a.u.  1198.905 eV
 505( 0) :    44.108693 a.u.  1200.259 eV
 506( 0) :    44.120305 a.u.  1200.575 eV
 507( 0) :    44.139155 a.u.  1201.087 eV
 508( 0) :    44.145297 a.u.  1201.255 eV
 509( 0) :    44.146108 a.u.  1201.277 eV
 510( 0) :    44.160744 a.u.  1201.675 eV
 511( 0) :    44.175044 a.u.  1202.064 eV
 512( 0) :    44.248742 a.u.  1204.069 eV
 513( 0) :   205.078285 a.u.  5580.464 eV
 514( 0) :   205.133612 a.u.  5581.969 eV
 515( 0) :   205.152966 a.u.  5582.496 eV
 516( 0) :   205.153238 a.u.  5582.503 eV
 517( 0) :   205.179425 a.u.  5583.216 eV
 518( 0) :   205.183145 a.u.  5583.317 eV
 519( 0) :   205.192567 a.u.  5583.574 eV
 520( 0) :   205.192949 a.u.  5583.584 eV
 521( 0) :   205.194673 a.u.  5583.631 eV
 522( 0) :   205.200853 a.u.  5583.799 eV
 523( 0) :   205.204604 a.u.  5583.901 eV
 524( 0) :   205.228980 a.u.  5584.564 eV
-------
TIMINGS
-------

Total SCF time: 0 days 0 hours 0 min 45 sec 

Total time                  ....      45.480 sec
Sum of individual times     ....      43.155 sec  ( 94.9%)

Fock matrix formation       ....      34.008 sec  ( 74.8%)
  Split-RI-J                ....      12.312 sec  ( 36.2% of F)
  XC integration            ....      21.091 sec  ( 62.0% of F)
    Basis function eval.    ....       2.636 sec  ( 12.5% of XC)
    Density eval.           ....      10.020 sec  ( 47.5% of XC)
    XC-Functional eval.     ....       0.243 sec  (  1.2% of XC)
    XC-Potential eval.      ....       6.162 sec  ( 29.2% of XC)
Diagonalization             ....       3.704 sec  (  8.1%)
Density matrix formation    ....       0.280 sec  (  0.6%)
Population analysis         ....       2.213 sec  (  4.9%)
Initial guess               ....       0.304 sec  (  0.7%)
Orbital Transformation      ....       1.246 sec  (  2.7%)
Orbital Orthonormalization  ....       0.266 sec  (  0.6%)
DIIS solution               ....       0.000 sec  (  0.0%)
Grid generation             ....       1.383 sec  (  3.0%)

Maximum memory used throughout the entire SCF-calculation: 82.8 MB

-------------------------   --------------------
FINAL SINGLE POINT ENERGY     -2893.390264085389
-------------------------   --------------------

                                *** OPTIMIZATION RUN DONE ***

                            ***************************************
                            *     ORCA property calculations      *
                            ***************************************

                                    ---------------------
                                    Active property flags
                                    ---------------------
   (+) Dipole Moment


------------------------------------------------------------------------------
                       ORCA ELECTRIC PROPERTIES CALCULATION
------------------------------------------------------------------------------

Dipole Moment Calculation                       ... on
Quadrupole Moment Calculation                   ... off
Polarizability Calculation                      ... off
GBWName                                         ... pbe.gbw
Electron density                                ... pbe.scfp
The origin for moment calculation is the CENTER OF MASS  = (17.589549, 13.838125 16.974681)

-------------
DIPOLE MOMENT
-------------
                                X             Y             Z
Electronic contribution:      0.40107       5.78718      16.93803
Nuclear contribution   :     -0.35741      -5.64834     -16.60349
                        -----------------------------------------
Total Dipole Moment    :      0.04367       0.13884       0.33454
                        -----------------------------------------
Magnitude (a.u.)       :      0.36484
Magnitude (Debye)      :      0.92734



--------------------
Rotational spectrum 
--------------------
 
Rotational constants in cm-1:     0.001561     0.001300     0.001202 
Rotational constants in MHz :    46.799173    38.977309    36.032870 

 Dipole components along the rotational axes: 
x,y,z [a.u.] :     0.336334     0.003467     0.141322 
x,y,z [Debye]:     0.854894     0.008813     0.359211 

 

Timings for individual modules:

Sum of individual times         ...     1634.738 sec (=  27.246 min)
GTO integral calculation        ...      135.801 sec (=   2.263 min)   8.3 %
SCF iterations                  ...      826.062 sec (=  13.768 min)  50.5 %
SCF Gradient evaluation         ...      672.492 sec (=  11.208 min)  41.1 %
Geometry relaxation             ...        0.382 sec (=   0.006 min)   0.0 %
                             ****ORCA TERMINATED NORMALLY****
TOTAL RUN TIME: 0 days 0 hours 27 minutes 18 seconds 544 msec
