
                                 *****************
                                 * O   R   C   A *
                                 *****************

                                            #,                                       
                                            ###                                      
                                            ####                                     
                                            #####                                    
                                            ######                                   
                                           ########,                                 
                                     ,,################,,,,,                         
                               ,,#################################,,                 
                          ,,##########################################,,             
                       ,#########################################, ''#####,          
                    ,#############################################,,   '####,        
                  ,##################################################,,,,####,       
                ,###########''''           ''''###############################       
              ,#####''   ,,,,##########,,,,          '''####'''          '####       
            ,##' ,,,,###########################,,,                        '##       
           ' ,,###''''                  '''############,,,                           
         ,,##''                                '''############,,,,        ,,,,,,###''
      ,#''                                            '''#######################'''  
     '                                                          ''''####''''         
             ,#######,   #######,   ,#######,      ##                                
            ,#'     '#,  ##    ##  ,#'     '#,    #''#        ######   ,####,        
            ##       ##  ##   ,#'  ##            #'  '#       #        #'  '#        
            ##       ##  #######   ##           ,######,      #####,   #    #        
            '#,     ,#'  ##    ##  '#,     ,#' ,#      #,         ##   #,  ,#        
             '#######'   ##     ##  '#######'  #'      '#     #####' # '####'        



                  #######################################################
                  #                        -***-                        #
                  #          Department of theory and spectroscopy      #
                  #    Directorship and core code : Frank Neese         #
                  #        Max Planck Institute fuer Kohlenforschung    #
                  #                Kaiser Wilhelm Platz 1               #
                  #                 D-45470 Muelheim/Ruhr               #
                  #                      Germany                        #
                  #                                                     #
                  #                  All rights reserved                #
                  #                        -***-                        #
                  #######################################################


                         Program Version 5.0.3 -  RELEASE  -


 With contributions from (in alphabetic order):
   Daniel Aravena         : Magnetic Suceptibility
   Michael Atanasov       : Ab Initio Ligand Field Theory (pilot matlab implementation)
   Alexander A. Auer      : GIAO ZORA, VPT2 properties, NMR spectrum
   Ute Becker             : Parallelization
   Giovanni Bistoni       : ED, misc. LED, open-shell LED, HFLD
   Martin Brehm           : Molecular dynamics
   Dmytro Bykov           : SCF Hessian
   Vijay G. Chilkuri      : MRCI spin determinant printing, contributions to CSF-ICE
   Dipayan Datta          : RHF DLPNO-CCSD density
   Achintya Kumar Dutta   : EOM-CC, STEOM-CC
   Dmitry Ganyushin       : Spin-Orbit,Spin-Spin,Magnetic field MRCI
   Miquel Garcia          : C-PCM and meta-GGA Hessian, CC/C-PCM, Gaussian charge scheme
   Yang Guo               : DLPNO-NEVPT2, F12-NEVPT2, CIM, IAO-localization
   Andreas Hansen         : Spin unrestricted coupled pair/coupled cluster methods
   Benjamin Helmich-Paris : MC-RPA, TRAH-SCF, COSX integrals
   Lee Huntington         : MR-EOM, pCC
   Robert Izsak           : Overlap fitted RIJCOSX, COSX-SCS-MP3, EOM
   Marcus Kettner         : VPT2
   Christian Kollmar      : KDIIS, OOCD, Brueckner-CCSD(T), CCSD density, CASPT2, CASPT2-K
   Simone Kossmann        : Meta GGA functionals, TD-DFT gradient, OOMP2, MP2 Hessian
   Martin Krupicka        : Initial AUTO-CI
   Lucas Lang             : DCDCAS
   Marvin Lechner         : AUTO-CI (C++ implementation), FIC-MRCC
   Dagmar Lenk            : GEPOL surface, SMD
   Dimitrios Liakos       : Extrapolation schemes; Compound Job, initial MDCI parallelization
   Dimitrios Manganas     : Further ROCIS development; embedding schemes
   Dimitrios Pantazis     : SARC Basis sets
   Anastasios Papadopoulos: AUTO-CI, single reference methods and gradients
   Taras Petrenko         : DFT Hessian,TD-DFT gradient, ASA, ECA, R-Raman, ABS, FL, XAS/XES, NRVS
   Peter Pinski           : DLPNO-MP2, DLPNO-MP2 Gradient
   Christoph Reimann      : Effective Core Potentials
   Marius Retegan         : Local ZFS, SOC
   Christoph Riplinger    : Optimizer, TS searches, QM/MM, DLPNO-CCSD(T), (RO)-DLPNO pert. Triples
   Tobias Risthaus        : Range-separated hybrids, TD-DFT gradient, RPA, STAB
   Michael Roemelt        : Original ROCIS implementation
   Masaaki Saitow         : Open-shell DLPNO-CCSD energy and density
   Barbara Sandhoefer     : DKH picture change effects
   Avijit Sen             : IP-ROCIS
   Kantharuban Sivalingam : CASSCF convergence, NEVPT2, FIC-MRCI
   Bernardo de Souza      : ESD, SOC TD-DFT
   Georgi Stoychev        : AutoAux, RI-MP2 NMR, DLPNO-MP2 response
   Willem Van den Heuvel  : Paramagnetic NMR
   Boris Wezisla          : Elementary symmetry handling
   Frank Wennmohs         : Technical directorship


 We gratefully acknowledge several colleagues who have allowed us to
 interface, adapt or use parts of their codes:
   Stefan Grimme, W. Hujo, H. Kruse, P. Pracht,  : VdW corrections, initial TS optimization,
                  C. Bannwarth, S. Ehlert          DFT functionals, gCP, sTDA/sTD-DF
   Ed Valeev, F. Pavosevic, A. Kumar             : LibInt (2-el integral package), F12 methods
   Garnet Chan, S. Sharma, J. Yang, R. Olivares  : DMRG
   Ulf Ekstrom                                   : XCFun DFT Library
   Mihaly Kallay                                 : mrcc  (arbitrary order and MRCC methods)
   Jiri Pittner, Ondrej Demel                    : Mk-CCSD
   Frank Weinhold                                : gennbo (NPA and NBO analysis)
   Christopher J. Cramer and Donald G. Truhlar   : smd solvation model
   Lars Goerigk                                  : TD-DFT with DH, B97 family of functionals
   V. Asgeirsson, H. Jonsson                     : NEB implementation
   FAccTs GmbH                                   : IRC, NEB, NEB-TS, DLPNO-Multilevel, CI-OPT
                                                   MM, QMMM, 2- and 3-layer-ONIOM, Crystal-QMMM,
                                                   LR-CPCM, SF, NACMEs, symmetry and pop. for TD-DFT,
                                                   nearIR, NL-DFT gradient (VV10), updates on ESD,
                                                   ML-optimized integration grids
   S Lehtola, MJT Oliveira, MAL Marques          : LibXC Library
   Liviu Ungur et al                             : ANISO software


 Your calculation uses the libint2 library for the computation of 2-el integrals
 For citations please refer to: http://libint.valeyev.net

 Your ORCA version has been built with support for libXC version: 5.1.0
 For citations please refer to: https://tddft.org/programs/libxc/

 This ORCA versions uses:
   CBLAS   interface :  Fast vector & matrix operations
   LAPACKE interface :  Fast linear algebra routines
   SCALAPACK package :  Parallel linear algebra routines
   Shared memory     :  Shared parallel matrices
   BLAS/LAPACK       :  OpenBLAS 0.3.15  USE64BITINT DYNAMIC_ARCH NO_AFFINITY Haswell SINGLE_THREADED
        Core in use  :  Haswell
   Copyright (c) 2011-2014, The OpenBLAS Project




***************************************
The coordinates will be read from file: pbe.xyz
***************************************


================================================================================

cite the ECPs for Au [Def2-ECP] as follows:
Ce-Yb(ecp-28): M. Dolg, H. Stoll, H.Preuss, J. Chem. Phys., 1989, 90, 1730-1734.
Y-Cd(ecp-28), Hf-Hg(ecp-46): D. Andrae,U. Haeussermann, M. Dolg, H. Stoll, H. Preuss, Theor. Chim. Acta, 1990, 77, 123-141.
In-Sb(ecp-28), Tl-Bi(ecp-46): B. Metz, H. Stoll, M. Dolg, J. Chem. Phys., 2000, 113, 2563-2569.
Te-Xe(ecp-28), Po-Rn(ecp-46): K. A. Peterson, D. Figgen, E. Goll, H. Stoll, M. Dolg, J. Chem. Phys., 2003, 119, 11113-11123.
Rb(ecp-28), Cs(ecp-46): T. Leininger, A. Nicklass, W. Kuechle, H. Stoll, M. Dolg, A. Bergner, Chem. Phys. Lett., 1996, 255, 274-280.
Sr(ecp-28), Ba(ecp-46): M. Kaupp, P. V. Schleyer, H. Stoll and H. Preuss, J. Chem. Phys., 1991, 94, 1360-1366.
La(ecp-46): M. Dolg, H. Stoll, A. Savin, H. Preuss, Theor. Chim. Acta, 1989, 75, 173-194.
Lu(ecp-28): X. Cao, M. Dolg, J. Chem. Phys., 2001, 115, 7348-7355.

ECP parameters for Au [Def2-ECP] have been obtained from:
TURBOMOLE (7.0.2)

----- Orbital basis set information -----
Your calculation utilizes the basis: def2-TZVP
   F. Weigend and R. Ahlrichs, Phys. Chem. Chem. Phys. 7, 3297 (2005).

----- AuxJ basis set information -----
Your calculation utilizes the auxiliary basis: def2/J
   F. Weigend, Phys. Chem. Chem. Phys. 8, 1057 (2006).

----- AuxC basis set information -----
Your calculation utilizes the auxiliary basis: def2-TZVP/C
  H-La, Hf-Rn : A. Hellweg, C. Hattig, S. Hofener and W. Klopper, Theor. Chem. Acc. 117, 587 (2007).
        Ce-Lu : J. Chmela and M. E. Harding, Mol. Phys. (2018).

================================================================================
                                        WARNINGS
                       Please study these warnings very carefully!
================================================================================


IMPORTANT NOTE: CASSCF must signal convergence for a subsequent CASPT2/NEVPT2! 
                Set maxiter=1 to run CASPT2/NEVPT2 with arbitrary orbitals.


INFO   : the flag for use of the SHARK integral package has been found!

================================================================================
                                       INPUT FILE
================================================================================
NAME = nevpt2.inp
|  1> !SC-NEVPT2 def2-TZVP def2-TZVP/C
|  2> !MOREAD RIJCOSX def2/J
|  3> %maxcore 4000
|  4> %moinp "casscf.gbw"
|  5> %pal nprocs 8 end 
|  6> 
|  7> %casscf
|  8>  mult 5,3
|  9>  bweight 1,1
| 10>  nroots 5,45
| 11>  nel 6
| 12>  norb 5
| 13>  ptsettings
| 14>   d4tpre 1e-14 # default = 1e-10
| 15>   d3tpre 1e-14
| 16>  end
| 17>  rel           
| 18>    dosoc true   
| 19>    gtensor true 
| 20>  end           
| 21> end
| 22> 
| 23> 
| 24> *xyzfile 0 5 pbe.xyz
| 25> 
| 26> 
| 27>                          ****END OF INPUT****
================================================================================

                       ****************************
                       * Single Point Calculation *
                       ****************************

---------------------------------
CARTESIAN COORDINATES (ANGSTROEM)
---------------------------------
  Au     9.796898    8.275430   10.346947
  Au    10.018345    6.002777    8.757944
  Au     7.310273    9.502772   10.141337
  Au     5.262915    5.487197    8.547052
  Au     7.480229    6.732565    9.714829
  Au     5.144164    8.301494    8.903928
  Au    11.097653    8.403125    7.873384
  Au     9.465279   10.520299    8.713260
  Au     7.833197    4.815303    7.538404
  Au     9.483880    9.737256    6.046784
  Au     9.357228    6.927450    6.182528
  Au     7.221646    5.680316    4.901455
  Au     7.308379    8.523364    4.834273
  Au     4.512267    5.972377    5.796691
  Au     4.796129    8.814475    6.130623
  Au     7.017658    9.951537    7.377466
  Cr     6.638738    7.144431    7.020043

----------------------------
CARTESIAN COORDINATES (A.U.)
----------------------------
  NO LB      ZA    FRAG     MASS         X           Y           Z
   0 Au   19.0000*   0   196.966   18.513454   15.638296   19.552895
   1 Au   19.0000*   0   196.966   18.931929   11.343605   16.550115
   2 Au   19.0000*   0   196.966   13.814415   17.957637   19.164349
   3 Au   19.0000*   0   196.966    9.945469   10.369299   16.151588
   4 Au   19.0000*   0   196.966   14.135585   12.722704   18.358366
   5 Au   19.0000*   0   196.966    9.721060   15.687551   16.825986
   6 Au   19.0000*   0   196.966   20.971525   15.879604   14.878540
   7 Au   19.0000*   0   196.966   17.886785   19.880484   16.465676
   8 Au   19.0000*   0   196.966   14.802596    9.099603   14.245518
   9 Au   19.0000*   0   196.966   17.921937   18.400747   11.426766
  10 Au   19.0000*   0   196.966   17.682598   13.090982   11.683285
  11 Au   19.0000*   0   196.966   13.646933   10.734241    9.262407
  12 Au   19.0000*   0   196.966   13.810835   16.106823    9.135452
  13 Au   19.0000*   0   196.966    8.526949   11.286156   10.954158
  14 Au   19.0000*   0   196.966    9.063371   16.656945   11.585198
  15 Au   19.0000*   0   196.966   13.261451   18.805680   13.941389
  16 Cr   24.0000    0    52.000   12.545396   13.501019   13.265959
* core charge reduced due to ECP

--------------------------------
INTERNAL COORDINATES (ANGSTROEM)
--------------------------------
 Au     0   0   0     0.000000000000     0.00000000     0.00000000
 Au     1   0   0     2.781891311981     0.00000000     0.00000000
 Au     1   2   0     2.780637571276   112.92592337     0.00000000
 Au     3   1   2     4.781031861754    92.11367699    21.40471154
 Au     4   3   1     2.798414973182    31.54475310    11.90591048
 Au     3   1   2     2.768804829647   122.76203021    11.76156293
 Au     2   1   3     2.776511662786    60.43928932    99.67649599
 Au     3   1   2     2.778275059582    60.39724647   260.20165246
 Au     2   1   3     2.769882615816   122.61031957   347.95694397
 Au     7   2   1     2.778603230257   113.50064858   260.34860076
 Au     2   1   3     2.815113064653   103.62261163    54.92321681
 Au    11   2   1     2.785175370282   116.98709039   237.86820897
 Au    10   7   2     2.770654280650   122.23229647   347.46901953
 Au    12  11   2     2.868358502347   122.35195204    68.72955177
 Au     6   3   1     2.841742464363   116.97758734   268.78626356
 Au    15   6   3     2.789751655424    62.60487688     1.85922540
 Cr     4   3   1     2.640278774348    56.11910336   278.70883926

---------------------------
INTERNAL COORDINATES (A.U.)
---------------------------
 Au     0   0   0     0.000000000000     0.00000000     0.00000000
 Au     1   0   0     5.257012713978     0.00000000     0.00000000
 Au     1   2   0     5.254643487403   112.92592337     0.00000000
 Au     3   1   2     9.034840856266    92.11367699    21.40471154
 Au     4   3   1     5.288237908378    31.54475310    11.90591048
 Au     3   1   2     5.232282846311   122.76203021    11.76156293
 Au     2   1   3     5.246846650303    60.43928932    99.67649599
 Au     3   1   2     5.250178987313    60.39724647   260.20165246
 Au     2   1   3     5.234319567002   122.61031957   347.95694397
 Au     7   2   1     5.250799140014   113.50064858   260.34860076
 Au     2   1   3     5.319792728218   103.62261163    54.92321681
 Au    11   2   1     5.263218684776   116.98709039   237.86820897
 Au    10   7   2     5.235777802206   122.23229647   347.46901953
 Au    12  11   2     5.420412023341   122.35195204    68.72955177
 Au     6   3   1     5.370115000781   116.97758734   268.78626356
 Au    15   6   3     5.271866610405    62.60487688     1.85922540
 Cr     4   3   1     4.989403800724    56.11910336   278.70883926

---------------------
BASIS SET INFORMATION
---------------------
There are 2 groups of distinct atoms

 Group   1 Type Au  : 8s7p6d1f contracted to 6s4p3d1f pattern {311111/4111/411/1}
 Group   2 Type Cr  : 17s11p7d1f contracted to 6s4p4d1f pattern {842111/6311/4111/1}

Atom   0Au   basis set group =>   1
Atom   1Au   basis set group =>   1
Atom   2Au   basis set group =>   1
Atom   3Au   basis set group =>   1
Atom   4Au   basis set group =>   1
Atom   5Au   basis set group =>   1
Atom   6Au   basis set group =>   1
Atom   7Au   basis set group =>   1
Atom   8Au   basis set group =>   1
Atom   9Au   basis set group =>   1
Atom  10Au   basis set group =>   1
Atom  11Au   basis set group =>   1
Atom  12Au   basis set group =>   1
Atom  13Au   basis set group =>   1
Atom  14Au   basis set group =>   1
Atom  15Au   basis set group =>   1
Atom  16Cr   basis set group =>   2
---------------------------------
AUXILIARY/J BASIS SET INFORMATION
---------------------------------
There are 2 groups of distinct atoms

 Group   1 Type Au  : 11s5p5d3f3g contracted to 8s5p5d2f3g pattern {41111111/11111/11111/21/111}
 Group   2 Type Cr  : 19s5p5d3f3g contracted to 8s5p5d2f3g pattern {121111111/11111/11111/21/111}

Atom   0Au   basis set group =>   1
Atom   1Au   basis set group =>   1
Atom   2Au   basis set group =>   1
Atom   3Au   basis set group =>   1
Atom   4Au   basis set group =>   1
Atom   5Au   basis set group =>   1
Atom   6Au   basis set group =>   1
Atom   7Au   basis set group =>   1
Atom   8Au   basis set group =>   1
Atom   9Au   basis set group =>   1
Atom  10Au   basis set group =>   1
Atom  11Au   basis set group =>   1
Atom  12Au   basis set group =>   1
Atom  13Au   basis set group =>   1
Atom  14Au   basis set group =>   1
Atom  15Au   basis set group =>   1
Atom  16Cr   basis set group =>   2
---------------------------------
AUXILIARY/C BASIS SET INFORMATION
---------------------------------
There are 2 groups of distinct atoms

 Group   1 Type Au  : 8s8p7d5f3g2h contracted to 8s8p7d5f3g2h pattern {11111111/11111111/1111111/11111/111/11}
 Group   2 Type Cr  : 11s9p8d6f5g2h contracted to 9s8p8d6f5g2h pattern {311111111/21111111/11111111/111111/11111/11}

Atom   0Au   basis set group =>   1
Atom   1Au   basis set group =>   1
Atom   2Au   basis set group =>   1
Atom   3Au   basis set group =>   1
Atom   4Au   basis set group =>   1
Atom   5Au   basis set group =>   1
Atom   6Au   basis set group =>   1
Atom   7Au   basis set group =>   1
Atom   8Au   basis set group =>   1
Atom   9Au   basis set group =>   1
Atom  10Au   basis set group =>   1
Atom  11Au   basis set group =>   1
Atom  12Au   basis set group =>   1
Atom  13Au   basis set group =>   1
Atom  14Au   basis set group =>   1
Atom  15Au   basis set group =>   1
Atom  16Cr   basis set group =>   2
-------------------------
ECP PARAMETER INFORMATION
-------------------------

 Group 1, Type Au ECP Def2-ECP (replacing 60 core electrons, lmax=3)

Atom   0Au   ECP group =>   1
Atom   1Au   ECP group =>   1
Atom   2Au   ECP group =>   1
Atom   3Au   ECP group =>   1
Atom   4Au   ECP group =>   1
Atom   5Au   ECP group =>   1
Atom   6Au   ECP group =>   1
Atom   7Au   ECP group =>   1
Atom   8Au   ECP group =>   1
Atom   9Au   ECP group =>   1
Atom  10Au   ECP group =>   1
Atom  11Au   ECP group =>   1
Atom  12Au   ECP group =>   1
Atom  13Au   ECP group =>   1
Atom  14Au   ECP group =>   1
Atom  15Au   ECP group =>   1



           ************************************************************
           *        Program running with 8 parallel MPI-processes     *
           *              working on a common directory               *
           ************************************************************
------------------------------------------------------------------------------
                           ORCA GTO INTEGRAL CALCULATION
                           -- RI-GTO INTEGRALS CHOSEN --
------------------------------------------------------------------------------
------------------------------------------------------------------------------
                   ___                                                        
                  /   \      - P O W E R E D   B Y -                         
                 /     \                                                     
                 |  |  |   _    _      __       _____    __    __             
                 |  |  |  | |  | |    /  \     |  _  \  |  |  /  |          
                  \  \/   | |  | |   /    \    | | | |  |  | /  /          
                 / \  \   | |__| |  /  /\  \   | |_| |  |  |/  /          
                |  |  |   |  __  | /  /__\  \  |    /   |      \           
                |  |  |   | |  | | |   __   |  |    \   |  |\   \          
                \     /   | |  | | |  |  |  |  | |\  \  |  | \   \       
                 \___/    |_|  |_| |__|  |__|  |_| \__\ |__|  \__/        
                                                                              
                      - O R C A' S   B I G   F R I E N D -                    
                                      &                                       
                       - I N T E G R A L  F E E D E R -                       
                                                                              
 v1 FN, 2020, v2 2021                                                         
------------------------------------------------------------------------------


Reading SHARK input file nevpt2.SHARKINP.tmp ... ok
----------------------
SHARK INTEGRAL PACKAGE
----------------------

Number of atoms                             ...     17
Number of basis functions                   ...    685
Number of shells                            ...    239
Maximum angular momentum                    ...      3
Integral batch strategy                     ... SHARK/LIBINT Hybrid
RI-J (if used) integral strategy            ... SPLIT-RIJ (Revised 2003 algorithm where possible)
Printlevel                                  ...      1
Contraction scheme used                     ... SEGMENTED contraction
Coulomb Range Separation                    ... NOT USED
Exchange Range Separation                   ... NOT USED
Finite Nucleus Model                        ... NOT USED
Auxiliary Coulomb fitting basis             ... AVAILABLE
   # of basis functions in Aux-J            ...   1513
   # of shells in Aux-J                     ...    391
   Maximum angular momentum in Aux-J        ...      4
Auxiliary J/K fitting basis                 ... NOT available
Auxiliary Correlation fitting basis         ... AVAILABLE
   # of basis functions in Aux-C            ...   2598
   # of shells in Aux-C                     ...    566
   Maximum angular momentum in Aux-C        ...      5
Auxiliary 'external' fitting basis          ... NOT available
Integral threshold                          ...     1.000000e-10
Primitive cut-off                           ...     1.000000e-11
Primitive pair pre-selection threshold      ...     1.000000e-11

Calculating pre-screening integrals         ... done (  0.1 sec) Dimension = 239
Organizing shell pair data                  ... done (  0.4 sec)
Shell pair information
Total number of shell pairs                 ...     28680
Shell pairs after pre-screening             ...     22163
Total number of primitive shell pairs       ...     75765
Primitive shell pairs kept                  ...     42003
          la=0 lb=0:   3503 shell pairs
          la=1 lb=0:   5051 shell pairs
          la=1 lb=1:   1912 shell pairs
          la=2 lb=0:   4407 shell pairs
          la=2 lb=1:   3115 shell pairs
          la=2 lb=2:   1285 shell pairs
          la=3 lb=0:   1149 shell pairs
          la=3 lb=1:    860 shell pairs
          la=3 lb=2:    766 shell pairs
          la=3 lb=3:    115 shell pairs

Calculating one electron integrals          ... done (  0.0 sec)
Calculating ECP integrals                   ... done ( 12.2 sec)
Calculating RI/J V-Matrix + Cholesky decomp.... done (  0.1 sec)
Calculating RI/C V-Matrix + Cholesky decomp.... done (  0.3 sec)
Calculating Nuclear repulsion               ... done (  0.0 sec) ENN=   6914.558209319399 Eh

SHARK setup successfully completed in  13.3 seconds

Maximum memory used throughout the entire GTOINT-calculation: 54.5 MB


           ************************************************************
           *        Program running with 8 parallel MPI-processes     *
           *              working on a common directory               *
           ************************************************************
-------------------------------------------------------------------------------
                                 ORCA SCF
-------------------------------------------------------------------------------

------------
SCF SETTINGS
------------
Hamiltonian:
 Ab initio Hamiltonian  Method          .... Hartree-Fock(GTOs)
 RI-approximation to the Coulomb term is turned on
   Number of AuxJ basis functions       .... 1513
   RIJ-COSX (HFX calculated with COS-X)).... on


General Settings:
 Integral files         IntName         .... nevpt2
 Hartree-Fock type      HFTyp           .... CASSCF
 Total Charge           Charge          ....    0
 Multiplicity           Mult            ....    5
 Number of Electrons    NEL             ....  328
 Basis Dimension        Dim             ....  685
 Nuclear Repulsion      ENuc            ....   6914.5582093194 Eh


Diagonalization of the overlap matrix:
Smallest eigenvalue                        ... 5.872e-05
Time for diagonalization                   ...    0.095 sec
Threshold for overlap eigenvalues          ... 1.000e-08
Number of eigenvalues below threshold      ... 0
Time for construction of square roots      ...    0.047 sec
Total time needed                          ...    0.143 sec

---------------------
INITIAL GUESS: MOREAD
---------------------
Guess MOs are being read from file: casscf.gbw
Input Geometry matches current geometry (good)
Input basis set matches current basis set (good)
MOs were renormalized
Gram-Schmidt orthogonalization of all MOs with pivot on actives
                      ------------------
                      INITIAL GUESS DONE (   3.2 sec)
                      ------------------
--------------------
COSX GRID GENERATION
--------------------

GRIDX 1
-------
General Integration Accuracy     IntAcc      ... 3.816
Radial Grid Type                 RadialGrid  ... OptM3 with GC (2021)
Angular Grid (max. ang.)         AngularGrid ... 1 (Lebedev-50)
Angular grid pruning method      GridPruning ... 4 (adaptive)
Weight generation scheme         WeightScheme... Becke
Basis function cutoff            BFCut       ... 1.0000e-10
Integration weight cutoff        WCut        ... 1.0000e-14
Angular grids for H and He will be reduced by one unit
Partially contracted basis set               ... on
Rotationally invariant grid construction     ... off

Total number of grid points                  ...    19545
Total number of batches                      ...      314
Average number of points per batch           ...       62
Average number of grid points per atom       ...     1150
UseSFitting                                  ... on

GRIDX 2
-------
General Integration Accuracy     IntAcc      ... 4.020
Radial Grid Type                 RadialGrid  ... OptM3 with GC (2021)
Angular Grid (max. ang.)         AngularGrid ... 2 (Lebedev-110)
Angular grid pruning method      GridPruning ... 4 (adaptive)
Weight generation scheme         WeightScheme... Becke
Basis function cutoff            BFCut       ... 1.0000e-10
Integration weight cutoff        WCut        ... 1.0000e-14
Angular grids for H and He will be reduced by one unit
Partially contracted basis set               ... on
Rotationally invariant grid construction     ... off

Total number of grid points                  ...    59185
Total number of batches                      ...      933
Average number of points per batch           ...       63
Average number of grid points per atom       ...     3481
UseSFitting                                  ... on

GRIDX 3
-------
General Integration Accuracy     IntAcc      ... 4.338
Radial Grid Type                 RadialGrid  ... OptM3 with GC (2021)
Angular Grid (max. ang.)         AngularGrid ... 3 (Lebedev-194)
Angular grid pruning method      GridPruning ... 4 (adaptive)
Weight generation scheme         WeightScheme... Becke
Basis function cutoff            BFCut       ... 1.0000e-10
Integration weight cutoff        WCut        ... 1.0000e-14
Angular grids for H and He will be reduced by one unit
Partially contracted basis set               ... on
Rotationally invariant grid construction     ... off

Total number of grid points                  ...   107308
Total number of batches                      ...     1687
Average number of points per batch           ...       63
Average number of grid points per atom       ...     6312
UseSFitting                                  ... on

Time for X-Grid setup             =    1.623 sec



 ... the calculation is a CASSCF calculation -I'm leaving here GOOD LUCK!!!



           ************************************************************
           *        Program running with 8 parallel MPI-processes     *
           *              working on a common directory               *
           ************************************************************
-------------------------------------------------------------------------------
                              ORCA-CASSCF
-------------------------------------------------------------------------------

Setting up the integral package       ... done
Setting up the integral package (RI)  ... done
Building the CAS space                ... done (5 configurations for Mult=5)
Building the CAS space                ... done (35 configurations for Mult=3)

 CASSCF (estimated) memory needed     ... 192.6 MB
 NEVPT2 (estimated) memory needed     ... 757.2 MB


SYSTEM-SPECIFIC SETTINGS:
Number of active electrons          ...    6
Number of active orbitals           ...    5
Total number of electrons           ...  328
Total number of orbitals            ...  685
Total number aux. functions         ... 2598

Determined orbital ranges:
   Internal       0 -  160 ( 161 orbitals)
   Active       161 -  165 (   5 orbitals)
   External     166 -  684 ( 519 orbitals)
Number of rotation parameters      ...  86959

CI-STEP:
CI strategy                         ... General CI
Number of multiplicity blocks       ...    2
BLOCK  1 WEIGHT=   0.5000
  Multiplicity                      ...    5
  #(Configurations)                 ...    5
  #(CSFs)                           ...    5
  #(Roots)                          ...    5
    ROOT=0 WEIGHT=    0.100000
    ROOT=1 WEIGHT=    0.100000
    ROOT=2 WEIGHT=    0.100000
    ROOT=3 WEIGHT=    0.100000
    ROOT=4 WEIGHT=    0.100000

BLOCK  2 WEIGHT=   0.5000
  Multiplicity                      ...    3
  #(Configurations)                 ...   35
  #(CSFs)                           ...   45
  #(Roots)                          ...   45
    ROOT=0 WEIGHT=    0.011111
    ROOT=1 WEIGHT=    0.011111
    ROOT=2 WEIGHT=    0.011111
    ROOT=3 WEIGHT=    0.011111
    ROOT=4 WEIGHT=    0.011111
    ROOT=5 WEIGHT=    0.011111
    ROOT=6 WEIGHT=    0.011111
    ROOT=7 WEIGHT=    0.011111
    ROOT=8 WEIGHT=    0.011111
    ROOT=9 WEIGHT=    0.011111
    ROOT=10 WEIGHT=    0.011111
    ROOT=11 WEIGHT=    0.011111
    ROOT=12 WEIGHT=    0.011111
    ROOT=13 WEIGHT=    0.011111
    ROOT=14 WEIGHT=    0.011111
    ROOT=15 WEIGHT=    0.011111
    ROOT=16 WEIGHT=    0.011111
    ROOT=17 WEIGHT=    0.011111
    ROOT=18 WEIGHT=    0.011111
    ROOT=19 WEIGHT=    0.011111
    ROOT=20 WEIGHT=    0.011111
    ROOT=21 WEIGHT=    0.011111
    ROOT=22 WEIGHT=    0.011111
    ROOT=23 WEIGHT=    0.011111
    ROOT=24 WEIGHT=    0.011111
    ROOT=25 WEIGHT=    0.011111
    ROOT=26 WEIGHT=    0.011111
    ROOT=27 WEIGHT=    0.011111
    ROOT=28 WEIGHT=    0.011111
    ROOT=29 WEIGHT=    0.011111
    ROOT=30 WEIGHT=    0.011111
    ROOT=31 WEIGHT=    0.011111
    ROOT=32 WEIGHT=    0.011111
    ROOT=33 WEIGHT=    0.011111
    ROOT=34 WEIGHT=    0.011111
    ROOT=35 WEIGHT=    0.011111
    ROOT=36 WEIGHT=    0.011111
    ROOT=37 WEIGHT=    0.011111
    ROOT=38 WEIGHT=    0.011111
    ROOT=39 WEIGHT=    0.011111
    ROOT=40 WEIGHT=    0.011111
    ROOT=41 WEIGHT=    0.011111
    ROOT=42 WEIGHT=    0.011111
    ROOT=43 WEIGHT=    0.011111
    ROOT=44 WEIGHT=    0.011111

  PrintLevel                        ...    1
  N(GuessMat)                       ...       512
  MaxDim(CI)                        ...        10
  MaxIter(CI)                       ...        64
  Energy Tolerance CI               ...  1.00e-08
  Residual Tolerance CI             ...  1.00e-08
  Shift(CI)                         ...  1.00e-04

INTEGRAL-TRANSFORMATION-STEP:
  Algorithm                         ... RI-MO

ORBITAL-IMPROVEMENT-STEP:
  Algorithm                         ... SuperCI(PT)
  Default Parametrization           ... CAYLEY
  Act-Act rotations                 ... depends on algorithm used

  Note: SuperCI(PT) will ignore FreezeIE, FreezeAct and FreezeGrad. In general Default settings are encouraged.
        In conjunction with ShiftUp, ShiftDn or GradScaling the performance of SuperCI(PT) is less optimal.  

  MaxRot                            ... 2.00e-01 
  Max. no of vectors (DIIS)         ... 15
  DThresh (cut-off) metric          ... 1.00e-06
  Switch step at gradient           ...  3.00e-02 
  Switch step at iteration          ...        50   
  Switch step to                    ... SuperCI(PT)    

SCF-SETTINGS:
  Incremental                       ... off
  RIJCOSX approximation             ... on
  UseFinalGrid                      ... on
  RI-JK approximation               ... off
  AO integral handling              ... DIRECT
  Integral Neglect Thresh           ...  1.00e-10
  Primitive cutoff TCut             ...  1.00e-11
  Energy convergence tolerance      ...  1.00e-07
  Orbital gradient convergence      ...  1.00e-03
  Max. number of iterations         ...        75  

PT2-SETTINGS:
  A PT2 calculation will be performed on top of the CASSCF wave function (PT2 = SC-NEVPT2)   
 CI step strategy                   ... General CI
  D4C handling                      ... on the fly 
  CI truncation for D4C at          ...  1.00e-14
  CI truncation for D3  at          ...  1.00e-14
  Orbitals                          ... canonical for each state 
  Last  frozen  orbital             ... 4
  First deleted orbital             ... 685
  RI Step                           ... store IJV(array) (MC_ONDISK during integral transformation) 

PROPERTIES-SETTINGS:
  Spin orbit coupling               ... true
  GTensor                           ... true
  QDPT diagonal energies            ... NEVPT2 energies 

FINAL ORBITALS:
  Active   Orbitals                 ... natural 
  Internal Orbitals                 ... canonical 
  External Orbitals                 ... canonical 

------------------
CAS-SCF ITERATIONS
------------------


MACRO-ITERATION   1: 
   --- Inactive Energy E0 = -3191.68678827 Eh
CI-ITERATION   0: 
 -3200.225162257   0.000000000000 (    0.00)
 -3200.192406903   0.000000000000
 -3200.184472653   0.000000000000
 -3200.183291594   0.000000000000
 -3200.182318415   0.000000000000
   CI-PROBLEM SOLVED
   DENSITIES MADE
CI-ITERATION   0: 
 -3200.188217253   0.000000000000 (    0.00)
 -3200.180702670   0.000000000000
 -3200.178802920   0.000000000000
 -3200.178091069   0.000000000000
 -3200.158182108   0.000000000000
 -3200.154589111   0.000000000000
 -3200.153863250   0.000000000000
 -3200.149816206   0.000000000000
 -3200.147163496   0.000000000000
 -3200.143833638   0.000000000000
 -3200.142829375   0.000000000000
 -3200.141213611   0.000000000000
 -3200.139620106   0.000000000000
 -3200.137124090   0.000000000000
 -3200.136213660   0.000000000000
 -3200.134991636   0.000000000000
 -3200.132499072   0.000000000000
 -3200.131395415   0.000000000000
 -3200.130416781   0.000000000000
 -3200.129161158   0.000000000000
 -3200.126503062   0.000000000000
 -3200.125563084   0.000000000000
 -3200.117681914   0.000000000000
 -3200.116098174   0.000000000000
 -3200.111443268   0.000000000000
 -3200.109603810   0.000000000000
 -3200.107376935   0.000000000000
 -3200.104444668   0.000000000000
 -3200.101648627   0.000000000000
 -3200.099950078   0.000000000000
 -3200.097776970   0.000000000000
 -3200.084326840   0.000000000000
 -3200.065375540   0.000000000000
 -3200.063066423   0.000000000000
 -3200.052159946   0.000000000000
 -3200.038820441   0.000000000000
 -3200.029975818   0.000000000000
 -3200.019087858   0.000000000000
 -3200.013481725   0.000000000000
 -3199.792033134   0.000000000000
 -3199.787419710   0.000000000000
 -3199.781444474   0.000000000000
 -3199.771497671   0.000000000000
 -3199.750251825   0.000000000000
 -3199.743671905   0.000000000000
   CI-PROBLEM SOLVED
   DENSITIES MADE

                 <<<<<<<<<<<<<<<<<<INITIAL CI STATE CHECK>>>>>>>>>>>>>>>>>>

BLOCK  1 MULT= 5 NROOTS= 5 
ROOT   0:  E=   -3200.2251622572 Eh
      0.99436 [     4]: 21111
      0.00458 [     1]: 11121
ROOT   1:  E=   -3200.1924069029 Eh  0.891 eV   7189.0 cm**-1
      0.61097 [     2]: 11211
      0.36906 [     0]: 11112
      0.01966 [     1]: 11121
ROOT   2:  E=   -3200.1844726527 Eh  1.107 eV   8930.3 cm**-1
      0.58141 [     1]: 11121
      0.21162 [     2]: 11211
      0.16984 [     0]: 11112
      0.03392 [     3]: 12111
      0.00321 [     4]: 21111
ROOT   3:  E=   -3200.1832915941 Eh  1.139 eV   9189.5 cm**-1
      0.43802 [     3]: 12111
      0.30929 [     0]: 11112
      0.12650 [     2]: 11211
      0.12618 [     1]: 11121
ROOT   4:  E=   -3200.1823184147 Eh  1.166 eV   9403.1 cm**-1
      0.52724 [     3]: 12111
      0.26817 [     1]: 11121
      0.15181 [     0]: 11112
      0.05043 [     2]: 11211

BLOCK  2 MULT= 3 NROOTS=45 
ROOT   0:  E=   -3200.1882172534 Eh
      0.66094 [    13]: 11211
      0.24634 [    10]: 11112
      0.04028 [    24]: 20211
      0.01808 [    30]: 21201
      0.01143 [    11]: 11121
      0.00816 [    27]: 21102
      0.00533 [    22]: 20112
      0.00299 [    28]: 21111
ROOT   1:  E=   -3200.1807026696 Eh  0.204 eV   1649.3 cm**-1
      0.61586 [    11]: 11121
      0.19741 [    10]: 11112
      0.12008 [    13]: 11211
      0.02184 [    24]: 20211
      0.01170 [    23]: 20121
      0.00955 [    28]: 21111
      0.00447 [    22]: 20112
      0.00360 [    25]: 21012
      0.00296 [     4]: 02121
      0.00274 [    26]: 21021
ROOT   2:  E=   -3200.1788029197 Eh  0.256 eV   2066.2 cm**-1
      0.89764 [    18]: 12111
      0.03097 [    28]: 21111
      0.02570 [    11]: 11121
      0.01871 [    10]: 11112
      0.01271 [    33]: 22101
      0.00586 [    13]: 11211
      0.00279 [    32]: 22011
ROOT   3:  E=   -3200.1780910690 Eh  0.276 eV   2222.4 cm**-1
      0.48712 [    10]: 11112
      0.29935 [    11]: 11121
      0.10765 [    13]: 11211
      0.04675 [    18]: 12111
      0.01867 [    24]: 20211
      0.01448 [    22]: 20112
      0.01070 [    28]: 21111
      0.00452 [    23]: 20121
      0.00292 [    33]: 22101
ROOT   4:  E=   -3200.1581821075 Eh  0.817 eV   6592.0 cm**-1
      0.55067 [    24]: 20211
      0.07795 [    22]: 20112
      0.07485 [    13]: 11211
      0.07340 [    32]: 22011
      0.06415 [     8]: 10221
      0.05155 [    27]: 21102
      0.02859 [    29]: 21120
      0.02659 [    28]: 21111
      0.01626 [    23]: 20121
      0.00907 [    10]: 11112
      0.00762 [    20]: 12201
      0.00485 [    26]: 21021
      0.00320 [    25]: 21012
      0.00299 [    33]: 22101
      0.00252 [    16]: 12021
ROOT   5:  E=   -3200.1545891111 Eh  0.915 eV   7380.5 cm**-1
      0.28424 [    22]: 20112
      0.16919 [    30]: 21201
      0.13097 [    23]: 20121
      0.08428 [    24]: 20211
      0.05683 [    26]: 21021
      0.04222 [    34]: 22110
      0.03584 [    13]: 11211
      0.03575 [    33]: 22101
      0.03237 [    10]: 11112
      0.03121 [    28]: 21111
      0.02443 [     8]: 10221
      0.01570 [    31]: 21210
      0.01491 [    20]: 12201
      0.01179 [     6]: 10122
      0.00971 [    32]: 22011
      0.00771 [    25]: 21012
      0.00490 [    11]: 11121
ROOT   6:  E=   -3200.1538632496 Eh  0.935 eV   7539.8 cm**-1
      0.57419 [    23]: 20121
      0.15292 [    28]: 21111
      0.07008 [    22]: 20112
      0.06697 [    33]: 22101
      0.02929 [    26]: 21021
      0.02906 [    30]: 21201
      0.01197 [    18]: 12111
      0.01141 [    34]: 22110
      0.01048 [    11]: 11121
      0.01025 [    29]: 21120
      0.00660 [    13]: 11211
      0.00546 [    31]: 21210
      0.00462 [    27]: 21102
      0.00348 [     6]: 10122
ROOT   7:  E=   -3200.1498162064 Eh  1.045 eV   8428.1 cm**-1
      0.69508 [    28]: 21111
      0.05189 [    33]: 22101
      0.04318 [    22]: 20112
      0.04094 [    23]: 20121
      0.03683 [    11]: 11121
      0.02031 [    30]: 21201
      0.01977 [    18]: 12111
      0.01646 [    34]: 22110
      0.01303 [    24]: 20211
      0.01263 [    32]: 22011
      0.01150 [    31]: 21210
      0.01140 [     7]: 10212
      0.00998 [    26]: 21021
      0.00318 [    25]: 21012
      0.00301 [     8]: 10221
ROOT   8:  E=   -3200.1471634959 Eh  1.117 eV   9010.3 cm**-1
      0.29581 [    27]: 21102
      0.17854 [    13]: 11211
      0.12801 [    17]: 12102
      0.09228 [     8]: 10221
      0.07495 [     6]: 10122
      0.06150 [    24]: 20211
      0.03743 [    10]: 11112
      0.03379 [    28]: 21111
      0.02166 [    22]: 20112
      0.01792 [    29]: 21120
      0.01463 [    30]: 21201
      0.01456 [    18]: 12111
      0.00683 [    20]: 12201
      0.00669 [    25]: 21012
      0.00410 [    12]: 11202
      0.00312 [     7]: 10212
ROOT   9:  E=   -3200.1438336378 Eh  1.208 eV   9741.1 cm**-1
      0.32808 [    13]: 11211
      0.22326 [    10]: 11112
      0.15224 [    27]: 21102
      0.07893 [     6]: 10122
      0.04619 [    28]: 21111
      0.03628 [    20]: 12201
      0.02911 [    30]: 21201
      0.01745 [    16]: 12021
      0.01610 [    29]: 21120
      0.01461 [    25]: 21012
      0.01448 [    32]: 22011
      0.01303 [    11]: 11121
      0.01058 [     7]: 10212
      0.00396 [    26]: 21021
ROOT  10:  E=   -3200.1428293745 Eh  1.235 eV   9961.5 cm**-1
      0.24876 [     8]: 10221
      0.24846 [    10]: 11112
      0.10937 [    20]: 12201
      0.06045 [    30]: 21201
      0.05163 [     6]: 10122
      0.04980 [    24]: 20211
      0.04468 [    13]: 11211
      0.03913 [    26]: 21021
      0.02434 [    28]: 21111
      0.02139 [    11]: 11121
      0.02105 [    17]: 12102
      0.02072 [    27]: 21102
      0.01094 [    23]: 20121
      0.01029 [    22]: 20112
      0.00887 [    34]: 22110
      0.00669 [    31]: 21210
      0.00538 [     7]: 10212
      0.00262 [    16]: 12021
ROOT  11:  E=   -3200.1412136109 Eh  1.279 eV  10316.1 cm**-1
      0.25469 [    28]: 21111
      0.21770 [    11]: 11121
      0.16020 [     7]: 10212
      0.06837 [    25]: 21012
      0.05253 [    12]: 11202
      0.04767 [    33]: 22101
      0.04437 [    10]: 11112
      0.03051 [     8]: 10221
      0.02428 [    14]: 11220
      0.02075 [    21]: 12210
      0.01750 [    18]: 12111
      0.01416 [    20]: 12201
      0.01018 [    15]: 12012
      0.00772 [     9]: 11022
      0.00746 [    30]: 21201
      0.00681 [    13]: 11211
      0.00680 [    27]: 21102
ROOT  12:  E=   -3200.1396201062 Eh  1.322 eV  10665.8 cm**-1
      0.25708 [     7]: 10212
      0.23228 [    28]: 21111
      0.13851 [    11]: 11121
      0.11715 [    25]: 21012
      0.06431 [    27]: 21102
      0.05115 [    10]: 11112
      0.03062 [    15]: 12012
      0.02280 [    18]: 12111
      0.02251 [    33]: 22101
      0.01804 [    23]: 20121
      0.01144 [    29]: 21120
      0.00585 [    13]: 11211
      0.00471 [    30]: 21201
      0.00465 [     6]: 10122
      0.00384 [    16]: 12021
ROOT  13:  E=   -3200.1371240898 Eh  1.390 eV  11213.7 cm**-1
      0.27653 [    28]: 21111
      0.14266 [    10]: 11112
      0.08135 [     8]: 10221
      0.07959 [    17]: 12102
      0.07724 [    18]: 12111
      0.06705 [    13]: 11211
      0.05790 [    12]: 11202
      0.03380 [    31]: 21210
      0.02983 [    27]: 21102
      0.02831 [    25]: 21012
      0.01959 [    20]: 12201
      0.01666 [    19]: 12120
      0.01503 [     7]: 10212
      0.01148 [    23]: 20121
      0.00934 [    29]: 21120
      0.00917 [    24]: 20211
      0.00774 [     6]: 10122
      0.00723 [    15]: 12012
      0.00641 [    21]: 12210
      0.00561 [    30]: 21201
      0.00542 [    11]: 11121
      0.00453 [    32]: 22011
ROOT  14:  E=   -3200.1362136598 Eh  1.415 eV  11413.5 cm**-1
      0.21556 [    10]: 11112
      0.16401 [     8]: 10221
      0.11372 [    28]: 21111
      0.08156 [    25]: 21012
      0.06732 [    18]: 12111
      0.06420 [    12]: 11202
      0.04880 [     7]: 10212
      0.03610 [    17]: 12102
      0.02686 [     6]: 10122
      0.02599 [    11]: 11121
      0.02456 [    20]: 12201
      0.02391 [    13]: 11211
      0.02332 [    23]: 20121
      0.01946 [    27]: 21102
      0.01464 [    31]: 21210
      0.01215 [    29]: 21120
      0.00823 [    26]: 21021
      0.00804 [    30]: 21201
      0.00463 [    21]: 12210
      0.00435 [    33]: 22101
      0.00301 [    15]: 12012
      0.00300 [    19]: 12120
ROOT  15:  E=   -3200.1349916359 Eh  1.448 eV  11681.7 cm**-1
      0.27164 [    10]: 11112
      0.15275 [    13]: 11211
      0.12731 [     8]: 10221
      0.09393 [     6]: 10122
      0.06357 [    16]: 12021
      0.04113 [    11]: 11121
      0.03967 [    28]: 21111
      0.03821 [    22]: 20112
      0.02944 [    27]: 21102
      0.01840 [    19]: 12120
      0.01830 [    29]: 21120
      0.01696 [    25]: 21012
      0.01435 [    17]: 12102
      0.01028 [    32]: 22011
      0.00806 [    14]: 11220
      0.00787 [     7]: 10212
      0.00735 [    30]: 21201
      0.00681 [    18]: 12111
      0.00639 [    34]: 22110
      0.00552 [    24]: 20211
      0.00513 [    26]: 21021
      0.00509 [    31]: 21210
      0.00419 [     9]: 11022
      0.00400 [    33]: 22101
ROOT  16:  E=   -3200.1324990720 Eh  1.516 eV  12228.7 cm**-1
      0.21107 [    17]: 12102
      0.16743 [    18]: 12111
      0.13300 [    12]: 11202
      0.09431 [    13]: 11211
      0.07824 [    10]: 11112
      0.07774 [    30]: 21201
      0.04109 [    25]: 21012
      0.04088 [    22]: 20112
      0.03296 [    28]: 21111
      0.02127 [    31]: 21210
      0.02074 [    26]: 21021
      0.01590 [    27]: 21102
      0.01375 [     9]: 11022
      0.00867 [    33]: 22101
      0.00820 [    24]: 20211
      0.00805 [    11]: 11121
      0.00554 [    15]: 12012
      0.00530 [     7]: 10212
      0.00469 [     6]: 10122
      0.00272 [    34]: 22110
ROOT  17:  E=   -3200.1313954153 Eh  1.546 eV  12471.0 cm**-1
      0.23811 [    17]: 12102
      0.18568 [    12]: 11202
      0.10776 [    28]: 21111
      0.07503 [    22]: 20112
      0.06022 [    18]: 12111
      0.05006 [    30]: 21201
      0.04751 [    31]: 21210
      0.03952 [     9]: 11022
      0.03263 [    11]: 11121
      0.02774 [    10]: 11112
      0.02610 [    25]: 21012
      0.02410 [    13]: 11211
      0.02097 [     8]: 10221
      0.01007 [    16]: 12021
      0.00770 [     6]: 10122
      0.00695 [    34]: 22110
      0.00681 [    19]: 12120
      0.00665 [    21]: 12210
      0.00458 [    26]: 21021
      0.00455 [    32]: 22011
      0.00441 [    33]: 22101
      0.00425 [    14]: 11220
      0.00281 [    23]: 20121
ROOT  18:  E=   -3200.1304167815 Eh  1.573 eV  12685.7 cm**-1
      0.17952 [    30]: 21201
      0.16854 [    22]: 20112
      0.10259 [    27]: 21102
      0.08786 [    17]: 12102
      0.08274 [    10]: 11112
      0.06467 [    26]: 21021
      0.05555 [     8]: 10221
      0.04266 [    13]: 11211
      0.04125 [    20]: 12201
      0.03910 [    29]: 21120
      0.03600 [     6]: 10122
      0.02343 [    24]: 20211
      0.02013 [    34]: 22110
      0.01375 [    12]: 11202
      0.01345 [    19]: 12120
      0.00669 [    33]: 22101
      0.00648 [    28]: 21111
      0.00555 [    11]: 11121
      0.00255 [    32]: 22011
ROOT  19:  E=   -3200.1291611585 Eh  1.607 eV  12961.3 cm**-1
      0.40178 [    18]: 12111
      0.19560 [    15]: 12012
      0.14265 [    11]: 11121
      0.08566 [     9]: 11022
      0.05591 [    25]: 21012
      0.04243 [    31]: 21210
      0.03154 [    28]: 21111
      0.00522 [    21]: 12210
      0.00503 [    14]: 11220
      0.00454 [    10]: 11112
      0.00427 [    17]: 12102
      0.00403 [    23]: 20121
      0.00399 [    12]: 11202
      0.00351 [    20]: 12201
      0.00344 [    13]: 11211
ROOT  20:  E=   -3200.1265030625 Eh  1.679 eV  13544.7 cm**-1
      0.37698 [    28]: 21111
      0.18999 [    25]: 21012
      0.18313 [    31]: 21210
      0.10553 [    14]: 11220
      0.03857 [    11]: 11121
      0.03658 [    12]: 11202
      0.01567 [    10]: 11112
      0.01483 [    15]: 12012
      0.00702 [    30]: 21201
      0.00608 [    29]: 21120
      0.00600 [    18]: 12111
      0.00435 [    26]: 21021
      0.00310 [    27]: 21102
      0.00293 [    21]: 12210
      0.00252 [    32]: 22011
ROOT  21:  E=   -3200.1255630838 Eh  1.705 eV  13751.0 cm**-1
      0.29517 [    15]: 12012
      0.25867 [    11]: 11121
      0.10371 [    28]: 21111
      0.09847 [    18]: 12111
      0.08550 [     9]: 11022
      0.06609 [    21]: 12210
      0.01419 [    33]: 22101
      0.01317 [     7]: 10212
      0.01277 [    17]: 12102
      0.01227 [    13]: 11211
      0.00479 [    20]: 12201
      0.00477 [    25]: 21012
      0.00442 [    10]: 11112
      0.00414 [    31]: 21210
      0.00388 [    16]: 12021
      0.00386 [    29]: 21120
      0.00353 [    27]: 21102
      0.00265 [    19]: 12120
      0.00251 [    22]: 20112
ROOT  22:  E=   -3200.1176819137 Eh  1.919 eV  15480.7 cm**-1
      0.53337 [    13]: 11211
      0.20261 [    10]: 11112
      0.09349 [     6]: 10122
      0.03080 [    28]: 21111
      0.02469 [    20]: 12201
      0.02295 [    14]: 11220
      0.02263 [    26]: 21021
      0.01341 [    12]: 11202
      0.01061 [    30]: 21201
      0.00733 [    25]: 21012
      0.00585 [    16]: 12021
      0.00538 [    19]: 12120
      0.00504 [    18]: 12111
      0.00418 [    31]: 21210
      0.00386 [    33]: 22101
      0.00311 [    15]: 12012
      0.00306 [    22]: 20112
      0.00255 [    29]: 21120
ROOT  23:  E=   -3200.1160981745 Eh  1.962 eV  15828.3 cm**-1
      0.57705 [    33]: 22101
      0.17532 [    28]: 21111
      0.08965 [    23]: 20121
      0.07258 [    31]: 21210
      0.01555 [    18]: 12111
      0.01457 [    12]: 11202
      0.01018 [    13]: 11211
      0.00978 [    14]: 11220
      0.00802 [    30]: 21201
      0.00761 [    22]: 20112
      0.00393 [    10]: 11112
      0.00304 [    11]: 11121
      0.00294 [    26]: 21021
      0.00262 [    20]: 12201
ROOT  24:  E=   -3200.1114432676 Eh  2.089 eV  16849.9 cm**-1
      0.27948 [     9]: 11022
      0.25666 [    14]: 11220
      0.22008 [    11]: 11121
      0.08306 [    15]: 12012
      0.04858 [    28]: 21111
      0.01695 [    12]: 11202
      0.01597 [    13]: 11211
      0.01455 [    33]: 22101
      0.01290 [    31]: 21210
      0.01241 [    18]: 12111
      0.00686 [    16]: 12021
      0.00663 [    25]: 21012
      0.00501 [    21]: 12210
      0.00306 [    10]: 11112
      0.00305 [    26]: 21021
      0.00276 [    27]: 21102
ROOT  25:  E=   -3200.1096038103 Eh  2.139 eV  17253.7 cm**-1
      0.25572 [     6]: 10122
      0.17803 [    19]: 12120
      0.14906 [    13]: 11211
      0.12903 [    32]: 22011
      0.09871 [    10]: 11112
      0.03769 [    20]: 12201
      0.03436 [    17]: 12102
      0.02339 [    16]: 12021
      0.02318 [    34]: 22110
      0.01080 [    28]: 21111
      0.01006 [    29]: 21120
      0.00874 [    14]: 11220
      0.00637 [    26]: 21021
      0.00535 [     9]: 11022
      0.00499 [    22]: 20112
      0.00354 [    18]: 12111
      0.00347 [    24]: 20211
      0.00342 [    15]: 12012
      0.00276 [    11]: 11121
ROOT  26:  E=   -3200.1073769350 Eh  2.200 eV  17742.4 cm**-1
      0.34509 [    20]: 12201
      0.25657 [    16]: 12021
      0.10329 [    13]: 11211
      0.07598 [     6]: 10122
      0.07431 [    10]: 11112
      0.04897 [    26]: 21021
      0.01424 [    17]: 12102
      0.01194 [    21]: 12210
      0.01171 [    15]: 12012
      0.01125 [    29]: 21120
      0.00964 [     8]: 10221
      0.00867 [    18]: 12111
      0.00685 [    22]: 20112
      0.00678 [    11]: 11121
      0.00535 [    24]: 20211
ROOT  27:  E=   -3200.1044446678 Eh  2.280 eV  18386.0 cm**-1
      0.28560 [    11]: 11121
      0.27923 [    21]: 12210
      0.23090 [     7]: 10212
      0.07184 [    15]: 12012
      0.05049 [    18]: 12111
      0.01297 [     9]: 11022
      0.01028 [    25]: 21012
      0.00987 [    28]: 21111
      0.00796 [    16]: 12021
      0.00747 [    12]: 11202
      0.00740 [    14]: 11220
      0.00546 [    33]: 22101
      0.00486 [    20]: 12201
      0.00282 [    31]: 21210
      0.00277 [    10]: 11112
ROOT  28:  E=   -3200.1016486266 Eh  2.356 eV  18999.6 cm**-1
      0.49880 [    18]: 12111
      0.14308 [    12]: 11202
      0.08424 [    11]: 11121
      0.07775 [     9]: 11022
      0.05802 [     7]: 10212
      0.03141 [    15]: 12012
      0.02229 [    14]: 11220
      0.01924 [    31]: 21210
      0.01318 [    32]: 22011
      0.01244 [    19]: 12120
      0.01135 [    21]: 12210
      0.00832 [    33]: 22101
      0.00791 [    17]: 12102
      0.00268 [    29]: 21120
      0.00267 [    10]: 11112
ROOT  29:  E=   -3200.0999500782 Eh  2.402 eV  19372.4 cm**-1
      0.27377 [    32]: 22011
      0.13093 [    11]: 11121
      0.12222 [    29]: 21120
      0.11108 [    18]: 12111
      0.07675 [    14]: 11220
      0.06015 [    13]: 11211
      0.03519 [     6]: 10122
      0.03178 [    19]: 12120
      0.02284 [    24]: 20211
      0.02279 [    34]: 22110
      0.01821 [    28]: 21111
      0.01598 [    15]: 12012
      0.01368 [    10]: 11112
      0.01253 [    33]: 22101
      0.00860 [    12]: 11202
      0.00849 [     9]: 11022
      0.00769 [    30]: 21201
      0.00766 [    22]: 20112
      0.00696 [    21]: 12210
      0.00506 [    26]: 21021
ROOT  30:  E=   -3200.0977769700 Eh  2.461 eV  19849.3 cm**-1
      0.19902 [    32]: 22011
      0.18877 [    18]: 12111
      0.17686 [    11]: 11121
      0.12687 [    14]: 11220
      0.07542 [    29]: 21120
      0.05724 [    15]: 12012
      0.03007 [     9]: 11022
      0.02280 [    34]: 22110
      0.01749 [    21]: 12210
      0.01496 [    13]: 11211
      0.01425 [    24]: 20211
      0.01070 [    10]: 11112
      0.00882 [    22]: 20112
      0.00866 [     6]: 10122
      0.00683 [    16]: 12021
      0.00620 [    12]: 11202
      0.00613 [    20]: 12201
      0.00563 [     7]: 10212
      0.00541 [    19]: 12120
      0.00511 [    25]: 21012
      0.00435 [    30]: 21201
      0.00331 [    26]: 21021
ROOT  31:  E=   -3200.0843268403 Eh  2.827 eV  22801.3 cm**-1
      0.45586 [    26]: 21021
      0.22993 [    30]: 21201
      0.07110 [    29]: 21120
      0.06770 [    27]: 21102
      0.05048 [    20]: 12201
      0.03471 [    32]: 22011
      0.01785 [    24]: 20211
      0.01622 [    34]: 22110
      0.01013 [    16]: 12021
      0.00823 [    17]: 12102
      0.00659 [    10]: 11112
      0.00520 [    13]: 11211
      0.00512 [    23]: 20121
      0.00478 [    25]: 21012
      0.00403 [    19]: 12120
      0.00384 [    33]: 22101
ROOT  32:  E=   -3200.0653755403 Eh  3.343 eV  26960.6 cm**-1
      0.46534 [    31]: 21210
      0.27760 [    25]: 21012
      0.06757 [    33]: 22101
      0.04825 [    28]: 21111
      0.04654 [    23]: 20121
      0.02151 [     7]: 10212
      0.01258 [    11]: 11121
      0.01101 [    34]: 22110
      0.01031 [    30]: 21201
      0.01021 [    29]: 21120
      0.00916 [    26]: 21021
      0.00528 [    22]: 20112
      0.00459 [    15]: 12012
ROOT  33:  E=   -3200.0630664234 Eh  3.406 eV  27467.4 cm**-1
      0.46625 [    29]: 21120
      0.16841 [    26]: 21021
      0.10908 [    34]: 22110
      0.09752 [    27]: 21102
      0.03615 [    22]: 20112
      0.03090 [    30]: 21201
      0.02997 [    32]: 22011
      0.02260 [    24]: 20211
      0.00743 [    13]: 11211
      0.00736 [    25]: 21012
      0.00549 [    28]: 21111
      0.00348 [    31]: 21210
      0.00324 [    17]: 12102
      0.00315 [    10]: 11112
      0.00288 [     6]: 10122
ROOT  34:  E=   -3200.0521599457 Eh  3.702 eV  29861.1 cm**-1
      0.61441 [    34]: 22110
      0.16804 [    32]: 22011
      0.05169 [    22]: 20112
      0.04451 [    29]: 21120
      0.01680 [    24]: 20211
      0.01435 [    16]: 12021
      0.01195 [    27]: 21102
      0.01095 [    31]: 21210
      0.01059 [    26]: 21021
      0.00919 [    19]: 12120
      0.00725 [    33]: 22101
      0.00552 [     6]: 10122
      0.00521 [    13]: 11211
      0.00476 [    25]: 21012
      0.00473 [    10]: 11112
      0.00390 [    20]: 12201
      0.00381 [     8]: 10221
      0.00370 [    17]: 12102
      0.00345 [    28]: 21111
ROOT  35:  E=   -3200.0388204413 Eh  4.065 eV  32788.8 cm**-1
      0.41349 [    16]: 12021
      0.21283 [    20]: 12201
      0.10298 [    10]: 11112
      0.08035 [    19]: 12120
      0.05238 [     8]: 10221
      0.04471 [    34]: 22110
      0.03360 [    17]: 12102
      0.02494 [     6]: 10122
      0.01383 [    13]: 11211
      0.00476 [    26]: 21021
      0.00289 [    30]: 21201
      0.00259 [    15]: 12012
ROOT  36:  E=   -3200.0299758180 Eh  4.306 eV  34730.0 cm**-1
      0.29340 [    14]: 11220
      0.28769 [     9]: 11022
      0.21233 [    12]: 11202
      0.08712 [    18]: 12111
      0.05845 [    21]: 12210
      0.01521 [    11]: 11121
      0.01454 [     7]: 10212
      0.00953 [    19]: 12120
      0.00595 [    31]: 21210
      0.00465 [    15]: 12012
      0.00374 [    20]: 12201
ROOT  37:  E=   -3200.0190878583 Eh  4.602 eV  37119.6 cm**-1
      0.48618 [    21]: 12210
      0.13968 [    15]: 12012
      0.11726 [     7]: 10212
      0.09108 [    11]: 11121
      0.08135 [    18]: 12111
      0.04901 [     9]: 11022
      0.01063 [    12]: 11202
      0.00746 [    14]: 11220
      0.00469 [    31]: 21210
      0.00391 [    20]: 12201
ROOT  38:  E=   -3200.0134817247 Eh  4.755 eV  38350.0 cm**-1
      0.58662 [    19]: 12120
      0.13883 [    16]: 12021
      0.08394 [     6]: 10122
      0.07280 [    13]: 11211
      0.05201 [    17]: 12102
      0.01747 [    10]: 11112
      0.01300 [    20]: 12201
      0.01010 [     8]: 10221
      0.00667 [    18]: 12111
      0.00583 [    34]: 22110
      0.00281 [    12]: 11202
ROOT  39:  E=   -3199.7920331341 Eh 10.781 eV  86952.4 cm**-1
      0.38269 [     3]: 02112
      0.36849 [     5]: 02211
      0.14606 [     0]: 01122
      0.05369 [     1]: 01212
      0.02796 [     4]: 02121
      0.01506 [     2]: 01221
ROOT  40:  E=   -3199.7874197104 Eh 10.906 eV  87964.9 cm**-1
      0.40716 [     2]: 01221
      0.16133 [     4]: 02121
      0.15371 [     1]: 01212
      0.10952 [     0]: 01122
      0.10094 [     3]: 02112
      0.06212 [     5]: 02211
ROOT  41:  E=   -3199.7814444737 Eh 11.069 eV  89276.3 cm**-1
      0.36465 [     1]: 01212
      0.35754 [     3]: 02112
      0.18368 [     4]: 02121
      0.04147 [     2]: 01221
      0.03796 [     0]: 01122
      0.00948 [     5]: 02211
ROOT  42:  E=   -3199.7714976709 Eh 11.340 eV  91459.4 cm**-1
      0.52905 [     2]: 01221
      0.20917 [     0]: 01122
      0.10881 [     3]: 02112
      0.09238 [     5]: 02211
      0.02932 [     4]: 02121
      0.02533 [     1]: 01212
ROOT  43:  E=   -3199.7502518255 Eh 11.918 eV  96122.3 cm**-1
      0.49087 [     0]: 01122
      0.45803 [     5]: 02211
      0.03927 [     3]: 02112
      0.00408 [     4]: 02121
ROOT  44:  E=   -3199.7436719046 Eh 12.097 eV  97566.4 cm**-1
      0.58534 [     4]: 02121
      0.39864 [     1]: 01212
      0.00466 [     5]: 02211
      0.00447 [    11]: 11121
      0.00330 [     3]: 02112

                 <<<<<<<<<<<<<<<<<<INITIAL CI STATE CHECK>>>>>>>>>>>>>>>>>>

   E(CAS)= -3200.132314410 Eh DE=    0.000000e+00
   --- Energy gap subspaces: Ext-Act = 0.309   Act-Int = 0.082
   N(occ)=  1.20000 1.20000 1.20000 1.20000 1.20000
   ||g|| =     1.553512e-02 Max(G)=   -3.103561e-03 Rot=166,162
   --- Orbital Update [SuperCI(PT)]
   --- Canonicalize Internal Space
   --- Canonicalize External Space
   --- SX_PT (Skipped TA=0 IT=0): ||X|| =      0.008555573 Max(X)(161,159) =     -0.002875848 
   --- SFit(Active Orbitals)

MACRO-ITERATION   2: 
   --- Inactive Energy E0 = -3191.69671249 Eh
CI-ITERATION   0: 
 -3200.228231393   0.000000000000 (    0.00)
 -3200.191635942   0.000000000000
 -3200.183991124   0.000000000000
 -3200.182523947   0.000000000000
 -3200.181842959   0.000000000000
   CI-PROBLEM SOLVED
   DENSITIES MADE
CI-ITERATION   0: 
 -3200.187532132   0.000000000000 (    0.00)
 -3200.180207670   0.000000000000
 -3200.178126678   0.000000000000
 -3200.177536014   0.000000000000
 -3200.160260563   0.000000000000
 -3200.156858168   0.000000000000
 -3200.156239521   0.000000000000
 -3200.152552721   0.000000000000
 -3200.148347456   0.000000000000
 -3200.144001906   0.000000000000
 -3200.142810486   0.000000000000
 -3200.142691333   0.000000000000
 -3200.140058009   0.000000000000
 -3200.138421432   0.000000000000
 -3200.136118653   0.000000000000
 -3200.135300085   0.000000000000
 -3200.132839285   0.000000000000
 -3200.131914981   0.000000000000
 -3200.130846326   0.000000000000
 -3200.128983118   0.000000000000
 -3200.128427366   0.000000000000
 -3200.125311154   0.000000000000
 -3200.119176874   0.000000000000
 -3200.117154410   0.000000000000
 -3200.111227681   0.000000000000
 -3200.109808706   0.000000000000
 -3200.106946806   0.000000000000
 -3200.103830627   0.000000000000
 -3200.101924073   0.000000000000
 -3200.100874414   0.000000000000
 -3200.097806645   0.000000000000
 -3200.086934933   0.000000000000
 -3200.067958904   0.000000000000
 -3200.065790408   0.000000000000
 -3200.055122415   0.000000000000
 -3200.038223147   0.000000000000
 -3200.029175445   0.000000000000
 -3200.018082395   0.000000000000
 -3200.012746282   0.000000000000
 -3199.786772853   0.000000000000
 -3199.782700701   0.000000000000
 -3199.777056496   0.000000000000
 -3199.767522742   0.000000000000
 -3199.745441930   0.000000000000
 -3199.739087208   0.000000000000
   CI-PROBLEM SOLVED
   DENSITIES MADE
   E(CAS)= -3200.132341994 Eh DE=   -2.758357e-05
   --- Energy gap subspaces: Ext-Act = 0.308   Act-Int = 0.082
   N(occ)=  1.20000 1.20000 1.20000 1.20000 1.20000
   ||g|| =     2.184094e-02 Max(G)=   -3.106934e-03 Rot=166,162
   --- Orbital Update [SuperCI(PT)]
   --- Canonicalize Internal Space
   --- Canonicalize External Space
   --- SX_PT (Skipped TA=0 IT=0): ||X|| =      0.009642448 Max(X)(161,159) =      0.003040196 
   --- SFit(Active Orbitals)

MACRO-ITERATION   3: 
   --- Inactive Energy E0 = -3191.68518697 Eh
CI-ITERATION   0: 
 -3200.226126735   0.000000000000 (    0.00)
 -3200.192172197   0.000000000000
 -3200.184512881   0.000000000000
 -3200.182949862   0.000000000000
 -3200.182325816   0.000000000000
   CI-PROBLEM SOLVED
   DENSITIES MADE
CI-ITERATION   0: 
 -3200.187950010   0.000000000000 (    0.00)
 -3200.180661973   0.000000000000
 -3200.178437103   0.000000000000
 -3200.177982570   0.000000000000
 -3200.158660692   0.000000000000
 -3200.155112510   0.000000000000
 -3200.154237379   0.000000000000
 -3200.150649323   0.000000000000
 -3200.147423116   0.000000000000
 -3200.143952333   0.000000000000
 -3200.142902751   0.000000000000
 -3200.141683460   0.000000000000
 -3200.139970364   0.000000000000
 -3200.137478872   0.000000000000
 -3200.136332789   0.000000000000
 -3200.135223510   0.000000000000
 -3200.132405957   0.000000000000
 -3200.131462627   0.000000000000
 -3200.130800510   0.000000000000
 -3200.129159074   0.000000000000
 -3200.127115399   0.000000000000
 -3200.125663785   0.000000000000
 -3200.117549167   0.000000000000
 -3200.117223746   0.000000000000
 -3200.111622541   0.000000000000
 -3200.109664014   0.000000000000
 -3200.107190312   0.000000000000
 -3200.104324075   0.000000000000
 -3200.101440569   0.000000000000
 -3200.100660596   0.000000000000
 -3200.098072280   0.000000000000
 -3200.085219618   0.000000000000
 -3200.066011940   0.000000000000
 -3200.063661875   0.000000000000
 -3200.053002334   0.000000000000
 -3200.038740934   0.000000000000
 -3200.029819440   0.000000000000
 -3200.018533242   0.000000000000
 -3200.013296919   0.000000000000
 -3199.790019824   0.000000000000
 -3199.786156687   0.000000000000
 -3199.780563673   0.000000000000
 -3199.771240734   0.000000000000
 -3199.748878739   0.000000000000
 -3199.742635717   0.000000000000
   CI-PROBLEM SOLVED
   DENSITIES MADE
   E(CAS)= -3200.132373139 Eh DE=   -3.114521e-05
   --- Energy gap subspaces: Ext-Act = 0.309   Act-Int = 0.082
   N(occ)=  1.20000 1.20000 1.20000 1.20000 1.20000
   ||g|| =     7.018125e-03 Max(G)=   -3.051237e-03 Rot=166,162
   --- Orbital Update [SuperCI(PT)]
   --- Canonicalize Internal Space
   --- Canonicalize External Space
   --- SX_PT (Skipped TA=0 IT=0): ||X|| =      0.005369047 Max(X)(161,159) =     -0.002448484 
   --- SFit(Active Orbitals)

MACRO-ITERATION   4: 
   --- Inactive Energy E0 = -3191.68701156 Eh
CI-ITERATION   0: 
 -3200.227051892   0.000000000000 (    0.00)
 -3200.191904417   0.000000000000
 -3200.184541791   0.000000000000
 -3200.182649065   0.000000000000
 -3200.182084647   0.000000000000
   CI-PROBLEM SOLVED
   DENSITIES MADE
CI-ITERATION   0: 
 -3200.187599676   0.000000000000 (    0.00)
 -3200.180589873   0.000000000000
 -3200.178016953   0.000000000000
 -3200.177655226   0.000000000000
 -3200.159066699   0.000000000000
 -3200.155577830   0.000000000000
 -3200.154547327   0.000000000000
 -3200.151491769   0.000000000000
 -3200.147815718   0.000000000000
 -3200.144133730   0.000000000000
 -3200.142805978   0.000000000000
 -3200.142443163   0.000000000000
 -3200.140214995   0.000000000000
 -3200.137985442   0.000000000000
 -3200.136410191   0.000000000000
 -3200.135490935   0.000000000000
 -3200.132261589   0.000000000000
 -3200.131625011   0.000000000000
 -3200.130836910   0.000000000000
 -3200.129168441   0.000000000000
 -3200.127727396   0.000000000000
 -3200.125791064   0.000000000000
 -3200.118359951   0.000000000000
 -3200.117336765   0.000000000000
 -3200.111880198   0.000000000000
 -3200.109837780   0.000000000000
 -3200.106946065   0.000000000000
 -3200.104181252   0.000000000000
 -3200.101774307   0.000000000000
 -3200.101018739   0.000000000000
 -3200.098185492   0.000000000000
 -3200.086188425   0.000000000000
 -3200.066673517   0.000000000000
 -3200.064305738   0.000000000000
 -3200.053938368   0.000000000000
 -3200.038698637   0.000000000000
 -3200.029723087   0.000000000000
 -3200.017853903   0.000000000000
 -3200.013117175   0.000000000000
 -3199.788302793   0.000000000000
 -3199.784974014   0.000000000000
 -3199.780037690   0.000000000000
 -3199.771333074   0.000000000000
 -3199.747632744   0.000000000000
 -3199.741870817   0.000000000000
   CI-PROBLEM SOLVED
   DENSITIES MADE
   E(CAS)= -3200.132416808 Eh DE=   -4.366939e-05
   --- Energy gap subspaces: Ext-Act = 0.308   Act-Int = 0.082
   N(occ)=  1.20000 1.20000 1.20000 1.20000 1.20000
   ||g|| =     9.619966e-03 Max(G)=   -2.913618e-03 Rot=166,162
   --- Orbital Update [SuperCI(PT)]
   --- Canonicalize Internal Space
   --- Canonicalize External Space
   --- SX_PT (Skipped TA=0 IT=0): ||X|| =      0.004442524 Max(X)(161,159) =     -0.002086948 
   --- SFit(Active Orbitals)

MACRO-ITERATION   5: 
   --- Inactive Energy E0 = -3191.68111666 Eh
CI-ITERATION   0: 
 -3200.226607513   0.000000000000 (    0.00)
 -3200.192013634   0.000000000000
 -3200.184778548   0.000000000000
 -3200.182790162   0.000000000000
 -3200.182072582   0.000000000000
   CI-PROBLEM SOLVED
   DENSITIES MADE
CI-ITERATION   0: 
 -3200.187626137   0.000000000000 (    0.00)
 -3200.180761639   0.000000000000
 -3200.178071321   0.000000000000
 -3200.177587710   0.000000000000
 -3200.158554475   0.000000000000
 -3200.155040496   0.000000000000
 -3200.153859145   0.000000000000
 -3200.151071930   0.000000000000
 -3200.147545841   0.000000000000
 -3200.144182924   0.000000000000
 -3200.142818329   0.000000000000
 -3200.142314000   0.000000000000
 -3200.140312841   0.000000000000
 -3200.137774733   0.000000000000
 -3200.136515391   0.000000000000
 -3200.135619514   0.000000000000
 -3200.132014641   0.000000000000
 -3200.131381808   0.000000000000
 -3200.130786144   0.000000000000
 -3200.129315836   0.000000000000
 -3200.127408822   0.000000000000
 -3200.125973924   0.000000000000
 -3200.117996394   0.000000000000
 -3200.117372058   0.000000000000
 -3200.112149152   0.000000000000
 -3200.109869832   0.000000000000
 -3200.106917993   0.000000000000
 -3200.104322645   0.000000000000
 -3200.101788024   0.000000000000
 -3200.101050437   0.000000000000
 -3200.098345918   0.000000000000
 -3200.085908039   0.000000000000
 -3200.066166854   0.000000000000
 -3200.063769001   0.000000000000
 -3200.053551356   0.000000000000
 -3200.038877910   0.000000000000
 -3200.029919332   0.000000000000
 -3200.017714403   0.000000000000
 -3200.013262920   0.000000000000
 -3199.788916544   0.000000000000
 -3199.785651630   0.000000000000
 -3199.781127520   0.000000000000
 -3199.772690300   0.000000000000
 -3199.748316047   0.000000000000
 -3199.742847841   0.000000000000
   CI-PROBLEM SOLVED
   DENSITIES MADE
   E(CAS)= -3200.132438130 Eh DE=   -2.132172e-05
   --- Energy gap subspaces: Ext-Act = 0.309   Act-Int = 0.082
   N(occ)=  1.20000 1.20000 1.20000 1.20000 1.20000
   ||g|| =     4.756804e-03 Max(G)=   -2.835890e-03 Rot=166,162
   --- Orbital Update [SuperCI(PT)]
   --- Canonicalize Internal Space
   --- Canonicalize External Space
   --- SX_PT (Skipped TA=0 IT=0): ||X|| =      0.003129528 Max(X)(161,159) =      0.001242564 
   --- SFit(Active Orbitals)

MACRO-ITERATION   6: 
   --- Inactive Energy E0 = -3191.68197787 Eh
CI-ITERATION   0: 
 -3200.227095506   0.000000000000 (    0.00)
 -3200.191895239   0.000000000000
 -3200.184796791   0.000000000000
 -3200.182714768   0.000000000000
 -3200.181817239   0.000000000000
   CI-PROBLEM SOLVED
   DENSITIES MADE
CI-ITERATION   0: 
 -3200.187424890   0.000000000000 (    0.00)
 -3200.180719590   0.000000000000
 -3200.177906637   0.000000000000
 -3200.177276819   0.000000000000
 -3200.158681046   0.000000000000
 -3200.155198658   0.000000000000
 -3200.154061417   0.000000000000
 -3200.151509570   0.000000000000
 -3200.147673348   0.000000000000
 -3200.144281766   0.000000000000
 -3200.142819312   0.000000000000
 -3200.142681632   0.000000000000
 -3200.140440724   0.000000000000
 -3200.138062156   0.000000000000
 -3200.136558007   0.000000000000
 -3200.135772042   0.000000000000
 -3200.131885360   0.000000000000
 -3200.131425465   0.000000000000
 -3200.130673127   0.000000000000
 -3200.129422740   0.000000000000
 -3200.127753634   0.000000000000
 -3200.126113752   0.000000000000
 -3200.118425278   0.000000000000
 -3200.117199440   0.000000000000
 -3200.112357301   0.000000000000
 -3200.110085007   0.000000000000
 -3200.106781474   0.000000000000
 -3200.104273063   0.000000000000
 -3200.102467790   0.000000000000
 -3200.100893259   0.000000000000
 -3200.098400523   0.000000000000
 -3200.086485450   0.000000000000
 -3200.066555658   0.000000000000
 -3200.064283992   0.000000000000
 -3200.054203902   0.000000000000
 -3200.038906297   0.000000000000
 -3200.029890314   0.000000000000
 -3200.017285094   0.000000000000
 -3200.013218478   0.000000000000
 -3199.788223253   0.000000000000
 -3199.784892572   0.000000000000
 -3199.780801511   0.000000000000
 -3199.772599026   0.000000000000
 -3199.747482608   0.000000000000
 -3199.742433920   0.000000000000
   CI-PROBLEM SOLVED
   DENSITIES MADE
   E(CAS)= -3200.132459586 Eh DE=   -2.145639e-05
   --- Energy gap subspaces: Ext-Act = 0.309   Act-Int = 0.082
   N(occ)=  1.20000 1.20000 1.20000 1.20000 1.20000
   ||g|| =     5.142698e-03 Max(G)=   -2.698139e-03 Rot=166,162
   --- Orbital Update [SuperCI(PT)]
   --- Canonicalize Internal Space
   --- Canonicalize External Space
   --- SX_PT (Skipped TA=0 IT=0): ||X|| =      0.002627500 Max(X)(205,162) =     -0.000903298 
   --- SFit(Active Orbitals)

MACRO-ITERATION   7: 
   --- Inactive Energy E0 = -3191.68171429 Eh
CI-ITERATION   0: 
 -3200.226908934   0.000000000000 (    0.00)
 -3200.191948331   0.000000000000
 -3200.184869606   0.000000000000
 -3200.182764662   0.000000000000
 -3200.181778880   0.000000000000
   CI-PROBLEM SOLVED
   DENSITIES MADE
CI-ITERATION   0: 
 -3200.187416498   0.000000000000 (    0.00)
 -3200.180761014   0.000000000000
 -3200.177897494   0.000000000000
 -3200.177211748   0.000000000000
 -3200.158454425   0.000000000000
 -3200.154950853   0.000000000000
 -3200.153838582   0.000000000000
 -3200.151348395   0.000000000000
 -3200.147514198   0.000000000000
 -3200.144309519   0.000000000000
 -3200.142842889   0.000000000000
 -3200.142668113   0.000000000000
 -3200.140518809   0.000000000000
 -3200.137970575   0.000000000000
 -3200.136618672   0.000000000000
 -3200.135878292   0.000000000000
 -3200.131776824   0.000000000000
 -3200.131276349   0.000000000000
 -3200.130648713   0.000000000000
 -3200.129564522   0.000000000000
 -3200.127667512   0.000000000000
 -3200.126234176   0.000000000000
 -3200.118153656   0.000000000000
 -3200.117171510   0.000000000000
 -3200.112512881   0.000000000000
 -3200.110130755   0.000000000000
 -3200.106770762   0.000000000000
 -3200.104356218   0.000000000000
 -3200.102615960   0.000000000000
 -3200.100894054   0.000000000000
 -3200.098490290   0.000000000000
 -3200.086446780   0.000000000000
 -3200.066371637   0.000000000000
 -3200.064170067   0.000000000000
 -3200.054093571   0.000000000000
 -3200.039031180   0.000000000000
 -3200.029994386   0.000000000000
 -3200.017181148   0.000000000000
 -3200.013308791   0.000000000000
 -3199.788616161   0.000000000000
 -3199.785234347   0.000000000000
 -3199.781254607   0.000000000000
 -3199.773138004   0.000000000000
 -3199.747737298   0.000000000000
 -3199.742923425   0.000000000000
   CI-PROBLEM SOLVED
   DENSITIES MADE
   E(CAS)= -3200.132471104 Eh DE=   -1.151752e-05
   --- Energy gap subspaces: Ext-Act = 0.309   Act-Int = 0.082
   N(occ)=  1.20000 1.20000 1.20000 1.20000 1.20000
   ||g|| =     3.342088e-03 Max(G)=   -2.605532e-03 Rot=166,162
   --- Orbital Update [SuperCI(PT)]
   --- Canonicalize Internal Space
   --- Canonicalize External Space
   --- SX_PT (Skipped TA=0 IT=0): ||X|| =      0.002261697 Max(X)(205,162) =     -0.000883900 
   --- SFit(Active Orbitals)

MACRO-ITERATION   8: 
   --- Inactive Energy E0 = -3191.68154585 Eh
CI-ITERATION   0: 
 -3200.227020883   0.000000000000 (    0.00)
 -3200.191946707   0.000000000000
 -3200.184878915   0.000000000000
 -3200.182746332   0.000000000000
 -3200.181745614   0.000000000000
   CI-PROBLEM SOLVED
   DENSITIES MADE
CI-ITERATION   0: 
 -3200.187350614   0.000000000000 (    0.00)
 -3200.180744747   0.000000000000
 -3200.177823156   0.000000000000
 -3200.177139471   0.000000000000
 -3200.158449589   0.000000000000
 -3200.154917651   0.000000000000
 -3200.153960293   0.000000000000
 -3200.151455672   0.000000000000
 -3200.147434919   0.000000000000
 -3200.144334954   0.000000000000
 -3200.143036710   0.000000000000
 -3200.142636187   0.000000000000
 -3200.140590686   0.000000000000
 -3200.138024555   0.000000000000
 -3200.136635693   0.000000000000
 -3200.135993116   0.000000000000
 -3200.131705317   0.000000000000
 -3200.131191235   0.000000000000
 -3200.130586983   0.000000000000
 -3200.129753108   0.000000000000
 -3200.127788417   0.000000000000
 -3200.126373949   0.000000000000
 -3200.117978662   0.000000000000
 -3200.117039848   0.000000000000
 -3200.112656987   0.000000000000
 -3200.110264449   0.000000000000
 -3200.106756916   0.000000000000
 -3200.104401985   0.000000000000
 -3200.102992848   0.000000000000
 -3200.100840167   0.000000000000
 -3200.098560341   0.000000000000
 -3200.086662599   0.000000000000
 -3200.066425499   0.000000000000
 -3200.064404516   0.000000000000
 -3200.054249884   0.000000000000
 -3200.039135021   0.000000000000
 -3200.029999327   0.000000000000
 -3200.016976121   0.000000000000
 -3200.013372550   0.000000000000
 -3199.788526188   0.000000000000
 -3199.785113670   0.000000000000
 -3199.781092990   0.000000000000
 -3199.773044544   0.000000000000
 -3199.747398808   0.000000000000
 -3199.742910480   0.000000000000
   CI-PROBLEM SOLVED
   DENSITIES MADE
   E(CAS)= -3200.132486416 Eh DE=   -1.531243e-05
   --- Energy gap subspaces: Ext-Act = 0.309   Act-Int = 0.082
   N(occ)=  1.20000 1.20000 1.20000 1.20000 1.20000
   ||g|| =     3.321518e-03 Max(G)=   -2.469479e-03 Rot=166,162
   --- Orbital Update [SuperCI(PT)]
   --- Canonicalize Internal Space
   --- Canonicalize External Space
   --- SX_PT (Skipped TA=0 IT=0): ||X|| =      0.002102049 Max(X)(205,162) =     -0.000839385 
   --- SFit(Active Orbitals)

MACRO-ITERATION   9: 
   --- Inactive Energy E0 = -3191.68146713 Eh
CI-ITERATION   0: 
 -3200.226961659   0.000000000000 (    0.00)
 -3200.191976561   0.000000000000
 -3200.184918166   0.000000000000
 -3200.182755492   0.000000000000
 -3200.181779182   0.000000000000
   CI-PROBLEM SOLVED
   DENSITIES MADE
CI-ITERATION   0: 
 -3200.187316245   0.000000000000 (    0.00)
 -3200.180761776   0.000000000000
 -3200.177780604   0.000000000000
 -3200.177125995   0.000000000000
 -3200.158366052   0.000000000000
 -3200.154777142   0.000000000000
 -3200.153971680   0.000000000000
 -3200.151419683   0.000000000000
 -3200.147271492   0.000000000000
 -3200.144343058   0.000000000000
 -3200.143147162   0.000000000000
 -3200.142599353   0.000000000000
 -3200.140655834   0.000000000000
 -3200.137970461   0.000000000000
 -3200.136655246   0.000000000000
 -3200.136109061   0.000000000000
 -3200.131636670   0.000000000000
 -3200.131027548   0.000000000000
 -3200.130537751   0.000000000000
 -3200.129972144   0.000000000000
 -3200.127823966   0.000000000000
 -3200.126508912   0.000000000000
 -3200.117585364   0.000000000000
 -3200.116920567   0.000000000000
 -3200.112811633   0.000000000000
 -3200.110354355   0.000000000000
 -3200.106777369   0.000000000000
 -3200.104489322   0.000000000000
 -3200.103260096   0.000000000000
 -3200.100825980   0.000000000000
 -3200.098658589   0.000000000000
 -3200.086726762   0.000000000000
 -3200.066298068   0.000000000000
 -3200.064453553   0.000000000000
 -3200.054169813   0.000000000000
 -3200.039282487   0.000000000000
 -3200.030035060   0.000000000000
 -3200.016824957   0.000000000000
 -3200.013496549   0.000000000000
 -3199.788717403   0.000000000000
 -3199.785268284   0.000000000000
 -3199.781170091   0.000000000000
 -3199.773177707   0.000000000000
 -3199.747338648   0.000000000000
 -3199.743187287   0.000000000000
   CI-PROBLEM SOLVED
   DENSITIES MADE
   E(CAS)= -3200.132501415 Eh DE=   -1.499826e-05
   --- Energy gap subspaces: Ext-Act = 0.309   Act-Int = 0.082
   N(occ)=  1.20000 1.20000 1.20000 1.20000 1.20000
   ||g|| =     2.896931e-03 Max(G)=   -2.323257e-03 Rot=166,162
   --- Orbital Update [SuperCI(PT)]
   --- Canonicalize Internal Space
   --- Canonicalize External Space
   --- SX_PT (Skipped TA=0 IT=0): ||X|| =      0.001971321 Max(X)(205,162) =     -0.000791964 
   --- SFit(Active Orbitals)

MACRO-ITERATION  10: 
   --- Inactive Energy E0 = -3191.68088272 Eh
[...]
 3 118   66450.2    150.5   0.000000000   0.00000   0.00080   0.00049   0.00098
 3 119   66464.0    150.5   0.000000000   0.00000   0.00002   0.00011   0.00022
 3 120   66464.4    150.5   0.000000000   0.00000   0.00053   0.00039   0.00033
 3 121   66750.1    149.8   0.000000000   0.00023   0.01174   0.00741   0.00614
 3 122   66755.6    149.8   0.000000000   0.00005   0.00527   0.00155   0.00394
 3 123   66762.0    149.8   0.000000000   0.00002   0.00334   0.00230   0.00124
 3 124   68276.9    146.5   0.000000000   0.00000   0.00112   0.00087   0.00046
 3 125   68282.5    146.5   0.000000000   0.00000   0.00036   0.00039   0.00040
 3 126   68284.2    146.4   0.000000000   0.00010   0.00823   0.00554   0.00148
 3 127   69408.3    144.1   0.000000000   0.00001   0.00246   0.00158   0.00120
 3 128   69410.6    144.1   0.000000000   0.00000   0.00013   0.00188   0.00088
 3 129   69413.6    144.1   0.000000000   0.00000   0.00057   0.00027   0.00007
 3 130   69678.8    143.5   0.000000000   0.00001   0.00019   0.00306   0.00050
 3 131   69681.7    143.5   0.000000000   0.00000   0.00128   0.00070   0.00106
 3 132   69684.2    143.5   0.000000000   0.00004   0.00474   0.00136   0.00363
 3 133   71274.5    140.3   0.000000000   0.00000   0.00038   0.00030   0.00038
 3 134   71275.9    140.3   0.000000000   0.00000   0.00006   0.00009   0.00012
 3 135   71278.0    140.3   0.000000000   0.00003   0.00387   0.00252   0.00238
 3 136   73187.3    136.6   0.000000000   0.00000   0.00013   0.00025   0.00071
 3 137   73188.8    136.6   0.000000000   0.00000   0.00100   0.00053   0.00094
 3 138   73191.2    136.6   0.000000000   0.00000   0.00051   0.00000   0.00031
 3 139   77611.3    128.8   0.000000000   0.00000   0.00081   0.00031   0.00044
 3 140   77614.3    128.8   0.000000000   0.00001   0.00215   0.00179   0.00090
 3 141   77614.7    128.8   0.000000000   0.00001   0.00211   0.00075   0.00105
 3 142   81140.3    123.2   0.000000000   0.00000   0.00052   0.00072   0.00026
 3 143   81144.1    123.2   0.000000000   0.00000   0.00047   0.00045   0.00008
 3 144   81152.0    123.2   0.000000000   0.00000   0.00088   0.00047   0.00066
 3 145   81188.1    123.2   0.000000000   0.00000   0.00015   0.00018   0.00016
 3 146   81199.3    123.2   0.000000000   0.00000   0.00028   0.00036   0.00019
 3 147   81201.2    123.2   0.000000000   0.00000   0.00069   0.00037   0.00054
 3 148   81889.2    122.1   0.000000000   0.00000   0.00042   0.00018   0.00027
 3 149   81891.4    122.1   0.000000000   0.00000   0.00090   0.00025   0.00065
 3 150   81893.2    122.1   0.000000000   0.00000   0.00058   0.00017   0.00029
 3 151  114896.4     87.0   0.000000000   0.00000   0.00027   0.00007   0.00024
 3 152  114896.9     87.0   0.000000000   0.00000   0.00049   0.00031   0.00033
 3 153  114897.0     87.0   0.000000000   0.00000   0.00017   0.00008   0.00015
 3 154  175429.9     57.0   0.000000000   0.00000   0.00022   0.00020   0.00010
 3 155  175429.9     57.0   0.000000000   0.00000   0.00008   0.00003   0.00004
 3 156  175430.0     57.0   0.000000000   0.00000   0.00013   0.00003   0.00014
 3 157  227565.4     43.9   0.000000000   0.00000   0.00006   0.00002   0.00008
 3 158  227565.5     43.9   0.000000000   0.00000   0.00013   0.00002   0.00015
 3 159  227565.5     43.9   0.000000000   0.00000   0.00007   0.00008   0.00040
 4  5       1.2   8374642.2   0.000000000   0.00000   0.00000   0.00000   0.00000
 4  6       1.7   6053502.8   0.000000000   0.00000   0.00000   0.00000   0.00000
 4  7       1.9   5170442.8   0.000000000   0.00000   0.00000   0.00000   0.00000
 4  8     990.0   10100.6   0.000000000   0.00000   0.00001   0.00001   0.00001
 4  9     991.1   10090.1   0.000000000   0.00000   0.00067   0.00070   0.00007
 4 10     991.3   10088.0   0.000000000   0.00000   0.00046   0.00024   0.00047
 4 11   18502.7    540.5   0.000000000   0.00000   0.00049   0.00017   0.00065
 4 12   18509.6    540.3   0.000000000   0.00000   0.00061   0.00036   0.00031
 4 13   18518.3    540.0   0.000000000   0.00000   0.00003   0.00003   0.00006
 4 14   18699.3    534.8   0.000000000   0.00000   0.00006   0.00012   0.00004
 4 15   18713.9    534.4   0.000000000   0.00000   0.00030   0.00006   0.00017
 4 16   18718.5    534.2   0.000000000   0.00000   0.00077   0.00082   0.00006
 4 17   19972.2    500.7   0.000000000   0.00000   0.00056   0.00014   0.00025
 4 18   19973.9    500.7   0.000000000   0.00000   0.00018   0.00166   0.00140
 4 19   19975.7    500.6   0.000000000   0.00000   0.00003   0.00002   0.00011
 4 20   21106.4    473.8   0.000000000   0.00000   0.00123   0.00105   0.00019
 4 21   21107.3    473.8   0.000000000   0.00000   0.00051   0.00045   0.00004
 4 22   21108.0    473.8   0.000000000   0.00000   0.00041   0.00053   0.00149
 4 23   23302.1    429.1   0.000000000   0.00000   0.00014   0.00005   0.00000
 4 24   23303.4    429.1   0.000000000   0.00000   0.00090   0.00086   0.00134
 4 25   23303.8    429.1   0.000000000   0.00000   0.00030   0.00002   0.00071
 4 26   26741.9    373.9   0.000000000   0.00000   0.00075   0.00129   0.00087
 4 27   26743.4    373.9   0.000000000   0.00000   0.00148   0.00004   0.00007
 4 28   26743.8    373.9   0.000000000   0.00000   0.00071   0.00027   0.00010
 4 29   29241.8    342.0   0.000000000   0.00000   0.00006   0.00023   0.00023
 4 30   29242.3    342.0   0.000000000   0.00000   0.00022   0.00083   0.00090
 4 31   29242.7    342.0   0.000000000   0.00000   0.00077   0.00089   0.00072
 4 32   31845.5    314.0   0.000000000   0.00000   0.00047   0.00078   0.00035
 4 33   31846.1    314.0   0.000000000   0.00000   0.00010   0.00010   0.00004
 4 34   31849.6    314.0   0.000000000   0.00000   0.00075   0.00058   0.00045
 4 35   36499.5    274.0   0.000000000   0.00000   0.00049   0.00039   0.00017
 4 36   36500.1    274.0   0.000000000   0.00000   0.00091   0.00067   0.00020
 4 37   36530.1    273.7   0.000000000   0.00000   0.00070   0.00080   0.00020
 4 38   37043.1    270.0   0.000000000   0.00000   0.00075   0.00069   0.00074
 4 39   37054.3    269.9   0.000000000   0.00001   0.00226   0.00140   0.00138
 4 40   37054.6    269.9   0.000000000   0.00000   0.00001   0.00005   0.00006
 4 41   37420.2    267.2   0.000000000   0.00000   0.00069   0.00075   0.00009
 4 42   37445.0    267.1   0.000000000   0.00000   0.00013   0.00012   0.00002
 4 43   37449.1    267.0   0.000000000   0.00000   0.00077   0.00068   0.00058
 4 44   39938.7    250.4   0.000000000   0.00000   0.00066   0.00077   0.00030
 4 45   39939.2    250.4   0.000000000   0.00000   0.00025   0.00002   0.00010
 4 46   39941.0    250.4   0.000000000   0.00001   0.00219   0.00186   0.00003
 4 47   42013.5    238.0   0.000000000   0.00001   0.00188   0.00132   0.00022
 4 48   42015.1    238.0   0.000000000   0.00000   0.00205   0.00032   0.00026
 4 49   42016.5    238.0   0.000000000   0.00000   0.00043   0.00010   0.00009
 4 50   50395.6    198.4   0.000000000   0.00003   0.00424   0.00160   0.00286
 4 51   50396.1    198.4   0.000000000   0.00000   0.00068   0.00105   0.00011
 4 52   50396.2    198.4   0.000000000   0.00001   0.00214   0.00186   0.00026
 4 53   55652.3    179.7   0.000000000   0.00000   0.00103   0.00039   0.00065
 4 54   55653.4    179.7   0.000000000   0.00001   0.00267   0.00050   0.00254
 4 55   55653.7    179.7   0.000000000   0.00017   0.00955   0.00524   0.00723
 4 56   57122.7    175.1   0.000000000   0.00011   0.00658   0.00377   0.00742
 4 57   57123.4    175.1   0.000000000   0.00000   0.00066   0.00035   0.00113
 4 58   57124.2    175.1   0.000000000   0.00002   0.00034   0.00366   0.00316
 4 59   58866.8    169.9   0.000000000   0.00004   0.00416   0.00227   0.00419
 4 60   58869.9    169.9   0.000000000   0.00009   0.00414   0.00757   0.00433
 4 61   58877.1    169.8   0.000000000   0.00008   0.00259   0.00291   0.00793
 4 62   59542.8    167.9   0.000000000   0.28941   0.42119   0.23792   0.23538
 4 63   59543.1    167.9   0.000000000   0.03336   0.13464   0.07050   0.10132
 4 64   59562.7    167.9   0.000000000   0.31231   0.43306   0.24818   0.25135
 4 65   59567.7    167.9   0.000000000   0.01913   0.10457   0.04599   0.07799
 4 66   59573.1    167.9   0.000000000   0.62713   0.61674   0.34714   0.35532
 4 67   59740.3    167.4   0.000000000   0.00197   0.03365   0.01585   0.02429
 4 68   59742.9    167.4   0.000000000   0.01337   0.08741   0.04557   0.06044
 4 69   59760.9    167.3   0.000000000   0.00441   0.04956   0.01956   0.03965
 4 70   60119.6    166.3   0.000000000   0.00244   0.00859   0.03539   0.03333
 4 71   60134.9    166.3   0.000000000   0.00178   0.02607   0.00873   0.03194
 4 72   60140.3    166.3   0.000000000   0.00156   0.03218   0.01669   0.01570
 4 73   60229.7    166.0   0.000000000   0.01454   0.00218   0.05707   0.10620
 4 74   60235.9    166.0   0.000000000   0.00894   0.07162   0.05008   0.03604
 4 75   60254.8    166.0   0.000000000   0.05287   0.01369   0.09985   0.20667
 4 76   60281.5    165.9   0.000000000   0.00454   0.05681   0.03592   0.00473
 4 77   60283.4    165.9   0.000000000   0.01295   0.04050   0.02312   0.10381
 4 78   60661.0    164.9   0.000000000   0.00354   0.00378   0.05640   0.01862
 4 79   60665.1    164.8   0.000000000   0.00854   0.00638   0.09218   0.00263
 4 80   60670.3    164.8   0.000000000   0.02085   0.09082   0.11209   0.00576
 4 81   60685.7    164.8   0.000000000   0.00209   0.02335   0.03746   0.01200
 4 82   60686.1    164.8   0.000000000   0.00141   0.00786   0.03597   0.00762
 4 83   61721.4    162.0   0.000000000   0.00005   0.00468   0.00405   0.00363
 4 84   61724.6    162.0   0.000000000   0.00056   0.02010   0.00522   0.01118
 4 85   61748.4    161.9   0.000000000   0.00068   0.01874   0.01700   0.00612
 4 86   61802.9    161.8   0.000000000   0.00001   0.00275   0.00108   0.00052
 4 87   61827.2    161.7   0.000000000   0.00019   0.00923   0.00655   0.00795
 4 88   61830.9    161.7   0.000000000   0.00008   0.00765   0.00316   0.00403
 4 89   62223.3    160.7   0.000000000   0.00740   0.05722   0.04205   0.04854
 4 90   62223.4    160.7   0.000000000   0.01577   0.04564   0.10365   0.05424
 4 91   62230.6    160.7   0.000000000   0.00015   0.00782   0.00815   0.00455
 4 92   62232.9    160.7   0.000000000   0.00020   0.00837   0.00397   0.01056
 4 93   62234.6    160.7   0.000000000   0.00014   0.00605   0.00813   0.00622
 4 94   63523.0    157.4   0.000000000   0.00002   0.00374   0.00203   0.00148
 4 95   63523.5    157.4   0.000000000   0.00007   0.00715   0.00042   0.00372
 4 96   63540.4    157.4   0.000000000   0.00009   0.00886   0.00116   0.00231
 4 97   63663.7    157.1   0.000000000   0.00001   0.00093   0.00129   0.00218
 4 98   63678.2    157.0   0.000000000   0.00001   0.00250   0.00147   0.00122
 4 99   63681.3    157.0   0.000000000   0.00004   0.00280   0.00435   0.00407
 4 100   63955.7    156.4   0.000000000   0.00000   0.00037   0.00058   0.00050
 4 101   63956.0    156.4   0.000000000   0.00000   0.00011   0.00014   0.00019
 4 102   63968.8    156.3   0.000000000   0.00000   0.00074   0.00012   0.00068
 4 103   65205.6    153.4   0.000000000   0.00003   0.00368   0.00344   0.00219
 4 104   65209.2    153.4   0.000000000   0.00002   0.00293   0.00267   0.00177
 4 105   65228.9    153.3   0.000000000   0.00005   0.00520   0.00183   0.00393
 4 106   65493.3    152.7   0.000000000   0.00007   0.00639   0.00306   0.00452
 4 107   65507.1    152.7   0.000000000   0.00017   0.00967   0.00595   0.00622
 4 108   65510.8    152.6   0.000000000   0.00009   0.00747   0.00386   0.00476
 4 109   66189.6    151.1   0.000000000   0.00000   0.00091   0.00055   0.00044
 4 110   66200.4    151.1   0.000000000   0.00004   0.00476   0.00283   0.00369
 4 111   66217.4    151.0   0.000000000   0.00003   0.00058   0.00507   0.00255
 4 112   66339.9    150.7   0.000000000   0.00004   0.00279   0.00214   0.00510
 4 113   66343.2    150.7   0.000000000   0.00002   0.00198   0.00363   0.00106
 4 114   66350.9    150.7   0.000000000   0.00001   0.00149   0.00094   0.00175
 4 115   66404.9    150.6   0.000000000   0.00002   0.00262   0.00342   0.00205
 4 116   66420.6    150.6   0.000000000   0.00005   0.00528   0.00340   0.00355
 4 117   66428.4    150.5   0.000000000   0.00000   0.00095   0.00093   0.00130
 4 118   66450.1    150.5   0.000000000   0.00000   0.00036   0.00027   0.00017
 4 119   66463.9    150.5   0.000000000   0.00000   0.00024   0.00069   0.00009
 4 120   66464.4    150.5   0.000000000   0.00000   0.00123   0.00089   0.00119
 4 121   66750.1    149.8   0.000000000   0.00005   0.00535   0.00173   0.00379
 4 122   66755.5    149.8   0.000000000   0.00028   0.01292   0.00832   0.00681
 4 123   66762.0    149.8   0.000000000   0.00000   0.00121   0.00021   0.00048
 4 124   68276.9    146.5   0.000000000   0.00009   0.00775   0.00525   0.00142
 4 125   68282.4    146.5   0.000000000   0.00000   0.00011   0.00012   0.00009
 4 126   68284.2    146.4   0.000000000   0.00000   0.00105   0.00110   0.00057
 4 127   69408.2    144.1   0.000000000   0.00001   0.00032   0.00206   0.00089
 4 128   69410.6    144.1   0.000000000   0.00001   0.00223   0.00135   0.00096
 4 129   69413.5    144.1   0.000000000   0.00000   0.00061   0.00079   0.00067
 4 130   69678.8    143.5   0.000000000   0.00005   0.00526   0.00151   0.00408
 4 131   69681.6    143.5   0.000000000   0.00000   0.00074   0.00059   0.00068
 4 132   69684.2    143.5   0.000000000   0.00001   0.00023   0.00280   0.00040
 4 133   71274.5    140.3   0.000000000   0.00002   0.00351   0.00228   0.00218
 4 134   71275.9    140.3   0.000000000   0.00000   0.00099   0.00066   0.00058
 4 135   71278.0    140.3   0.000000000   0.00000   0.00049   0.00029   0.00049
 4 136   73187.3    136.6   0.000000000   0.00000   0.00122   0.00055   0.00106
 4 137   73188.8    136.6   0.000000000   0.00000   0.00021   0.00027   0.00058
 4 138   73191.2    136.6   0.000000000   0.00000   0.00008   0.00002   0.00028
 4 139   77611.3    128.8   0.000000000   0.00000   0.00001   0.00000   0.00002
 4 140   77614.2    128.8   0.000000000   0.00001   0.00216   0.00083   0.00106
 4 141   77614.7    128.8   0.000000000   0.00001   0.00234   0.00193   0.00098
 4 142   81140.2    123.2   0.000000000   0.00000   0.00040   0.00010   0.00057
 4 143   81144.0    123.2   0.000000000   0.00000   0.00018   0.00031   0.00007
 4 144   81152.0    123.2   0.000000000   0.00000   0.00057   0.00070   0.00030
 4 145   81188.1    123.2   0.000000000   0.00000   0.00023   0.00006   0.00036
 4 146   81199.3    123.2   0.000000000   0.00000   0.00005   0.00000   0.00012
 4 147   81201.1    123.2   0.000000000   0.00000   0.00016   0.00023   0.00017
 4 148   81889.2    122.1   0.000000000   0.00000   0.00006   0.00003   0.00006
 4 149   81891.4    122.1   0.000000000   0.00000   0.00062   0.00020   0.00031
 4 150   81893.2    122.1   0.000000000   0.00000   0.00087   0.00023   0.00063
 4 151  114896.4     87.0   0.000000000   0.00000   0.00055   0.00033   0.00038
 4 152  114896.9     87.0   0.000000000   0.00000   0.00031   0.00010   0.00027
 4 153  114896.9     87.0   0.000000000   0.00000   0.00008   0.00002   0.00007
 4 154  175429.8     57.0   0.000000000   0.00000   0.00015   0.00003   0.00015
 4 155  175429.9     57.0   0.000000000   0.00000   0.00007   0.00003   0.00005
 4 156  175429.9     57.0   0.000000000   0.00000   0.00019   0.00017   0.00009
 4 157  227565.4     43.9   0.000000000   0.00000   0.00000   0.00001   0.00004
 4 158  227565.4     43.9   0.000000000   0.00000   0.00006   0.00008   0.00037
 4 159  227565.5     43.9   0.000000000   0.00000   0.00014   0.00002   0.00016

------------------------------------------------------------------------------
                           SOC CORRECTED DIPOLE MOMENTS
------------------------------------------------------------------------------
      TX        TY        TZ           |T|
   (Debye)   (Debye)   (Debye)      (Debye)
------------------------------------------------------------------------------
 -94.67464 -52.34773 -53.18526    120.54976

--------------
CASSCF TIMINGS
--------------

Total time                       ...     8103.9 sec
Sum of individual times          ...     8107.1 sec (100.0%)

Calculation of AO operators
   F(Core) operator              ...      347.2 sec (  4.3%)
   G(Act) operator               ...      332.1 sec (  4.1%)
   J(AO) operators               ...        0.0 sec (  0.0%)
Calculation of MO transformed quantities
   J(MO) operators               ...       44.9 sec (  0.6%)
   (pq|rs) integrals             ...        0.0 sec (  0.0%)
   AO->MO one electron integrals ...        1.4 sec (  0.0%)
Configuration interaction steps
   CI-setup phase                ...        0.0 sec (  0.0%)
   CI-solution phase             ...        0.6 sec (  0.0%)
   Generation of densities       ...        0.0 sec (  0.0%)
Orbital improvement steps
   Orbital gradient              ...        0.3 sec (  0.0%)
   O(1) converger                ...        8.4 sec (  0.1%)
PT2 
   NEVPT2 time                   ...     7338.6 sec ( 90.6%)
Properties                       ...       17.5 sec (  0.2%)
   SOC integral calculation      ...       16.0 sec (  0.2%)
   SSC RMEs (incl. integrals)    ...        0.0 sec (  0.0%)
   SOC RMEs                      ...        0.1 sec (  0.0%)

Maximum memory used throughout the entire CASSCF-calculation: 2355.8 MB

-------------------------   --------------------
FINAL SINGLE POINT ENERGY     -3208.237316070773
-------------------------   --------------------


                            ***************************************
                            *     ORCA property calculations      *
                            ***************************************

                                    ---------------------
                                    Active property flags
                                    ---------------------
   (+) Dipole Moment


------------------------------------------------------------------------------
                       ORCA ELECTRIC PROPERTIES CALCULATION
------------------------------------------------------------------------------

Dipole Moment Calculation                       ... on
Quadrupole Moment Calculation                   ... off
Polarizability Calculation                      ... off
GBWName                                         ... nevpt2.gbw
Electron density                                ... nevpt2.scfp
The origin for moment calculation is the CENTER OF MASS  = (14.507432, 14.585872 14.368169)

-------------
DIPOLE MOMENT
-------------
                                X             Y             Z
Electronic contribution:     36.48398      20.17585      20.51026
Nuclear contribution   :    -37.24712     -20.59476     -20.92427
                        -----------------------------------------
Total Dipole Moment    :     -0.76314      -0.41892      -0.41400
                        -----------------------------------------
Magnitude (a.u.)       :      0.96399
Magnitude (Debye)      :      2.45026



--------------------
Rotational spectrum 
--------------------
 
Rotational constants in cm-1:     0.001020     0.000727     0.000727 
Rotational constants in MHz :    30.589439    21.787592    21.782688 

 Dipole components along the rotational axes: 
x,y,z [a.u.] :     0.963852    -0.009765     0.012882 
x,y,z [Debye]:     2.449917    -0.024820     0.032743 

 

Timings for individual modules:

Sum of individual times         ...     8126.092 sec (= 135.435 min)
GTO integral calculation        ...       13.460 sec (=   0.224 min)   0.2 %
SCF iterations                  ...        5.617 sec (=   0.094 min)   0.1 %
CASSCF iterations               ...     8107.016 sec (= 135.117 min)  99.8 %
                             ****ORCA TERMINATED NORMALLY****
TOTAL RUN TIME: 0 days 2 hours 15 minutes 26 seconds 819 msec
