
                                 *****************
                                 * O   R   C   A *
                                 *****************

                                            #,                                       
                                            ###                                      
                                            ####                                     
                                            #####                                    
                                            ######                                   
                                           ########,                                 
                                     ,,################,,,,,                         
                               ,,#################################,,                 
                          ,,##########################################,,             
                       ,#########################################, ''#####,          
                    ,#############################################,,   '####,        
                  ,##################################################,,,,####,       
                ,###########''''           ''''###############################       
              ,#####''   ,,,,##########,,,,          '''####'''          '####       
            ,##' ,,,,###########################,,,                        '##       
           ' ,,###''''                  '''############,,,                           
         ,,##''                                '''############,,,,        ,,,,,,###''
      ,#''                                            '''#######################'''  
     '                                                          ''''####''''         
             ,#######,   #######,   ,#######,      ##                                
            ,#'     '#,  ##    ##  ,#'     '#,    #''#        ######   ,####,        
            ##       ##  ##   ,#'  ##            #'  '#       #        #'  '#        
            ##       ##  #######   ##           ,######,      #####,   #    #        
            '#,     ,#'  ##    ##  '#,     ,#' ,#      #,         ##   #,  ,#        
             '#######'   ##     ##  '#######'  #'      '#     #####' # '####'        



                  #######################################################
                  #                        -***-                        #
                  #          Department of theory and spectroscopy      #
                  #    Directorship and core code : Frank Neese         #
                  #        Max Planck Institute fuer Kohlenforschung    #
                  #                Kaiser Wilhelm Platz 1               #
                  #                 D-45470 Muelheim/Ruhr               #
                  #                      Germany                        #
                  #                                                     #
                  #                  All rights reserved                #
                  #                        -***-                        #
                  #######################################################


                         Program Version 5.0.3 -  RELEASE  -


 With contributions from (in alphabetic order):
   Daniel Aravena         : Magnetic Suceptibility
   Michael Atanasov       : Ab Initio Ligand Field Theory (pilot matlab implementation)
   Alexander A. Auer      : GIAO ZORA, VPT2 properties, NMR spectrum
   Ute Becker             : Parallelization
   Giovanni Bistoni       : ED, misc. LED, open-shell LED, HFLD
   Martin Brehm           : Molecular dynamics
   Dmytro Bykov           : SCF Hessian
   Vijay G. Chilkuri      : MRCI spin determinant printing, contributions to CSF-ICE
   Dipayan Datta          : RHF DLPNO-CCSD density
   Achintya Kumar Dutta   : EOM-CC, STEOM-CC
   Dmitry Ganyushin       : Spin-Orbit,Spin-Spin,Magnetic field MRCI
   Miquel Garcia          : C-PCM and meta-GGA Hessian, CC/C-PCM, Gaussian charge scheme
   Yang Guo               : DLPNO-NEVPT2, F12-NEVPT2, CIM, IAO-localization
   Andreas Hansen         : Spin unrestricted coupled pair/coupled cluster methods
   Benjamin Helmich-Paris : MC-RPA, TRAH-SCF, COSX integrals
   Lee Huntington         : MR-EOM, pCC
   Robert Izsak           : Overlap fitted RIJCOSX, COSX-SCS-MP3, EOM
   Marcus Kettner         : VPT2
   Christian Kollmar      : KDIIS, OOCD, Brueckner-CCSD(T), CCSD density, CASPT2, CASPT2-K
   Simone Kossmann        : Meta GGA functionals, TD-DFT gradient, OOMP2, MP2 Hessian
   Martin Krupicka        : Initial AUTO-CI
   Lucas Lang             : DCDCAS
   Marvin Lechner         : AUTO-CI (C++ implementation), FIC-MRCC
   Dagmar Lenk            : GEPOL surface, SMD
   Dimitrios Liakos       : Extrapolation schemes; Compound Job, initial MDCI parallelization
   Dimitrios Manganas     : Further ROCIS development; embedding schemes
   Dimitrios Pantazis     : SARC Basis sets
   Anastasios Papadopoulos: AUTO-CI, single reference methods and gradients
   Taras Petrenko         : DFT Hessian,TD-DFT gradient, ASA, ECA, R-Raman, ABS, FL, XAS/XES, NRVS
   Peter Pinski           : DLPNO-MP2, DLPNO-MP2 Gradient
   Christoph Reimann      : Effective Core Potentials
   Marius Retegan         : Local ZFS, SOC
   Christoph Riplinger    : Optimizer, TS searches, QM/MM, DLPNO-CCSD(T), (RO)-DLPNO pert. Triples
   Tobias Risthaus        : Range-separated hybrids, TD-DFT gradient, RPA, STAB
   Michael Roemelt        : Original ROCIS implementation
   Masaaki Saitow         : Open-shell DLPNO-CCSD energy and density
   Barbara Sandhoefer     : DKH picture change effects
   Avijit Sen             : IP-ROCIS
   Kantharuban Sivalingam : CASSCF convergence, NEVPT2, FIC-MRCI
   Bernardo de Souza      : ESD, SOC TD-DFT
   Georgi Stoychev        : AutoAux, RI-MP2 NMR, DLPNO-MP2 response
   Willem Van den Heuvel  : Paramagnetic NMR
   Boris Wezisla          : Elementary symmetry handling
   Frank Wennmohs         : Technical directorship


 We gratefully acknowledge several colleagues who have allowed us to
 interface, adapt or use parts of their codes:
   Stefan Grimme, W. Hujo, H. Kruse, P. Pracht,  : VdW corrections, initial TS optimization,
                  C. Bannwarth, S. Ehlert          DFT functionals, gCP, sTDA/sTD-DF
   Ed Valeev, F. Pavosevic, A. Kumar             : LibInt (2-el integral package), F12 methods
   Garnet Chan, S. Sharma, J. Yang, R. Olivares  : DMRG
   Ulf Ekstrom                                   : XCFun DFT Library
   Mihaly Kallay                                 : mrcc  (arbitrary order and MRCC methods)
   Jiri Pittner, Ondrej Demel                    : Mk-CCSD
   Frank Weinhold                                : gennbo (NPA and NBO analysis)
   Christopher J. Cramer and Donald G. Truhlar   : smd solvation model
   Lars Goerigk                                  : TD-DFT with DH, B97 family of functionals
   V. Asgeirsson, H. Jonsson                     : NEB implementation
   FAccTs GmbH                                   : IRC, NEB, NEB-TS, DLPNO-Multilevel, CI-OPT
                                                   MM, QMMM, 2- and 3-layer-ONIOM, Crystal-QMMM,
                                                   LR-CPCM, SF, NACMEs, symmetry and pop. for TD-DFT,
                                                   nearIR, NL-DFT gradient (VV10), updates on ESD,
                                                   ML-optimized integration grids
   S Lehtola, MJT Oliveira, MAL Marques          : LibXC Library
   Liviu Ungur et al                             : ANISO software


 Your calculation uses the libint2 library for the computation of 2-el integrals
 For citations please refer to: http://libint.valeyev.net

 Your ORCA version has been built with support for libXC version: 5.1.0
 For citations please refer to: https://tddft.org/programs/libxc/

 This ORCA versions uses:
   CBLAS   interface :  Fast vector & matrix operations
   LAPACKE interface :  Fast linear algebra routines
   SCALAPACK package :  Parallel linear algebra routines
   Shared memory     :  Shared parallel matrices
   BLAS/LAPACK       :  OpenBLAS 0.3.15  USE64BITINT DYNAMIC_ARCH NO_AFFINITY Haswell SINGLE_THREADED
        Core in use  :  Haswell
   Copyright (c) 2011-2014, The OpenBLAS Project




***************************************
The coordinates will be read from file: 6.xyz
***************************************


================================================================================

cite the ECPs for Au [Def2-ECP] as follows:
Ce-Yb(ecp-28): M. Dolg, H. Stoll, H.Preuss, J. Chem. Phys., 1989, 90, 1730-1734.
Y-Cd(ecp-28), Hf-Hg(ecp-46): D. Andrae,U. Haeussermann, M. Dolg, H. Stoll, H. Preuss, Theor. Chim. Acta, 1990, 77, 123-141.
In-Sb(ecp-28), Tl-Bi(ecp-46): B. Metz, H. Stoll, M. Dolg, J. Chem. Phys., 2000, 113, 2563-2569.
Te-Xe(ecp-28), Po-Rn(ecp-46): K. A. Peterson, D. Figgen, E. Goll, H. Stoll, M. Dolg, J. Chem. Phys., 2003, 119, 11113-11123.
Rb(ecp-28), Cs(ecp-46): T. Leininger, A. Nicklass, W. Kuechle, H. Stoll, M. Dolg, A. Bergner, Chem. Phys. Lett., 1996, 255, 274-280.
Sr(ecp-28), Ba(ecp-46): M. Kaupp, P. V. Schleyer, H. Stoll and H. Preuss, J. Chem. Phys., 1991, 94, 1360-1366.
La(ecp-46): M. Dolg, H. Stoll, A. Savin, H. Preuss, Theor. Chim. Acta, 1989, 75, 173-194.
Lu(ecp-28): X. Cao, M. Dolg, J. Chem. Phys., 2001, 115, 7348-7355.

ECP parameters for Au [Def2-ECP] have been obtained from:
TURBOMOLE (7.0.2)

----- Orbital basis set information -----
Your calculation utilizes the basis: def2-TZVP
   F. Weigend and R. Ahlrichs, Phys. Chem. Chem. Phys. 7, 3297 (2005).

----- AuxJ basis set information -----
Your calculation utilizes the auxiliary basis: def2/J
   F. Weigend, Phys. Chem. Chem. Phys. 8, 1057 (2006).

================================================================================
                                        WARNINGS
                       Please study these warnings very carefully!
================================================================================


WARNING: your system is open-shell and RHF/RKS was chosen
  ===> : WILL SWITCH to UHF/UKS


WARNING: Geometry Optimization
  ===> : Switching off AutoStart
         For restart on a previous wavefunction, please use MOREAD

INFO   : the flag for use of the SHARK integral package has been found!

================================================================================
                                       INPUT FILE
================================================================================
NAME = pbe.inp
|  1> %pal nprocs 16 end 
|  2> 
|  3> !PBE def2-TZVP OPT UNO
|  4> !SLOWCONV KDIIS 
|  5> 
|  6> %geom maxiter 300 end
|  7> 
|  8> *xyzfile 0 3 6.xyz                           ****END OF INPUT****
================================================================================

                       *****************************
                       * Geometry Optimization Run *
                       *****************************

Geometry optimization settings:
Update method            Update   .... BFGS
Choice of coordinates    CoordSys .... Z-matrix Internals
Initial Hessian          InHess   .... Almoef's Model

Convergence Tolerances:
Energy Change            TolE     ....  5.0000e-06 Eh
Max. Gradient            TolMAXG  ....  3.0000e-04 Eh/bohr
RMS Gradient             TolRMSG  ....  1.0000e-04 Eh/bohr
Max. Displacement        TolMAXD  ....  4.0000e-03 bohr
RMS Displacement         TolRMSD  ....  2.0000e-03 bohr
Strict Convergence                ....  False
------------------------------------------------------------------------------
                        ORCA OPTIMIZATION COORDINATE SETUP
------------------------------------------------------------------------------

The optimization will be done in new redundant internal coordinates
Making redundant internal coordinates   ...  (new redundants) done
Evaluating the initial hessian          ...  (Almloef) done
Evaluating the coordinates              ...  done
Calculating the B-matrix                .... done
Calculating the G-matrix                .... done
Diagonalizing the G-matrix              .... done
The first mode is                       ....  360
The number of degrees of freedom        ....   33

    -----------------------------------------------------------------
                    Redundant Internal Coordinates


    -----------------------------------------------------------------
         Definition                    Initial Value    Approx d2E/dq
    -----------------------------------------------------------------
      1. B(Au  3,Au  2)                  2.9594         0.003793   
      2. B(Au  4,Au  3)                  2.6168         0.013357   
      3. B(Au  5,Au  3)                  2.6169         0.013352   
      4. B(Au  5,Au  2)                  2.8345         0.006003   
      5. B(Au  6,Au  4)                  2.8348         0.005997   
      6. B(Au  6,Au  3)                  2.9592         0.003796   
      7. B(Au  7,Au  1)                  2.8399         0.005883   
      8. B(Au  7,Au  0)                  2.8399         0.005884   
      9. B(Au  8,Au  7)                  2.8394         0.005895   
     10. B(Au  9,Au  3)                  2.9591         0.003798   
     11. B(Au  9,Au  5)                  2.8344         0.006005   
     12. B(Au 10,Au  7)                  2.8394         0.005896   
     13. B(Au 11,Au  3)                  2.9592         0.003796   
     14. B(Au 11,Au  4)                  2.8346         0.006001   
     15. B(Fe 12,Au 10)                  2.5217         0.137690   
     16. B(Fe 12,Au  7)                  3.1642         0.012998   
     17. B(Fe 12,Au  9)                  2.5901         0.107087   
     18. B(Fe 12,Au  2)                  2.5907         0.106873   
     19. B(Fe 12,Au  8)                  2.5221         0.137484   
     20. B(Fe 12,Au  3)                  3.3868         0.005737   
     21. B(Fe 12,Au 11)                  2.5906         0.106890   
     22. B(Fe 12,Au  6)                  2.5902         0.107038   
     23. B(Fe 12,Au  1)                  2.5218         0.137643   
     24. B(Fe 12,Au  0)                  2.5223         0.137368   
     25. A(Au  7,Au  0,Fe 12)           72.0493         0.194213   
     26. A(Au  7,Au  1,Fe 12)           72.0568         0.194260   
     27. A(Au  3,Au  2,Fe 12)           74.8817         0.178999   
     28. A(Au  5,Au  2,Fe 12)          108.0439         0.188854   
     29. A(Au  3,Au  2,Au  5)           53.6474         0.130821   
     30. A(Au  6,Au  3,Fe 12)           47.5922         0.135431   
     31. A(Au  4,Au  3,Fe 12)           93.1610         0.150728   
     32. A(Au  5,Au  3,Fe 12)           93.1572         0.150723   
     33. A(Au  2,Au  3,Au  5)           60.7338         0.139116   
     34. A(Au  4,Au  3,Au 11)           60.7405         0.139130   
     35. A(Au  5,Au  3,Au  6)          124.2648         0.139124   
     36. A(Au  2,Au  3,Au  6)           63.5710         0.126700   
     37. A(Au  9,Au  3,Fe 12)           47.5906         0.135438   
     38. A(Au  6,Au  3,Au 11)           62.3299         0.126707   
     39. A(Au  2,Au  3,Fe 12)           47.5995         0.135424   
     40. A(Au  2,Au  3,Au 11)           95.1995         0.126701   
     41. A(Au  4,Au  3,Au  6)           60.7444         0.139128   
     42. A(Au  2,Au  3,Au  9)           62.3192         0.126706   
     43. A(Au  6,Au  3,Au  9)           95.1828         0.126712   
     44. A(Au  5,Au  3,Au  9)           60.7368         0.139132   
     45. A(Au  4,Au  3,Au  9)          124.2756         0.139136   
     46. A(Au  5,Au  3,Au 11)          124.2711         0.139126   
     47. A(Au  9,Au  3,Au 11)           63.5747         0.126713   
     48. A(Au 11,Au  3,Fe 12)           47.5999         0.135433   
     49. A(Au  4,Au  3,Au  5)          173.6818         0.155638   
     50. A(Au  2,Au  3,Au  4)          124.2750         0.139120   
     51. A(Au  3,Au  4,Au  6)           65.6109         0.144595   
     52. A(Au  6,Au  4,Au 11)           65.4006         0.135386   
     53. A(Au  3,Au  4,Au 11)           65.6128         0.144604   
     54. A(Au  3,Au  5,Au  9)           65.6108         0.144608   
     55. A(Au  2,Au  5,Au  3)           65.6188         0.144604   
     56. A(Au  2,Au  5,Au  9)           65.3961         0.135404   
     57. A(Au  3,Au  6,Au  4)           53.6448         0.130818   
     58. A(Au  3,Au  6,Fe 12)           74.8911         0.179045   
     59. A(Au  4,Au  6,Fe 12)          108.0499         0.188866   
     60. A(Au  0,Au  7,Au  1)           63.7349         0.134981   
     61. A(Au  0,Au  7,Fe 12)           49.3190         0.150701   
     62. A(Au  8,Au  7,Au 10)           63.7339         0.135023   
     63. A(Au  1,Au  7,Au 10)           98.6166         0.135002   
     64. A(Au  0,Au  7,Au 10)           65.9573         0.135002   
     65. A(Au  1,Au  7,Au  8)           65.9504         0.135001   
     66. A(Au  0,Au  7,Au  8)           98.6366         0.135001   
     67. A(Au  8,Au  7,Fe 12)           49.3176         0.150729   
     68. A(Au  1,Au  7,Fe 12)           49.3075         0.150701   
     69. A(Au 10,Au  7,Fe 12)           49.3092         0.150730   
     70. A(Au  7,Au  8,Fe 12)           72.0616         0.194279   
     71. A(Au  5,Au  9,Fe 12)          108.0622         0.188907   
     72. A(Au  3,Au  9,Au  5)           53.6524         0.130838   
     73. A(Au  3,Au  9,Fe 12)           74.8960         0.179068   
     74. A(Au  7,Au 10,Fe 12)           72.0678         0.194318   
     75. A(Au  3,Au 11,Fe 12)           74.8863         0.179019   
     76. A(Au  3,Au 11,Au  4)           53.6468         0.130826   
     77. A(Au  4,Au 11,Fe 12)          108.0445         0.188849   
     78. A(Au  1,Fe 12,Au 10)          117.2588         0.329981   
     79. A(Au  0,Fe 12,Au 10)           75.5964         0.329872   
     80. A(Au  0,Fe 12,Au  8)          117.2525         0.329791   
     81. A(Au  3,Fe 12,Au 11)           57.5138         0.199847   
     82. A(Au  3,Fe 12,Au 10)          121.3746         0.206386   
     83. A(Au  8,Fe 12,Au  9)           63.8745         0.316595   
     84. A(Au  3,Fe 12,Au  9)           57.5134         0.199894   
     85. A(Au  3,Fe 12,Au  8)          121.3743         0.206346   
     86. A(Au  3,Fe 12,Au  6)           57.5168         0.199882   
     87. A(Au  2,Fe 12,Au  3)           57.5188         0.199844   
     88. A(Au 10,Fe 12,Au 11)           63.8742         0.316577   
     89. A(Au  6,Fe 12,Au  9)          115.0301         0.304058   
     90. A(Au  2,Fe 12,Au  6)           73.9907         0.303961   
     91. A(Au  1,Fe 12,Au  2)           63.8611         0.316551   
     92. A(Au  1,Fe 12,Au  3)          121.3666         0.206376   
     93. A(Au  0,Fe 12,Au  3)          121.3731         0.206323   
     94. A(Au  9,Fe 12,Au 11)           73.9920         0.303991   
     95. A(Au  7,Fe 12,Au 10)           58.6230         0.230259   
     96. A(Au  8,Fe 12,Au 11)          105.9624         0.316500   
     97. A(Au  2,Fe 12,Au  9)           72.4707         0.303983   
     98. A(Au  7,Fe 12,Au  8)           58.6208         0.230211   
     99. A(Au  2,Fe 12,Au  7)          122.4835         0.222386   
    100. A(Au  6,Fe 12,Au 11)           72.4816         0.303969   
    101. A(Au  0,Fe 12,Au  7)           58.6317         0.230184   
    102. A(Au  2,Fe 12,Au 11)          115.0326         0.303894   
    103. A(Au  1,Fe 12,Au  9)          106.4978         0.316654   
    104. A(Au  1,Fe 12,Au  6)          105.9614         0.316631   
    105. A(Au  0,Fe 12,Au 11)          106.5136         0.316456   
    106. A(Au  1,Fe 12,Au  7)           58.6358         0.230248   
    107. A(Au  9,Fe 12,Au 10)          105.9673         0.316672   
    108. A(Au  6,Fe 12,Au  7)          122.4880         0.222433   
    109. A(Au  2,Fe 12,Au  8)          106.5084         0.316492   
    110. A(Au  7,Fe 12,Au  9)          122.4819         0.222446   
    111. A(Au  8,Fe 12,Au 10)           72.9417         0.329919   
    112. A(Au  7,Fe 12,Au 11)          122.4839         0.222391   
    113. A(Au  6,Fe 12,Au 10)          106.5167         0.316648   
    114. A(Au  1,Fe 12,Au  8)           75.5912         0.329900   
    115. A(Au  0,Fe 12,Au  6)           63.8697         0.316528   
    116. A(Au  0,Fe 12,Au  2)          105.9624         0.316448   
    117. A(Au  0,Fe 12,Au  1)           72.9537         0.329854   
    118. D(Au  6,Au  3,Au  2,Fe 12)    -55.5286         0.001501   
    119. D(Au  9,Au  3,Au  2,Au  5)    -70.1968         0.001501   
    120. D(Au 11,Au  3,Au  2,Fe 12)      0.0031         0.001501   
    121. D(Au 11,Au  3,Au  2,Au  5)   -126.6678         0.001501   
    122. D(Au  4,Au  3,Au  2,Fe 12)    -57.8624         0.001501   
    123. D(Au  6,Au  3,Au  2,Au  5)    177.8004         0.001501   
    124. D(Au  5,Au  3,Au  2,Fe 12)    126.6710         0.001501   
    125. D(Au  9,Au  3,Au  2,Fe 12)     56.4741         0.001501   
    126. D(Au  4,Au  3,Au  2,Au  5)    175.4666         0.001501   
    127. D(Fe 12,Au  3,Au  2,Au  5)   -126.6710         0.001501   
    128. D(Au 11,Au  4,Au  3,Fe 12)     36.3865         0.001506   
    129. D(Au  6,Au  4,Au  3,Au  9)    -75.1397         0.001506   
    130. D(Au  6,Au  4,Au  3,Au  2)      2.3954         0.001506   
    131. D(Au  6,Au  4,Au  3,Au  5)    143.6001         0.001506   
    132. D(Au 11,Au  4,Au  3,Au  6)     72.7652         0.001506   
    133. D(Au  6,Au  4,Au  3,Fe 12)    -36.3787         0.001506   
    134. D(Au 11,Au  4,Au  3,Au  5)   -143.6347         0.001506   
    135. D(Au 11,Au  4,Au  3,Au  2)     75.1606         0.001506   
    136. D(Au 11,Au  4,Au  3,Au  9)     -2.3745         0.001506   
    137. D(Au  6,Au  4,Au  3,Au 11)    -72.7652         0.001506   
    138. D(Au  2,Au  5,Au  3,Au  9)     72.7580         0.001506   
    139. D(Au  2,Au  5,Au  3,Fe 12)     36.3841         0.001506   
    140. D(Au  2,Au  5,Au  3,Au 11)     75.1579         0.001506   
    141. D(Au  9,Au  5,Au  2,Fe 12)     18.5513         0.001501   
    142. D(Au  2,Au  5,Au  3,Au  4)   -143.5947         0.001506   
    143. D(Au  2,Au  5,Au  3,Au  6)     -2.3834         0.001506   
    144. D(Au  9,Au  5,Au  2,Au  3)     73.0763         0.001501   
    145. D(Au  9,Au  5,Au  3,Au  6)    -75.1415         0.001506   
    146. D(Au  9,Au  5,Au  3,Fe 12)    -36.3740         0.001506   
    147. D(Au  9,Au  5,Au  3,Au 11)      2.3999         0.001506   
    148. D(Au  9,Au  5,Au  3,Au  2)    -72.7580         0.001506   
    149. D(Au  9,Au  5,Au  3,Au  4)    143.6472         0.001506   
    150. D(Au  3,Au  5,Au  2,Fe 12)    -54.5250         0.001501   
    151. D(Au  4,Au  6,Au  3,Au  2)   -177.7896         0.001501   
    152. D(Fe 12,Au  6,Au  3,Au  9)      0.0085         0.001501   
    153. D(Fe 12,Au  6,Au  3,Au  4)   -126.6719         0.001501   
    154. D(Fe 12,Au  6,Au  3,Au 11)    -56.4789         0.001501   
    155. D(Au  4,Au  6,Au  3,Au  5)   -175.4678         0.001501   
    156. D(Au  4,Au  6,Au  3,Au 11)     70.1931         0.001501   
    157. D(Au  3,Au  6,Au  4,Au 11)    -73.0798         0.001501   
    158. D(Au  4,Au  6,Au  3,Fe 12)    126.6719         0.001501   
    159. D(Fe 12,Au  6,Au  4,Au  3)     54.5303         0.001501   
    160. D(Au  4,Au  6,Au  3,Au  9)    126.6804         0.001501   
    161. D(Fe 12,Au  6,Au  4,Au 11)    -18.5496         0.001501   
    162. D(Fe 12,Au  6,Au  3,Au  5)     57.8603         0.001501   
    163. D(Fe 12,Au  6,Au  3,Au  2)     55.5384         0.001501   
    164. D(Au  8,Au  7,Au  3,Au  2)     90.3631         0.001500   
    165. D(Au  8,Au  7,Au  3,Au  6)   -178.6242         0.001500   
    166. D(Au  1,Au  7,Au  3,Au  5)    -45.8715         0.001500   
    167. D(Au  8,Au  7,Au  3,Au  9)      1.3894         0.001500   
    168. D(Au 10,Au  7,Au  3,Au  2)    178.6183         0.001500   
    169. D(Au  0,Au  7,Au  3,Au  6)      1.3810         0.001500   
    170. D(Au  0,Au  7,Au  3,Au  2)    -89.6317         0.001500   
    171. D(Au  0,Au  7,Au  3,Au  5)   -134.1222         0.001500   
    172. D(Au  0,Au  7,Au  1,Fe 12)     57.7006         0.001501   
    173. D(Au  8,Au  7,Au  0,Fe 12)     -0.0024         0.001501   
    174. D(Au  1,Au  7,Au  0,Fe 12)    -57.6849         0.001501   
    175. D(Au  8,Au  7,Au  1,Fe 12)    -56.1025         0.001501   
    176. D(Au 10,Au  7,Au  1,Fe 12)     -0.0038         0.001501   
    177. D(Au 10,Au  7,Au  3,Au  4)    -45.8743         0.001500   
    178. D(Au 10,Au  7,Au  3,Au  9)     89.6446         0.001500   
    179. D(Au 10,Au  7,Au  3,Au  6)    -90.3690         0.001500   
    180. D(Au 10,Au  7,Au  3,Au  5)    134.1278         0.001500   
    181. D(Au  0,Au  7,Au  3,Au  9)   -178.6054         0.001500   
    182. D(Au  8,Au  7,Au  3,Au  4)   -134.1295         0.001500   
    183. D(Au  0,Au  7,Au  3,Au  4)     45.8757         0.001500   
    184. D(Au  1,Au  7,Au  3,Au  6)     89.6317         0.001500   
    185. D(Au  1,Au  7,Au  3,Au  9)    -90.3548         0.001500   
    186. D(Au  1,Au  7,Au  3,Au  2)     -1.3810         0.001500   
    187. D(Au  0,Au  7,Au  3,Au 11)     90.3683         0.001500   
    188. D(Au 10,Au  7,Au  0,Fe 12)     56.0868         0.001501   
    189. D(Au  8,Au  7,Au  3,Au 11)    -89.6369         0.001500   
    190. D(Au  8,Au  7,Au  3,Au  5)     45.8726         0.001500   
    191. D(Au 10,Au  7,Au  3,Au 11)     -1.3817         0.001500   
    192. D(Au  1,Au  7,Au  3,Au  4)    134.1264         0.001500   
    193. D(Au  1,Au  7,Au  3,Au 11)    178.6189         0.001500   
    194. D(Fe 12,Au  8,Au  7,Au  0)      0.0024         0.001501   
    195. D(Fe 12,Au  8,Au  7,Au 10)    -57.6879         0.001501   
    196. D(Fe 12,Au  8,Au  7,Au  1)     56.0895         0.001501   
    197. D(Au  7,Au  8,Au  6,Au  4)    138.1004         0.001500   
    198. D(Au  7,Au  8,Au  6,Au  3)   -178.9258         0.001500   
    199. D(Au  3,Au  9,Au  0,Au  7)   -178.9111         0.001500   
    200. D(Au  3,Au  9,Au  5,Au  2)    -73.0883         0.001501   
    201. D(Au  5,Au  9,Au  3,Fe 12)    126.6785         0.001501   
    202. D(Au  5,Au  9,Au  3,Au  6)    126.6700         0.001501   
    203. D(Au  5,Au  9,Au  3,Au  2)     70.1921         0.001501   
    204. D(Au  5,Au  9,Au  3,Au  4)   -175.4723         0.001501   
    205. D(Fe 12,Au  9,Au  3,Au  4)     57.8493         0.001501   
    206. D(Fe 12,Au  9,Au  3,Au 11)     55.5360         0.001501   
    207. D(Au  5,Au  9,Au  3,Au 11)   -177.7855         0.001501   
    208. D(Fe 12,Au  9,Au  3,Au  6)     -0.0085         0.001501   
    209. D(Fe 12,Au  9,Au  5,Au  3)     54.5310         0.001501   
    210. D(Fe 12,Au  9,Au  3,Au  5)   -126.6785         0.001501   
    211. D(Fe 12,Au  9,Au  3,Au  2)    -56.4864         0.001501   
    212. D(Fe 12,Au  9,Au  5,Au  2)    -18.5574         0.001501   
    213. D(Au  5,Au  9,Au  0,Au  7)    138.1086         0.001500   
    214. D(Fe 12,Au 10,Au  7,Au  1)      0.0038         0.001501   
    215. D(Au  7,Au 10,Au  2,Au  5)   -138.1019         0.001500   
    216. D(Au  7,Au 10,Au  2,Au  3)    178.9212         0.001500   
    217. D(Fe 12,Au 10,Au  7,Au  8)     57.6993         0.001501   
    218. D(Fe 12,Au 10,Au  7,Au  0)    -56.0994         0.001501   
    219. D(Au  3,Au 11,Au  4,Au  6)     73.0770         0.001501   
    220. D(Au  4,Au 11,Au  3,Fe 12)   -126.6673         0.001501   
    221. D(Au  4,Au 11,Au  3,Au  9)    177.8090         0.001501   
    222. D(Fe 12,Au 11,Au  3,Au  4)    126.6673         0.001501   
    223. D(Fe 12,Au 11,Au  3,Au  2)     -0.0031         0.001501   
    224. D(Au  3,Au 11,Au  1,Au  7)    178.9217         0.001500   
    225. D(Fe 12,Au 11,Au  3,Au  6)     56.4682         0.001501   
    226. D(Fe 12,Au 11,Au  3,Au  5)    -57.8615         0.001501   
    227. D(Fe 12,Au 11,Au  3,Au  9)    -55.5237         0.001501   
    228. D(Au  4,Au 11,Au  3,Au  6)    -70.1991         0.001501   
    229. D(Au  4,Au 11,Au  3,Au  5)    175.4712         0.001501   
    230. D(Au  4,Au 11,Au  3,Au  2)   -126.6704         0.001501   
    231. D(Fe 12,Au 11,Au  4,Au  6)     18.5462         0.001501   
    232. D(Fe 12,Au 11,Au  4,Au  3)    -54.5308         0.001501   
    233. D(Au  4,Au 11,Au  1,Au  7)   -138.1038         0.001500   
    234. D(Au  6,Fe 12,Au  1,Au  7)   -118.6805         0.001582   
    235. D(Au 10,Fe 12,Au  9,Au  5)   -160.1739         0.001553   
    236. D(Au  0,Fe 12,Au  1,Au  7)    -63.2092         0.001582   
    237. D(Au  3,Fe 12,Au  0,Au  7)   -179.9973         0.001582   
    238. D(Au  6,Fe 12,Au  9,Au  5)    -42.7894         0.001553   
    239. D(Au 11,Fe 12,Au  0,Au  7)   -118.3799         0.001582   
    240. D(Au 10,Fe 12,Au  9,Au  3)   -117.3738         0.001553   
    241. D(Au  2,Fe 12,Au  1,Au  7)    178.6995         0.001582   
    242. D(Au  3,Fe 12,Au  9,Au  5)    -42.8001         0.001553   
    243. D(Au  8,Fe 12,Au  1,Au  7)     61.7704         0.001582   
    244. D(Au 10,Fe 12,Au  0,Au  7)    -61.7699         0.001582   
    245. D(Au  1,Fe 12,Au  9,Au  3)    117.0639         0.001553   
    246. D(Au  1,Fe 12,Au  9,Au  5)     74.2638         0.001553   
    247. D(Au  8,Fe 12,Au  0,Au  7)      0.0031         0.001582   
    248. D(Au  6,Fe 12,Au  0,Au  7)   -178.7010         0.001582   
    249. D(Au  9,Fe 12,Au  8,Au  7)   -178.6961         0.001582   
    250. D(Au  2,Fe 12,Au  0,Au  7)    118.6747         0.001582   
    251. D(Au  1,Fe 12,Au  0,Au  7)     63.2142         0.001582   
    252. D(Au  0,Fe 12,Au  8,Au  7)     -0.0031         0.001582   
    253. D(Au 11,Fe 12,Au  7,Au 10)     -1.3787         0.001501   
    254. D(Au 11,Fe 12,Au  7,Au  1)    178.6263         0.001501   
    255. D(Au 11,Fe 12,Au  7,Au  0)     90.3725         0.001501   
    256. D(Au 10,Fe 12,Au  7,Au  8)    -88.2521         0.001501   
    257. D(Au 10,Fe 12,Au  7,Au  1)   -179.9951         0.001501   
    258. D(Au 10,Fe 12,Au  7,Au  0)     91.7511         0.001501   
    259. D(Au  9,Fe 12,Au  7,Au 10)     89.6399         0.001501   
    260. D(Au  9,Fe 12,Au  7,Au  8)      1.3878         0.001501   
    261. D(Au  9,Fe 12,Au  7,Au  0)   -178.6090         0.001501   
    262. D(Au  8,Fe 12,Au  7,Au 10)     88.2521         0.001501   
    263. D(Au  8,Fe 12,Au  7,Au  1)    -91.7430         0.001501   
    264. D(Au  6,Fe 12,Au  7,Au 10)    -90.3685         0.001501   
    265. D(Au  6,Fe 12,Au  7,Au  8)   -178.6206         0.001501   
    266. D(Au  6,Fe 12,Au  7,Au  1)     89.6364         0.001501   
    267. D(Au  2,Fe 12,Au  7,Au 10)    178.6110         0.001501   
    268. D(Au  2,Fe 12,Au  7,Au  8)     90.3589         0.001501   
    269. D(Au  2,Fe 12,Au  7,Au  1)     -1.3841         0.001501   
    270. D(Au  2,Fe 12,Au  7,Au  0)    -89.6379         0.001501   
    271. D(Au  1,Fe 12,Au  7,Au 10)    179.9951         0.001501   
    272. D(Au  1,Fe 12,Au  7,Au  8)     91.7430         0.001501   
    273. D(Au  1,Fe 12,Au  7,Au  0)    -88.2538         0.001501   
    274. D(Au  0,Fe 12,Au  7,Au  8)    179.9968         0.001501   
    275. D(Au  0,Fe 12,Au  7,Au  1)     88.2538         0.001501   
    276. D(Au  7,Fe 12,Au  6,Au  4)    137.2015         0.001553   
    277. D(Au  3,Fe 12,Au  6,Au  4)    -42.7957         0.001553   
    278. D(Au 11,Fe 12,Au  6,Au  4)     19.3831         0.001553   
    279. D(Au 11,Fe 12,Au  6,Au  3)     62.1788         0.001553   
    280. D(Au 10,Fe 12,Au  6,Au  3)    117.0628         0.001553   
    281. D(Au  9,Fe 12,Au  6,Au  4)    -42.8063         0.001553   
    282. D(Au  9,Fe 12,Au  6,Au  3)     -0.0107         0.001553   
    283. D(Au  2,Fe 12,Au  6,Au  4)   -104.1339         0.001553   
    284. D(Au  2,Fe 12,Au  6,Au  3)    -61.3382         0.001553   
    285. D(Au  1,Fe 12,Au  6,Au  4)   -160.1634         0.001553   
    286. D(Au  1,Fe 12,Au  6,Au  3)   -117.3677         0.001553   
    287. D(Au  0,Fe 12,Au  6,Au  3)   -178.6880         0.001553   
    288. D(Au 11,Fe 12,Au  3,Au  4)    -44.4948         0.001500   
    289. D(Au 11,Fe 12,Au  3,Au  9)     91.0231         0.001500   
    290. D(Au 11,Fe 12,Au  3,Au  5)    135.5076         0.001500   
    291. D(Au 11,Fe 12,Au  3,Au  2)    179.9958         0.001500   
    292. D(Au 10,Fe 12,Au  3,Au  4)    -45.8794         0.001500   
    293. D(Au 10,Fe 12,Au  3,Au  9)     89.6385         0.001500   
    294. D(Au 10,Fe 12,Au  3,Au  6)    -90.3730         0.001500   
    295. D(Au 10,Fe 12,Au  3,Au  5)    134.1229         0.001500   
    296. D(Au 10,Fe 12,Au  3,Au  2)    178.6112         0.001500   
    297. D(Au  9,Fe 12,Au  3,Au  4)   -135.5179         0.001500   
    298. D(Au  9,Fe 12,Au  3,Au 11)    -91.0231         0.001500   
    299. D(Au 10,Fe 12,Au  3,Au 11)     -1.3846         0.001500   
    300. D(Au  9,Fe 12,Au  3,Au  6)    179.9886         0.001500   
    301. D(Au  9,Fe 12,Au  3,Au  5)     44.4844         0.001500   
    302. D(Au  9,Fe 12,Au  3,Au  2)     88.9727         0.001500   
    303. D(Au 11,Fe 12,Au  3,Au  6)    -88.9883         0.001500   
    304. D(Au  8,Fe 12,Au  3,Au  4)   -134.1272         0.001500   
    305. D(Au  8,Fe 12,Au  3,Au 11)    -89.6324         0.001500   
    306. D(Au  8,Fe 12,Au  3,Au  9)      1.3907         0.001500   
    307. D(Au  0,Fe 12,Au  6,Au  4)    138.5164         0.001553   
    308. D(Au  8,Fe 12,Au  3,Au  6)   -178.6207         0.001500   
    309. D(Au  8,Fe 12,Au  3,Au  5)     45.8751         0.001500   
    310. D(Au  8,Fe 12,Au  3,Au  2)     90.3634         0.001500   
    311. D(Au  6,Fe 12,Au  3,Au  4)     44.4935         0.001500   
    312. D(Au  6,Fe 12,Au  3,Au 11)     88.9883         0.001500   
    313. D(Au  6,Fe 12,Au  3,Au  9)   -179.9886         0.001500   
    314. D(Au  6,Fe 12,Au  3,Au  5)   -135.5041         0.001500   
    315. D(Au 10,Fe 12,Au  6,Au  4)     74.2671         0.001553   
    316. D(Au  6,Fe 12,Au  3,Au  2)    -91.0159         0.001500   
    317. D(Au  2,Fe 12,Au  3,Au  4)    135.5094         0.001500   
    318. D(Au  2,Fe 12,Au  3,Au 11)   -179.9958         0.001500   
    319. D(Au  7,Fe 12,Au  6,Au  3)    179.9972         0.001553   
    320. D(Au  2,Fe 12,Au  3,Au  9)    -88.9727         0.001500   
    321. D(Au  2,Fe 12,Au  3,Au  6)     91.0159         0.001500   
    322. D(Au  2,Fe 12,Au  3,Au  5)    -44.4883         0.001500   
    323. D(Au  0,Fe 12,Au  7,Au 10)    -91.7511         0.001501   
    324. D(Au  1,Fe 12,Au  3,Au  4)    134.1313         0.001500   
    325. D(Au  1,Fe 12,Au  3,Au 11)    178.6261         0.001500   
    326. D(Au  1,Fe 12,Au  3,Au  9)    -90.3508         0.001500   
    327. D(Au  1,Fe 12,Au  3,Au  6)     89.6378         0.001500   
    328. D(Au  1,Fe 12,Au  3,Au  5)    -45.8664         0.001500   
    329. D(Au  1,Fe 12,Au  3,Au  2)     -1.3781         0.001500   
    330. D(Au  0,Fe 12,Au  3,Au  4)     45.8732         0.001500   
    331. D(Au  6,Fe 12,Au  7,Au  0)      1.3826         0.001501   
    332. D(Au  0,Fe 12,Au  3,Au 11)     90.3680         0.001500   
    333. D(Au  0,Fe 12,Au  3,Au  9)   -178.6089         0.001500   
    334. D(Au  0,Fe 12,Au  3,Au  6)      1.3797         0.001500   
    335. D(Au  8,Fe 12,Au  7,Au  0)   -179.9968         0.001501   
    336. D(Au  0,Fe 12,Au  3,Au  5)   -134.1245         0.001500   
    337. D(Au  0,Fe 12,Au  3,Au  2)    -89.6362         0.001500   
    338. D(Au  7,Fe 12,Au  2,Au  3)   -179.9943         0.001553   
    339. D(Au  9,Fe 12,Au  7,Au  1)    -90.3552         0.001501   
    340. D(Au  7,Fe 12,Au  2,Au  5)   -137.1979         0.001553   
    341. D(Au  3,Fe 12,Au  2,Au  5)     42.7963         0.001553   
    342. D(Au 11,Fe 12,Au  2,Au  3)     -0.0039         0.001553   
    343. D(Au 11,Fe 12,Au  2,Au  5)     42.7924         0.001553   
    344. D(Au  9,Fe 12,Au  2,Au  3)    -62.1842         0.001553   
    345. D(Au  9,Fe 12,Au  2,Au  5)    -19.3879         0.001553   
    346. D(Au  7,Fe 12,Au 11,Au  4)   -137.2071         0.001553   
    347. D(Au 11,Fe 12,Au  7,Au  8)    -89.6307         0.001501   
    348. D(Au  8,Fe 12,Au  2,Au  3)   -117.0671         0.001553   
    349. D(Au  8,Fe 12,Au  2,Au  5)    -74.2708         0.001553   
    350. D(Au  1,Fe 12,Au  8,Au  7)    -61.7874         0.001582   
    351. D(Au  2,Fe 12,Au  8,Au  7)   -118.3822         0.001582   
    352. D(Au 10,Fe 12,Au 11,Au  4)   -138.5181         0.001553   
    353. D(Au 10,Fe 12,Au  8,Au  7)     63.2059         0.001582   
    354. D(Au 11,Fe 12,Au  8,Au  7)    118.6752         0.001582   
    355. D(Au  3,Fe 12,Au  8,Au  7)    179.9973         0.001582   
    356. D(Au 10,Fe 12,Au 11,Au  3)    178.6833         0.001553   
    357. D(Au  6,Fe 12,Au  2,Au  3)     61.3358         0.001553   
    358. D(Au  2,Fe 12,Au  9,Au  5)     19.3907         0.001553   
    359. D(Au  2,Fe 12,Au  9,Au  3)     62.1908         0.001553   
    360. D(Au  6,Fe 12,Au  2,Au  5)    104.1321         0.001553   
    361. D(Au  6,Fe 12,Au  9,Au  3)      0.0107         0.001553   
    362. D(Au  8,Fe 12,Au  9,Au  5)    138.5224         0.001553   
    363. D(Au  8,Fe 12,Au  9,Au  3)   -178.6775         0.001553   
    364. D(Au  8,Fe 12,Au 11,Au  3)    117.3763         0.001553   
    365. D(Au  1,Fe 12,Au  2,Au  3)    178.6893         0.001553   
    366. D(Au 11,Fe 12,Au  9,Au  5)   -104.1315         0.001553   
    367. D(Au 11,Fe 12,Au  9,Au  3)    -61.3314         0.001553   
    368. D(Au  1,Fe 12,Au  2,Au  5)   -138.5144         0.001553   
    369. D(Au  7,Fe 12,Au  9,Au  5)    137.2027         0.001553   
    370. D(Au  7,Fe 12,Au  9,Au  3)   -179.9972         0.001553   
    371. D(Au  0,Fe 12,Au 10,Au  7)     61.7798         0.001582   
    372. D(Au  2,Fe 12,Au 11,Au  4)     42.8025         0.001553   
    373. D(Au  2,Fe 12,Au 11,Au  3)      0.0039         0.001553   
    374. D(Au  0,Fe 12,Au  2,Au  3)    117.3748         0.001553   
    375. D(Au  0,Fe 12,Au 11,Au  4)    -74.2641         0.001553   
    376. D(Au  0,Fe 12,Au 11,Au  3)   -117.0627         0.001553   
    377. D(Au  0,Fe 12,Au  2,Au  5)    160.1712         0.001553   
    378. D(Au  3,Fe 12,Au 10,Au  7)   -179.9944         0.001582   
    379. D(Au 11,Fe 12,Au 10,Au  7)    178.7047         0.001582   
    380. D(Au  3,Fe 12,Au  1,Au  7)    179.9944         0.001582   
    381. D(Au  9,Fe 12,Au 10,Au  7)   -118.6702         0.001582   
    382. D(Au  6,Fe 12,Au 11,Au  3)    -62.1823         0.001553   
    383. D(Au  6,Fe 12,Au 11,Au  4)    -19.3837         0.001553   
    384. D(Au  8,Fe 12,Au 10,Au  7)    -63.2033         0.001582   
    385. D(Au  8,Fe 12,Au 11,Au  4)    160.1749         0.001553   
    386. D(Au  9,Fe 12,Au 11,Au  3)     61.3309         0.001553   
    387. D(Au  9,Fe 12,Au 11,Au  4)    104.1295         0.001553   
    388. D(Au 10,Fe 12,Au  1,Au  7)      0.0047         0.001582   
    389. D(Au  6,Fe 12,Au 10,Au  7)    118.3831         0.001582   
    390. D(Au  3,Fe 12,Au 11,Au  4)     42.7986         0.001553   
    391. D(Au  7,Fe 12,Au 11,Au  3)    179.9943         0.001553   
    392. D(Au  1,Fe 12,Au 10,Au  7)     -0.0047         0.001582   
    393. D(Au  9,Fe 12,Au  1,Au  7)    118.3860         0.001582   
    -----------------------------------------------------------------

Number of atoms                         .... 13
Number of degrees of freedom            .... 393

         *************************************************************
         *                GEOMETRY OPTIMIZATION CYCLE   1            *
         *************************************************************
---------------------------------
CARTESIAN COORDINATES (ANGSTROEM)
---------------------------------
  Au     9.211208    9.799658   10.595306
  Au     9.572277    7.013268   11.643163
  Au     7.623626    6.083493   10.014378
  Au     7.020911    6.611230    7.165425
  Au     6.601304    8.992280    6.164434
  Au     7.230824    4.137105    7.991629
  Au     7.248330    8.980123    8.924333
  Au    11.782647    8.723306   11.137898
  Au    11.662698    6.453737    9.435864
  Au     9.694319    5.529186    7.827340
  Au    11.301352    9.239271    8.387592
  Au     9.319040    8.425558    6.736751
  Fe     9.482594    7.703232    9.219254

----------------------------
CARTESIAN COORDINATES (A.U.)
----------------------------
  NO LB      ZA    FRAG     MASS         X           Y           Z
   0 Au   19.0000*   0   196.966   17.406661   18.518670   20.022226
   1 Au   19.0000*   0   196.966   18.088982   13.253157   22.002390
   2 Au   19.0000*   0   196.966   14.406565   11.496136   18.924432
   3 Au   19.0000*   0   196.966   13.267598   12.493414   13.540692
   4 Au   19.0000*   0   196.966   12.474656   16.992947   11.649093
   5 Au   19.0000*   0   196.966   13.664278    7.817995   15.101989
   6 Au   19.0000*   0   196.966   13.697358   16.969973   16.864546
   7 Au   19.0000*   0   196.966   22.265976   16.484659   21.047577
   8 Au   19.0000*   0   196.966   22.039304   12.195796   17.831199
   9 Au   19.0000*   0   196.966   18.319607   10.448648   14.791529
  10 Au   19.0000*   0   196.966   21.356461   17.459691   15.850252
  11 Au   19.0000*   0   196.966   17.610434   15.921998   12.730615
  12 Fe   26.0000    0    55.850   17.919507   14.556999   17.421866
* core charge reduced due to ECP

--------------------------------
INTERNAL COORDINATES (ANGSTROEM)
--------------------------------
 Au     0   0   0     0.000000000000     0.00000000     0.00000000
 Au     1   0   0     2.998723758597     0.00000000     0.00000000
 Au     2   1   0     2.704563265909    91.27445692     0.00000000
 Au     3   2   1     2.959443073832   131.69647342    43.50964909
 Au     4   3   2     2.616763832690   124.27500726   303.60702210
 Au     4   3   2     2.616862827075    60.73378555   128.14037818
 Au     1   2   3     2.704936069889    91.24421186     0.00000000
 Au     1   2   3     2.839936151461    58.13261486   220.15971038
 Au     8   1   2     2.839409593330    98.63656932    57.68242610
 Au     9   8   1     2.704932730411   131.33094521   358.50955534
 Au     8   1   2     2.839374415760    65.95725580   113.77167691
 Au    11   8   1     2.704989058499   131.35382914   305.38439363
 Fe    11   8   1     2.521697467819    72.06784933   303.90059918

---------------------------
INTERNAL COORDINATES (A.U.)
---------------------------
 Au     0   0   0     0.000000000000     0.00000000     0.00000000
 Au     1   0   0     5.666766655032     0.00000000     0.00000000
 Au     2   1   0     5.110883884432    91.27445692     0.00000000
 Au     3   2   1     5.592536918472   131.69647342    43.50964909
 Au     4   3   2     4.944967000934   124.27500726   303.60702210
 Au     4   3   2     4.945154073211    60.73378555   128.14037818
 Au     1   2   3     5.111588381855    91.24421186     0.00000000
 Au     1   2   3     5.366701564083    58.13261486   220.15971038
 Au     8   1   2     5.365706513423    98.63656932    57.68242610
 Au     9   8   1     5.111582071157   131.33094521   358.50955534
 Au     8   1   2     5.365640037450    65.95725580   113.77167691
 Au    11   8   1     5.111688515817   131.35382914   305.38439363
 Fe    11   8   1     4.765317606781    72.06784933   303.90059918

---------------------
BASIS SET INFORMATION
---------------------
There are 2 groups of distinct atoms

 Group   1 Type Au  : 8s7p6d1f contracted to 6s4p3d1f pattern {311111/4111/411/1}
 Group   2 Type Fe  : 17s11p7d1f contracted to 6s4p4d1f pattern {842111/6311/4111/1}

Atom   0Au   basis set group =>   1
Atom   1Au   basis set group =>   1
Atom   2Au   basis set group =>   1
Atom   3Au   basis set group =>   1
Atom   4Au   basis set group =>   1
Atom   5Au   basis set group =>   1
Atom   6Au   basis set group =>   1
Atom   7Au   basis set group =>   1
Atom   8Au   basis set group =>   1
Atom   9Au   basis set group =>   1
Atom  10Au   basis set group =>   1
Atom  11Au   basis set group =>   1
Atom  12Fe   basis set group =>   2
---------------------------------
AUXILIARY/J BASIS SET INFORMATION
---------------------------------
There are 2 groups of distinct atoms

 Group   1 Type Au  : 11s5p5d3f3g contracted to 8s5p5d2f3g pattern {41111111/11111/11111/21/111}
 Group   2 Type Fe  : 19s5p5d3f3g contracted to 8s5p5d2f3g pattern {121111111/11111/11111/21/111}

Atom   0Au   basis set group =>   1
Atom   1Au   basis set group =>   1
Atom   2Au   basis set group =>   1
Atom   3Au   basis set group =>   1
Atom   4Au   basis set group =>   1
Atom   5Au   basis set group =>   1
Atom   6Au   basis set group =>   1
Atom   7Au   basis set group =>   1
Atom   8Au   basis set group =>   1
Atom   9Au   basis set group =>   1
Atom  10Au   basis set group =>   1
Atom  11Au   basis set group =>   1
Atom  12Fe   basis set group =>   2
-------------------------
ECP PARAMETER INFORMATION
-------------------------

 Group 1, Type Au ECP Def2-ECP (replacing 60 core electrons, lmax=3)

Atom   0Au   ECP group =>   1
Atom   1Au   ECP group =>   1
Atom   2Au   ECP group =>   1
Atom   3Au   ECP group =>   1
Atom   4Au   ECP group =>   1
Atom   5Au   ECP group =>   1
Atom   6Au   ECP group =>   1
Atom   7Au   ECP group =>   1
Atom   8Au   ECP group =>   1
Atom   9Au   ECP group =>   1
Atom  10Au   ECP group =>   1
Atom  11Au   ECP group =>   1


ORCA finished by error termination in GTOInt
Calling Command: mpirun -np 16  /media/Programs/ORCA501/orca_gtoint_mpi pbe.int.tmp pbe 
[file orca_tools/qcmsg.cpp, line 465]: 
  .... aborting the run

