
                                 *****************
                                 * O   R   C   A *
                                 *****************

                                            #,                                       
                                            ###                                      
                                            ####                                     
                                            #####                                    
                                            ######                                   
                                           ########,                                 
                                     ,,################,,,,,                         
                               ,,#################################,,                 
                          ,,##########################################,,             
                       ,#########################################, ''#####,          
                    ,#############################################,,   '####,        
                  ,##################################################,,,,####,       
                ,###########''''           ''''###############################       
              ,#####''   ,,,,##########,,,,          '''####'''          '####       
            ,##' ,,,,###########################,,,                        '##       
           ' ,,###''''                  '''############,,,                           
         ,,##''                                '''############,,,,        ,,,,,,###''
      ,#''                                            '''#######################'''  
     '                                                          ''''####''''         
             ,#######,   #######,   ,#######,      ##                                
            ,#'     '#,  ##    ##  ,#'     '#,    #''#        ######   ,####,        
            ##       ##  ##   ,#'  ##            #'  '#       #        #'  '#        
            ##       ##  #######   ##           ,######,      #####,   #    #        
            '#,     ,#'  ##    ##  '#,     ,#' ,#      #,         ##   #,  ,#        
             '#######'   ##     ##  '#######'  #'      '#     #####' # '####'        



                  #######################################################
                  #                        -***-                        #
                  #          Department of theory and spectroscopy      #
                  #    Directorship and core code : Frank Neese         #
                  #        Max Planck Institute fuer Kohlenforschung    #
                  #                Kaiser Wilhelm Platz 1               #
                  #                 D-45470 Muelheim/Ruhr               #
                  #                      Germany                        #
                  #                                                     #
                  #                  All rights reserved                #
                  #                        -***-                        #
                  #######################################################


                         Program Version 5.0.3 -  RELEASE  -


 With contributions from (in alphabetic order):
   Daniel Aravena         : Magnetic Suceptibility
   Michael Atanasov       : Ab Initio Ligand Field Theory (pilot matlab implementation)
   Alexander A. Auer      : GIAO ZORA, VPT2 properties, NMR spectrum
   Ute Becker             : Parallelization
   Giovanni Bistoni       : ED, misc. LED, open-shell LED, HFLD
   Martin Brehm           : Molecular dynamics
   Dmytro Bykov           : SCF Hessian
   Vijay G. Chilkuri      : MRCI spin determinant printing, contributions to CSF-ICE
   Dipayan Datta          : RHF DLPNO-CCSD density
   Achintya Kumar Dutta   : EOM-CC, STEOM-CC
   Dmitry Ganyushin       : Spin-Orbit,Spin-Spin,Magnetic field MRCI
   Miquel Garcia          : C-PCM and meta-GGA Hessian, CC/C-PCM, Gaussian charge scheme
   Yang Guo               : DLPNO-NEVPT2, F12-NEVPT2, CIM, IAO-localization
   Andreas Hansen         : Spin unrestricted coupled pair/coupled cluster methods
   Benjamin Helmich-Paris : MC-RPA, TRAH-SCF, COSX integrals
   Lee Huntington         : MR-EOM, pCC
   Robert Izsak           : Overlap fitted RIJCOSX, COSX-SCS-MP3, EOM
   Marcus Kettner         : VPT2
   Christian Kollmar      : KDIIS, OOCD, Brueckner-CCSD(T), CCSD density, CASPT2, CASPT2-K
   Simone Kossmann        : Meta GGA functionals, TD-DFT gradient, OOMP2, MP2 Hessian
   Martin Krupicka        : Initial AUTO-CI
   Lucas Lang             : DCDCAS
   Marvin Lechner         : AUTO-CI (C++ implementation), FIC-MRCC
   Dagmar Lenk            : GEPOL surface, SMD
   Dimitrios Liakos       : Extrapolation schemes; Compound Job, initial MDCI parallelization
   Dimitrios Manganas     : Further ROCIS development; embedding schemes
   Dimitrios Pantazis     : SARC Basis sets
   Anastasios Papadopoulos: AUTO-CI, single reference methods and gradients
   Taras Petrenko         : DFT Hessian,TD-DFT gradient, ASA, ECA, R-Raman, ABS, FL, XAS/XES, NRVS
   Peter Pinski           : DLPNO-MP2, DLPNO-MP2 Gradient
   Christoph Reimann      : Effective Core Potentials
   Marius Retegan         : Local ZFS, SOC
   Christoph Riplinger    : Optimizer, TS searches, QM/MM, DLPNO-CCSD(T), (RO)-DLPNO pert. Triples
   Tobias Risthaus        : Range-separated hybrids, TD-DFT gradient, RPA, STAB
   Michael Roemelt        : Original ROCIS implementation
   Masaaki Saitow         : Open-shell DLPNO-CCSD energy and density
   Barbara Sandhoefer     : DKH picture change effects
   Avijit Sen             : IP-ROCIS
   Kantharuban Sivalingam : CASSCF convergence, NEVPT2, FIC-MRCI
   Bernardo de Souza      : ESD, SOC TD-DFT
   Georgi Stoychev        : AutoAux, RI-MP2 NMR, DLPNO-MP2 response
   Willem Van den Heuvel  : Paramagnetic NMR
   Boris Wezisla          : Elementary symmetry handling
   Frank Wennmohs         : Technical directorship


 We gratefully acknowledge several colleagues who have allowed us to
 interface, adapt or use parts of their codes:
   Stefan Grimme, W. Hujo, H. Kruse, P. Pracht,  : VdW corrections, initial TS optimization,
                  C. Bannwarth, S. Ehlert          DFT functionals, gCP, sTDA/sTD-DF
   Ed Valeev, F. Pavosevic, A. Kumar             : LibInt (2-el integral package), F12 methods
   Garnet Chan, S. Sharma, J. Yang, R. Olivares  : DMRG
   Ulf Ekstrom                                   : XCFun DFT Library
   Mihaly Kallay                                 : mrcc  (arbitrary order and MRCC methods)
   Jiri Pittner, Ondrej Demel                    : Mk-CCSD
   Frank Weinhold                                : gennbo (NPA and NBO analysis)
   Christopher J. Cramer and Donald G. Truhlar   : smd solvation model
   Lars Goerigk                                  : TD-DFT with DH, B97 family of functionals
   V. Asgeirsson, H. Jonsson                     : NEB implementation
   FAccTs GmbH                                   : IRC, NEB, NEB-TS, DLPNO-Multilevel, CI-OPT
                                                   MM, QMMM, 2- and 3-layer-ONIOM, Crystal-QMMM,
                                                   LR-CPCM, SF, NACMEs, symmetry and pop. for TD-DFT,
                                                   nearIR, NL-DFT gradient (VV10), updates on ESD,
                                                   ML-optimized integration grids
   S Lehtola, MJT Oliveira, MAL Marques          : LibXC Library
   Liviu Ungur et al                             : ANISO software


 Your calculation uses the libint2 library for the computation of 2-el integrals
 For citations please refer to: http://libint.valeyev.net

 Your ORCA version has been built with support for libXC version: 5.1.0
 For citations please refer to: https://tddft.org/programs/libxc/

 This ORCA versions uses:
   CBLAS   interface :  Fast vector & matrix operations
   LAPACKE interface :  Fast linear algebra routines
   SCALAPACK package :  Parallel linear algebra routines
   Shared memory     :  Shared parallel matrices
   BLAS/LAPACK       :  OpenBLAS 0.3.15  USE64BITINT DYNAMIC_ARCH NO_AFFINITY Haswell SINGLE_THREADED
        Core in use  :  Haswell
   Copyright (c) 2011-2014, The OpenBLAS Project




***************************************
The coordinates will be read from file: 7.xyz
***************************************


================================================================================

cite the ECPs for Au [Def2-ECP] as follows:
Ce-Yb(ecp-28): M. Dolg, H. Stoll, H.Preuss, J. Chem. Phys., 1989, 90, 1730-1734.
Y-Cd(ecp-28), Hf-Hg(ecp-46): D. Andrae,U. Haeussermann, M. Dolg, H. Stoll, H. Preuss, Theor. Chim. Acta, 1990, 77, 123-141.
In-Sb(ecp-28), Tl-Bi(ecp-46): B. Metz, H. Stoll, M. Dolg, J. Chem. Phys., 2000, 113, 2563-2569.
Te-Xe(ecp-28), Po-Rn(ecp-46): K. A. Peterson, D. Figgen, E. Goll, H. Stoll, M. Dolg, J. Chem. Phys., 2003, 119, 11113-11123.
Rb(ecp-28), Cs(ecp-46): T. Leininger, A. Nicklass, W. Kuechle, H. Stoll, M. Dolg, A. Bergner, Chem. Phys. Lett., 1996, 255, 274-280.
Sr(ecp-28), Ba(ecp-46): M. Kaupp, P. V. Schleyer, H. Stoll and H. Preuss, J. Chem. Phys., 1991, 94, 1360-1366.
La(ecp-46): M. Dolg, H. Stoll, A. Savin, H. Preuss, Theor. Chim. Acta, 1989, 75, 173-194.
Lu(ecp-28): X. Cao, M. Dolg, J. Chem. Phys., 2001, 115, 7348-7355.

ECP parameters for Au [Def2-ECP] have been obtained from:
TURBOMOLE (7.0.2)

----- Orbital basis set information -----
Your calculation utilizes the basis: def2-TZVP
   F. Weigend and R. Ahlrichs, Phys. Chem. Chem. Phys. 7, 3297 (2005).

----- AuxJ basis set information -----
Your calculation utilizes the auxiliary basis: def2/J
   F. Weigend, Phys. Chem. Chem. Phys. 8, 1057 (2006).

================================================================================
                                        WARNINGS
                       Please study these warnings very carefully!
================================================================================


WARNING: your system is open-shell and RHF/RKS was chosen
  ===> : WILL SWITCH to UHF/UKS


WARNING: Geometry Optimization
  ===> : Switching off AutoStart
         For restart on a previous wavefunction, please use MOREAD

INFO   : the flag for use of the SHARK integral package has been found!

================================================================================
                                       INPUT FILE
================================================================================
NAME = pbe.inp
|  1> %pal nprocs 1 end 
|  2> 
|  3> !PBE def2-TZVP OPT UNO
|  4> !SLOWCONV
|  5> 
|  6> *xyzfile 0 3 7.xyz                           ****END OF INPUT****
================================================================================

                       *****************************
                       * Geometry Optimization Run *
                       *****************************

Geometry optimization settings:
Update method            Update   .... BFGS
Choice of coordinates    CoordSys .... Z-matrix Internals
Initial Hessian          InHess   .... Almoef's Model

Convergence Tolerances:
Energy Change            TolE     ....  5.0000e-06 Eh
Max. Gradient            TolMAXG  ....  3.0000e-04 Eh/bohr
RMS Gradient             TolRMSG  ....  1.0000e-04 Eh/bohr
Max. Displacement        TolMAXD  ....  4.0000e-03 bohr
RMS Displacement         TolRMSD  ....  2.0000e-03 bohr
Strict Convergence                ....  False
------------------------------------------------------------------------------
                        ORCA OPTIMIZATION COORDINATE SETUP
------------------------------------------------------------------------------

The optimization will be done in new redundant internal coordinates
Making redundant internal coordinates   ...  (new redundants) done
Evaluating the initial hessian          ...  (Almloef) done
Evaluating the coordinates              ...  done
Calculating the B-matrix                .... done
Calculating the G-matrix                .... done
Diagonalizing the G-matrix              .... done
The first mode is                       ....  817
The number of degrees of freedom        ....   45

    -----------------------------------------------------------------
                    Redundant Internal Coordinates


    -----------------------------------------------------------------
         Definition                    Initial Value    Approx d2E/dq
    -----------------------------------------------------------------
      1. B(Au  4,Au  1)                  2.8020         0.006762   
      2. B(Au  4,Au  0)                  2.9469         0.003972   
      3. B(Au  5,Au  0)                  2.7798         0.007337   
      4. B(Au  5,Au  4)                  2.8469         0.005734   
      5. B(Au  6,Au  5)                  2.8239         0.006240   
      6. B(Au  6,Au  4)                  2.8992         0.004732   
      7. B(Au  7,Au  6)                  2.8377         0.005932   
      8. B(Au  7,Au  4)                  3.5883         0.000376   
      9. B(Au  7,Au  5)                  2.8086         0.006602   
     10. B(Au 12,Au  4)                  2.8820         0.005041   
     11. B(Au 13,Au 12)                  2.8378         0.005929   
     12. B(Au 13,Au  4)                  2.8475         0.005721   
     13. B(Au 13,Au  6)                  2.7920         0.007017   
     14. B(Au 14,Au 13)                  2.8237         0.006245   
     15. B(Au 14,Au 12)                  2.8081         0.006613   
     16. B(Au 14,Au  9)                  2.7794         0.007348   
     17. B(Au 15,Au 13)                  2.8985         0.004744   
     18. B(Au 15,Au 14)                  2.8464         0.005745   
     19. B(Au 15,Au 12)                  3.5881         0.000377   
     20. B(Au 15,Au 11)                  2.8025         0.006750   
     21. B(Au 15,Au  9)                  2.9462         0.003982   
     22. B(Au 15,Au  7)                  2.8817         0.005046   
     23. B(Au 15,Au  6)                  2.8481         0.005709   
     24. B(Fe 16,Au  9)                  2.7077         0.069519   
     25. B(Fe 16,Au 15)                  3.1280         0.014844   
     26. B(Fe 16,Au  8)                  2.7291         0.064276   
     27. B(Fe 16,Au  2)                  2.7290         0.064293   
     28. B(Fe 16,Au  4)                  3.1281         0.014840   
     29. B(Fe 16,Au 12)                  2.8110         0.047568   
     30. B(Fe 16,Au  7)                  2.8108         0.047601   
     31. B(Fe 16,Au 11)                  2.8270         0.044856   
     32. B(Fe 16,Au 10)                  2.6810         0.076696   
     33. B(Fe 16,Au  3)                  2.6809         0.076712   
     34. B(Fe 16,Au  1)                  2.8269         0.044871   
     35. B(Fe 16,Au  0)                  2.7074         0.069603   
     36. A(Au  4,Au  0,Au  5)           59.5355         0.133223   
     37. A(Au  5,Au  0,Fe 16)          103.5218         0.183829   
     38. A(Au  4,Au  0,Fe 16)           67.0215         0.171530   
     39. A(Au  4,Au  1,Fe 16)           67.5182         0.173288   
     40. A(Au  5,Au  4,Au 13)          116.8925         0.134425   
     41. A(Au  1,Au  4,Fe 16)           56.6193         0.154615   
     42. A(Au  5,Au  4,Au 12)          145.6906         0.133141   
     43. A(Au  5,Au  4,Au  7)           50.1471         0.113537   
     44. A(Au  1,Au  4,Au  7)           99.7698         0.114470   
     45. A(Au  7,Au  4,Au 13)           90.5841         0.113525   
     46. A(Au  6,Au  4,Au 13)           58.1260         0.132492   
     47. A(Au  1,Au  4,Au  6)          147.4104         0.134169   
     48. A(Au  5,Au  4,Au  6)           58.8622         0.132514   
     49. A(Au  7,Au  4,Au 12)           95.8130         0.112832   
     50. A(Au  6,Au  4,Au  7)           50.5211         0.112493   
     51. A(Au  0,Au  4,Au 12)          102.3849         0.129621   
     52. A(Au  1,Au  4,Au 12)           59.0583         0.134820   
     53. A(Au  0,Au  4,Au  1)           59.6167         0.132414   
     54. A(Au  0,Au  4,Au  7)           54.8716         0.111580   
     55. A(Au  5,Au  4,Fe 16)           92.2102         0.152211   
     56. A(Au  0,Au  4,Fe 16)           52.8288         0.147169   
     57. A(Au 12,Au  4,Fe 16)           55.5899         0.150394   
     58. A(Au 13,Au  4,Fe 16)           91.7680         0.152180   
     59. A(Au 12,Au  4,Au 13)           59.3747         0.133120   
     60. A(Au  0,Au  4,Au  5)           57.3122         0.130823   
     61. A(Au  6,Au  4,Fe 16)           90.8128         0.149521   
     62. A(Au  0,Au  4,Au 13)          140.8946         0.130802   
     63. A(Au  7,Au  4,Fe 16)           48.8914         0.123127   
     64. A(Au  1,Au  4,Au 13)          118.2390         0.136153   
     65. A(Au  6,Au  4,Au 12)          105.5893         0.131263   
     66. A(Au  1,Au  4,Au  5)          115.8943         0.136177   
     67. A(Au  0,Au  4,Au  6)          101.4845         0.129043   
     68. A(Au  0,Au  5,Au  7)           66.5064         0.138614   
     69. A(Au  4,Au  5,Au  7)           78.7583         0.135922   
     70. A(Au  0,Au  5,Au  6)          107.7644         0.137985   
     71. A(Au  6,Au  5,Au  7)           60.5043         0.136829   
     72. A(Au  4,Au  5,Au  6)           61.4931         0.135327   
     73. A(Au  0,Au  5,Au  4)           63.1523         0.137056   
     74. A(Au  5,Au  6,Au 15)          114.9797         0.135281   
     75. A(Au  4,Au  6,Au 15)           84.5750         0.132471   
     76. A(Au  7,Au  6,Au 15)           60.9044         0.134753   
     77. A(Au  4,Au  6,Au  5)           59.6447         0.133355   
     78. A(Au 13,Au  6,Au 15)           61.8395         0.136526   
     79. A(Au  4,Au  6,Au  7)           77.4243         0.132849   
     80. A(Au  5,Au  6,Au  7)           59.4802         0.135684   
     81. A(Au  4,Au  6,Au 13)           60.0095         0.134549   
     82. A(Au  5,Au  6,Au 13)          119.5533         0.137493   
     83. A(Au  7,Au  6,Au 13)          109.7120         0.136940   
     84. A(Au  5,Au  7,Fe 16)          100.1713         0.173961   
     85. A(Au  4,Au  7,Fe 16)           56.9832         0.133429   
     86. A(Au  4,Au  7,Au 15)           72.4858         0.112838   
     87. A(Au  5,Au  7,Au 15)          114.4007         0.134585   
     88. A(Au  6,Au  7,Au 15)           59.7266         0.133493   
     89. A(Au  5,Au  7,Au  6)           60.0155         0.136283   
     90. A(Au  4,Au  7,Au  6)           52.0546         0.113726   
     91. A(Au  6,Au  7,Fe 16)           98.9964         0.171927   
     92. A(Au 15,Au  7,Fe 16)           66.6513         0.168948   
     93. A(Au  4,Au  7,Au  5)           51.0946         0.114333   
     94. A(Au 14,Au  9,Fe 16)          103.5178         0.183836   
     95. A(Au 15,Au  9,Fe 16)           67.0264         0.171556   
     96. A(Au 14,Au  9,Au 15)           59.5369         0.133264   
     97. A(Au 15,Au 11,Fe 16)           67.5087         0.173247   
     98. A(Au 13,Au 12,Au 14)           60.0150         0.136297   
     99. A(Au  4,Au 12,Au 14)          114.3896         0.134590   
    100. A(Au  4,Au 12,Fe 16)           66.6462         0.168914   
    101. A(Au 13,Au 12,Fe 16)           98.9718         0.171906   
    102. A(Au  4,Au 12,Au 13)           59.7078         0.133477   
    103. A(Au 14,Au 12,Fe 16)          100.1719         0.173980   
    104. A(Au 13,Au 12,Au 15)           52.0409         0.113727   
    105. A(Au  4,Au 12,Au 15)           72.4850         0.112835   
    106. A(Au 14,Au 12,Au 15)           51.0879         0.114346   
    107. A(Au 15,Au 12,Fe 16)           56.9829         0.133428   
    108. A(Au  4,Au 13,Au 15)           84.5994         0.132519   
    109. A(Au 14,Au 13,Au 15)           59.6437         0.133390   
    110. A(Au  6,Au 13,Au 15)           60.0326         0.134577   
    111. A(Au  6,Au 13,Au 12)          109.7483         0.136935   
    112. A(Au  4,Au 13,Au  6)           61.8645         0.136549   
    113. A(Au  6,Au 13,Au 14)          119.5746         0.137501   
    114. A(Au 12,Au 13,Au 15)           77.4304         0.132872   
    115. A(Au 12,Au 13,Au 14)           59.4703         0.135687   
    116. A(Au  4,Au 13,Au 14)          114.9892         0.135311   
    117. A(Au  4,Au 13,Au 12)           60.9175         0.134771   
    118. A(Au 12,Au 14,Au 15)           78.7703         0.135960   
    119. A(Au  9,Au 14,Au 15)           63.1469         0.137093   
    120. A(Au  9,Au 14,Au 12)           66.5183         0.138650   
    121. A(Au 13,Au 14,Au 15)           61.4842         0.135354   
    122. A(Au 12,Au 14,Au 13)           60.5147         0.136855   
    123. A(Au  9,Au 14,Au 13)          107.7622         0.138010   
    124. A(Au 14,Au 15,Fe 16)           92.2162         0.152242   
    125. A(Au 12,Au 15,Fe 16)           48.8970         0.123134   
    126. A(Au 11,Au 15,Fe 16)           56.6180         0.154592   
    127. A(Au  9,Au 15,Fe 16)           52.8424         0.147207   
    128. A(Au  7,Au 15,Fe 16)           55.5893         0.150413   
    129. A(Au 12,Au 15,Au 14)           50.1419         0.113551   
    130. A(Au 11,Au 15,Au 14)          115.9080         0.136177   
    131. A(Au  9,Au 15,Au 14)           57.3163         0.130866   
    132. A(Au  7,Au 15,Au 14)          145.6954         0.133172   
    133. A(Au 11,Au 15,Au 12)           99.7734         0.114463   
    134. A(Au  9,Au 15,Au 12)           54.8779         0.111596   
    135. A(Au  7,Au 15,Au 12)           95.8222         0.112841   
    136. A(Au  9,Au 15,Au 11)           59.6229         0.132422   
    137. A(Au  7,Au 15,Au 11)           59.0486         0.134814   
    138. A(Au  7,Au 15,Au  9)          102.3933         0.129655   
    139. A(Au  6,Au 15,Fe 16)           91.7734         0.152152   
    140. A(Au  6,Au 15,Au 14)          116.9036         0.134422   
    141. A(Au  6,Au 15,Au 11)          118.2222         0.136110   
    142. A(Au  6,Au 15,Au  9)          140.9201         0.130806   
    143. A(Au  6,Au 15,Au  7)           59.3690         0.133109   
    144. A(Au 13,Au 15,Fe 16)           90.8127         0.149562   
    145. A(Au  6,Au 15,Au 12)           90.6066         0.113516   
    146. A(Au 13,Au 15,Au 14)           58.8721         0.132559   
    147. A(Au 12,Au 15,Au 13)           50.5287         0.112510   
    148. A(Au 11,Au 15,Au 13)          147.4098         0.134178   
    149. A(Au  9,Au 15,Au 13)          101.5023         0.129092   
    150. A(Au  6,Au 15,Au 13)           58.1279         0.132497   
    151. A(Au  7,Au 15,Au 13)          105.5801         0.131300   
    152. A(Au  8,Fe 16,Au 11)           62.0646         0.246358   
    153. A(Au  7,Fe 16,Au 11)           59.6029         0.236017   
    154. A(Au  7,Fe 16,Au  8)          113.4879         0.248488   
    155. A(Au  3,Fe 16,Au 11)           62.6677         0.252785   
    156. A(Au  4,Fe 16,Au 15)           76.3648         0.176921   
    157. A(Au 12,Fe 16,Au 15)           74.1201         0.203444   
    158. A(Au  2,Fe 16,Au 11)          116.5577         0.246367   
    159. A(Au  3,Fe 16,Au  8)           65.0889         0.266679   
    160. A(Au  0,Fe 16,Au  7)           67.4369         0.251388   
    161. A(Au 11,Fe 16,Au 15)           55.8733         0.201934   
    162. A(Au 10,Fe 16,Au 15)          119.1893         0.216511   
    163. A(Au  9,Fe 16,Au 15)           60.1312         0.213707   
    164. A(Au  8,Fe 16,Au 15)          109.1715         0.211514   
    165. A(Au  0,Fe 16,Au 11)          117.8371         0.249219   
    166. A(Au  7,Fe 16,Au 15)           57.7594         0.203462   
    167. A(Au  3,Fe 16,Au 15)          108.4329         0.216518   
    168. A(Au  2,Fe 16,Au 15)          172.1077         0.211521   
    169. A(Au  1,Fe 16,Au 15)          125.5240         0.201942   
    170. A(Au  9,Fe 16,Au 10)           65.1740         0.269851   
    171. A(Au  2,Fe 16,Au  8)           65.9406         0.259717   
    172. A(Au  0,Fe 16,Au 15)          116.9652         0.213742   
    173. A(Au  8,Fe 16,Au 10)           64.1013         0.266670   
    174. A(Au  3,Fe 16,Au 10)          118.4923         0.273927   
    175. A(Au  1,Fe 16,Au  8)          116.5627         0.246370   
    176. A(Au  2,Fe 16,Au  3)           64.1136         0.266689   
    177. A(Au  1,Fe 16,Au  2)           62.0649         0.246379   
    178. A(Au  2,Fe 16,Au 10)           65.0760         0.266681   
    179. A(Au  1,Fe 16,Au 10)           62.6792         0.252790   
    180. A(Au  0,Fe 16,Au  8)          119.8282         0.262811   
    181. A(Au  0,Fe 16,Au 10)          116.6763         0.269901   
    182. A(Au 11,Fe 16,Au 12)          121.2666         0.235994   
    183. A(Au 10,Fe 16,Au 12)           61.8163         0.254968   
    184. A(Au  8,Fe 16,Au  9)           63.2596         0.262763   
    185. A(Au  3,Fe 16,Au  7)           61.8138         0.255002   
    186. A(Au  1,Fe 16,Au  3)          116.4912         0.252798   
    187. A(Au  9,Fe 16,Au 12)           67.4299         0.251318   
    188. A(Au  4,Fe 16,Au 12)           57.7639         0.203438   
    189. A(Au  8,Fe 16,Au 12)          117.5620         0.248463   
    190. A(Au  7,Fe 16,Au  9)          110.7628         0.251343   
    191. A(Au  4,Fe 16,Au 11)          125.5309         0.201927   
    192. A(Au  4,Fe 16,Au 10)          108.4345         0.216504   
    193. A(Au  7,Fe 16,Au 12)          118.2267         0.237983   
    194. A(Au  4,Fe 16,Au  9)          116.9557         0.213700   
    195. A(Au  4,Fe 16,Au  8)          172.0992         0.211507   
    196. A(Au  2,Fe 16,Au 12)          113.4827         0.248472   
    197. A(Au  3,Fe 16,Au  9)          116.6771         0.269860   
    198. A(Au  2,Fe 16,Au  7)          117.5769         0.248497   
    199. A(Au  4,Fe 16,Au  7)           74.1254         0.203456   
    200. A(Au  3,Fe 16,Au  4)          119.1877         0.216511   
    201. A(Au  1,Fe 16,Au 12)           59.6099         0.236005   
    202. A(Au  2,Fe 16,Au  4)          109.1712         0.211514   
    203. A(Au  1,Fe 16,Au  4)           55.8624         0.201936   
    204. A(Au  0,Fe 16,Au 12)          110.7867         0.251363   
    205. A(Au  2,Fe 16,Au  9)          119.8389         0.262773   
    206. A(Au  0,Fe 16,Au  4)           60.1497         0.213735   
    207. A(Au 10,Fe 16,Au 11)          116.4908         0.252777   
    208. A(Au  9,Fe 16,Au 11)           62.2000         0.249175   
    209. A(Au  1,Fe 16,Au  9)          117.8539         0.249187   
    210. A(Au  1,Fe 16,Au  7)          121.2627         0.236028   
    211. A(Au  0,Fe 16,Au  3)           65.1561         0.269910   
    212. A(Au  0,Fe 16,Au  2)           63.2549         0.262821   
    213. A(Au  0,Fe 16,Au  1)           62.2023         0.249232   
    214. D(Au  5,Au  4,Au  1,Fe 16)    -74.4236         0.001502   
    215. D(Au  7,Au  4,Au  1,Fe 16)    -24.1580         0.001502   
    216. D(Au  7,Au  4,Au  0,Fe 16)    -61.6139         0.001501   
    217. D(Fe 16,Au  4,Au  0,Au  5)    122.9608         0.001501   
    218. D(Au  7,Au  4,Au  0,Au  5)     61.3469         0.001501   
    219. D(Au  6,Au  4,Au  0,Fe 16)    -82.1900         0.001501   
    220. D(Au 13,Au  4,Au  0,Fe 16)    -29.3711         0.001501   
    221. D(Au  5,Au  4,Au  0,Fe 16)   -122.9608         0.001501   
    222. D(Au  6,Au  4,Au  0,Au  5)     40.7708         0.001501   
    223. D(Au  1,Au  4,Au  0,Au  5)   -167.8844         0.001501   
    224. D(Au  0,Au  4,Au  1,Fe 16)    -63.0995         0.001502   
    225. D(Au  1,Au  4,Au  0,Fe 16)     69.1548         0.001501   
    226. D(Au 12,Au  4,Au  0,Fe 16)     26.7985         0.001501   
    227. D(Au  6,Au  4,Au  1,Fe 16)     -2.3507         0.001502   
    228. D(Au 13,Au  4,Au  0,Au  5)     93.5897         0.001501   
    229. D(Au 12,Au  4,Au  0,Au  5)    149.7593         0.001501   
    230. D(Au 12,Au  4,Au  1,Fe 16)     66.7933         0.001502   
    231. D(Au 13,Au  4,Au  1,Fe 16)     71.8242         0.001502   
    232. D(Au  0,Au  5,Au  4,Au 13)   -135.1023         0.001501   
    233. D(Au  0,Au  5,Au  4,Au 12)    -60.7753         0.001501   
    234. D(Au  6,Au  5,Au  0,Fe 16)      8.9826         0.001502   
    235. D(Au  7,Au  5,Au  4,Au 12)      8.4350         0.001501   
    236. D(Au  7,Au  5,Au  4,Au  1)     80.8213         0.001501   
    237. D(Au  7,Au  5,Au  4,Au  6)    -62.3998         0.001501   
    238. D(Au  0,Au  5,Au  4,Au  1)     11.6111         0.001501   
    239. D(Au  6,Au  5,Au  4,Au  0)    131.6101         0.001501   
    240. D(Au  6,Au  5,Au  4,Fe 16)     89.6143         0.001501   
    241. D(Au  0,Au  5,Au  4,Fe 16)    -41.9957         0.001501   
    242. D(Au  7,Au  5,Au  4,Fe 16)     27.2145         0.001501   
    243. D(Au  6,Au  5,Au  4,Au  1)    143.2212         0.001501   
    244. D(Au  6,Au  5,Au  4,Au  7)     62.3998         0.001501   
    245. D(Au  7,Au  5,Au  4,Au  0)     69.2103         0.001501   
    246. D(Au  7,Au  5,Au  4,Au 13)    -65.8920         0.001501   
    247. D(Au  6,Au  5,Au  4,Au 12)     70.8348         0.001501   
    248. D(Au  4,Au  5,Au  0,Fe 16)     52.6070         0.001502   
    249. D(Au  7,Au  5,Au  0,Fe 16)    -36.3488         0.001502   
    250. D(Au  0,Au  5,Au  4,Au  6)   -131.6101         0.001501   
    251. D(Au  6,Au  5,Au  0,Au  4)    -43.6244         0.001502   
    252. D(Au  0,Au  5,Au  4,Au  7)    -69.2103         0.001501   
    253. D(Au  6,Au  5,Au  4,Au 13)     -3.4922         0.001501   
    254. D(Au  7,Au  5,Au  0,Au  4)    -88.9559         0.001502   
    255. D(Au  7,Au  6,Au  5,Au  0)    -48.5343         0.001501   
    256. D(Au  7,Au  6,Au  4,Au  5)     61.8140         0.001501   
    257. D(Au  5,Au  6,Au  4,Au  0)    -39.9504         0.001501   
    258. D(Au 13,Au  6,Au  4,Au  7)    121.8538         0.001501   
    259. D(Au 13,Au  6,Au  4,Au 12)     37.2240         0.001501   
    260. D(Au 15,Au  6,Au  5,Au  0)    -22.3483         0.001501   
    261. D(Au  5,Au  6,Au  4,Au  1)    -90.1283         0.001501   
    262. D(Au 15,Au  6,Au  4,Fe 16)     31.0845         0.001501   
    263. D(Au  5,Au  6,Au  4,Au 12)   -146.4438         0.001501   
    264. D(Au  5,Au  6,Au  4,Au  7)    -61.8140         0.001501   
    265. D(Au  7,Au  6,Au  4,Fe 16)    -30.2773         0.001501   
    266. D(Au 15,Au  6,Au  4,Au  5)    123.1757         0.001501   
    267. D(Au 13,Au  6,Au  4,Au  5)   -176.3322         0.001501   
    268. D(Au 15,Au  6,Au  4,Au  7)     61.3618         0.001501   
    269. D(Au  7,Au  6,Au  4,Au 13)   -121.8538         0.001501   
    270. D(Au 13,Au  6,Au  4,Au  1)     93.5395         0.001501   
    271. D(Au 13,Au  6,Au  5,Au  0)     48.1180         0.001501   
    272. D(Au 13,Au  6,Au  5,Au  7)     96.6523         0.001501   
    273. D(Au 13,Au  6,Au  5,Au  4)      3.6518         0.001501   
    274. D(Au  7,Au  6,Au  4,Au 12)    -84.6298         0.001501   
    275. D(Au 15,Au  6,Au  5,Au  4)    -66.8145         0.001501   
    276. D(Au 13,Au  6,Au  4,Au  0)    143.7174         0.001501   
    277. D(Au 15,Au  6,Au  5,Au  7)     26.1860         0.001501   
    278. D(Au 13,Au  6,Au  4,Fe 16)     91.5766         0.001501   
    279. D(Au  5,Au  6,Au  4,Fe 16)    -92.0912         0.001501   
    280. D(Au  4,Au  6,Au  5,Au  0)     44.4662         0.001501   
    281. D(Au  7,Au  6,Au  5,Au  4)    -93.0005         0.001501   
    282. D(Au 15,Au  6,Au  4,Au  0)     83.2254         0.001501   
    283. D(Au  4,Au  6,Au  5,Au  7)     93.0005         0.001501   
    284. D(Au  5,Au  6,Au  4,Au 13)    176.3322         0.001501   
    285. D(Au 15,Au  6,Au  4,Au 13)    -60.4921         0.001501   
    286. D(Au 15,Au  6,Au  4,Au  1)     33.0475         0.001501   
    287. D(Au  7,Au  6,Au  4,Au  1)    -28.3143         0.001501   
    288. D(Au 15,Au  6,Au  4,Au 12)    -23.2680         0.001501   
    289. D(Au  7,Au  6,Au  4,Au  0)     21.8636         0.001501   
    290. D(Au  5,Au  7,Au  6,Au 15)   -152.7564         0.001501   
    291. D(Au  6,Au  7,Au  4,Au 13)     46.1665         0.001500   
    292. D(Au 15,Au  7,Au  6,Au  4)     90.7614         0.001501   
    293. D(Au  6,Au  7,Au  4,Au 12)    105.4331         0.001500   
    294. D(Au  6,Au  7,Au  4,Au  1)    164.9756         0.001500   
    295. D(Au  4,Au  7,Au  6,Au  5)     61.9950         0.001501   
    296. D(Au  5,Au  7,Au  6,Au 13)   -113.3898         0.001501   
    297. D(Fe 16,Au  7,Au  5,Au  4)    -31.1101         0.001502   
    298. D(Fe 16,Au  7,Au  5,Au  6)    -94.5828         0.001502   
    299. D(Au  4,Au  7,Au  5,Au  0)     65.4380         0.001502   
    300. D(Fe 16,Au  7,Au  6,Au 13)    -16.7822         0.001501   
    301. D(Fe 16,Au  7,Au  6,Au  4)     34.6126         0.001501   
    302. D(Au 15,Au  7,Au  5,Au  0)    103.1811         0.001502   
    303. D(Au  6,Au  7,Au  5,Au  0)    128.9107         0.001502   
    304. D(Au 15,Au  7,Au  5,Au  4)     37.7430         0.001502   
    305. D(Au  4,Au  7,Au  5,Au  6)    -63.4727         0.001502   
    306. D(Fe 16,Au  7,Au  6,Au  5)     96.6076         0.001501   
    307. D(Au  5,Au  7,Au  6,Au  4)    -61.9950         0.001501   
    308. D(Au  4,Au  7,Au  6,Au 15)    -90.7614         0.001501   
    309. D(Au 15,Au  7,Au  6,Au  5)    152.7564         0.001501   
    310. D(Au  6,Au  7,Au  4,Au  0)   -153.4990         0.001500   
    311. D(Au 15,Au  7,Au  4,Au  1)    100.0806         0.001500   
    312. D(Fe 16,Au  7,Au  4,Au  0)     68.4977         0.001500   
    313. D(Au 15,Au  7,Au  4,Au 13)    -18.7286         0.001500   
    314. D(Au 15,Au  7,Au  4,Au 12)     40.5381         0.001500   
    315. D(Au  5,Au  7,Au  4,Au  6)     79.3342         0.001500   
    316. D(Au  5,Au  7,Au  4,Au  1)   -115.6902         0.001500   
    317. D(Au 15,Au  7,Au  4,Au  0)    141.6060         0.001500   
    318. D(Au  5,Au  7,Au  4,Au 12)   -175.2327         0.001500   
    319. D(Au  6,Au  7,Au  5,Au  4)     63.4727         0.001502   
    320. D(Fe 16,Au  7,Au  4,Au  6)   -138.0033         0.001500   
    321. D(Au 15,Au  7,Au  5,Au  6)    -25.7296         0.001502   
    322. D(Au  5,Au  7,Au  4,Au  0)    -74.1648         0.001500   
    323. D(Au 15,Au  7,Au  4,Fe 16)     73.1082         0.001500   
    324. D(Au 15,Au  7,Au  4,Au  6)    -64.8950         0.001500   
    325. D(Au 15,Au  7,Au  4,Au  5)   -144.2292         0.001500   
    326. D(Au  5,Au  7,Au  4,Fe 16)   -142.6625         0.001500   
    327. D(Fe 16,Au  7,Au  4,Au  1)     26.9723         0.001500   
    328. D(Fe 16,Au  7,Au  4,Au 12)    -32.5702         0.001500   
    329. D(Fe 16,Au  7,Au  4,Au  5)    142.6625         0.001500   
    330. D(Fe 16,Au  7,Au  6,Au 15)    -56.1488         0.001501   
    331. D(Au  4,Au  7,Au  6,Au 13)    -51.3948         0.001501   
    332. D(Au  6,Au  7,Au  4,Fe 16)    138.0033         0.001500   
    333. D(Fe 16,Au  7,Au  5,Au  0)     34.3279         0.001502   
    334. D(Au  6,Au  7,Au  4,Au  5)    -79.3342         0.001500   
    335. D(Au 15,Au  7,Au  6,Au 13)     39.3665         0.001501   
    336. D(Au  5,Au  7,Au  4,Au 13)    125.5007         0.001500   
    337. D(Fe 16,Au  7,Au  4,Au 13)    -91.8368         0.001500   
    338. D(Au 15,Au  9,Au  0,Au  5)      6.5296         0.001500   
    339. D(Au 14,Au  9,Au  0,Au  4)      6.5275         0.001500   
    340. D(Au 14,Au  9,Au  0,Au  5)    -41.7285         0.001500   
    341. D(Au 15,Au  9,Au  0,Au  4)     54.7856         0.001500   
    342. D(Au 15,Au 11,Au  1,Au  4)    -33.0319         0.001500   
    343. D(Au 13,Au 12,Au  4,Fe 16)   -116.6769         0.001501   
    344. D(Au 15,Au 12,Au  4,Au  6)     19.1073         0.001501   
    345. D(Au 15,Au 12,Au  4,Fe 16)    -60.9153         0.001501   
    346. D(Au 13,Au 12,Au  4,Au  1)    174.8491         0.001501   
    347. D(Au 15,Au 12,Au  4,Au  5)    -37.9659         0.001501   
    348. D(Fe 16,Au 12,Au  4,Au 13)    116.6769         0.001501   
    349. D(Au 13,Au 12,Au  4,Au  0)   -142.4911         0.001501   
    350. D(Au 14,Au 12,Au  4,Au  1)   -159.3587         0.001501   
    351. D(Au 14,Au 12,Au  4,Au  5)    -67.9353         0.001501   
    352. D(Au 13,Au 12,Au  4,Au  6)    -36.6543         0.001501   
    353. D(Au 15,Au 12,Au  4,Au 13)     55.7616         0.001501   
    354. D(Au 15,Au 12,Au  4,Au  0)    -86.7295         0.001501   
    355. D(Au 15,Au 12,Au  4,Au  1)   -129.3893         0.001501   
    356. D(Au 14,Au 12,Au  4,Au 13)     25.7921         0.001501   
    357. D(Fe 16,Au 12,Au  4,Au  5)     22.9494         0.001501   
    358. D(Fe 16,Au 12,Au  4,Au  6)     80.0226         0.001501   
    359. D(Au 14,Au 12,Au  4,Au  6)    -10.8621         0.001501   
    360. D(Au 15,Au 12,Au  4,Au  7)    -31.4665         0.001501   
    361. D(Au 14,Au 12,Au  4,Fe 16)    -90.8847         0.001501   
    362. D(Au 14,Au 12,Au  4,Au  7)    -61.4359         0.001501   
    363. D(Fe 16,Au 12,Au  4,Au  7)     29.4488         0.001501   
    364. D(Au 13,Au 12,Au  4,Au  7)    -87.2281         0.001501   
    365. D(Au 14,Au 12,Au  4,Au  0)   -116.6989         0.001501   
    366. D(Au 13,Au 12,Au  4,Au  5)    -93.7275         0.001501   
    367. D(Fe 16,Au 12,Au  4,Au  1)    -68.4740         0.001501   
    368. D(Fe 16,Au 12,Au  4,Au  0)    -25.8142         0.001501   
    369. D(Au 14,Au 13,Au  6,Au  7)    -42.6032         0.001502   
    370. D(Au 15,Au 13,Au 12,Au 14)    -61.9899         0.001501   
    371. D(Au  6,Au 13,Au 12,Au  4)     39.3775         0.001501   
    372. D(Au  6,Au 13,Au 12,Au 15)    -51.4058         0.001501   
    373. D(Au  6,Au 13,Au 12,Au 14)   -113.3957         0.001501   
    374. D(Au  6,Au 13,Au 12,Fe 16)    -16.7736         0.001501   
    375. D(Au 15,Au 13,Au 12,Au  4)     90.7833         0.001501   
    376. D(Au 15,Au 13,Au 12,Fe 16)     34.6322         0.001501   
    377. D(Au 14,Au 13,Au 12,Au 15)     61.9899         0.001501   
    378. D(Au 14,Au 13,Au 12,Au  4)    152.7732         0.001501   
    379. D(Au  4,Au 13,Au 12,Au 15)    -90.7833         0.001501   
    380. D(Au  4,Au 13,Au 12,Au 14)   -152.7732         0.001501   
    381. D(Au  4,Au 13,Au 12,Fe 16)    -56.1511         0.001501   
    382. D(Au 15,Au 13,Au  6,Au  7)    -38.9508         0.001502   
    383. D(Au 15,Au 13,Au  6,Au  5)   -104.3069         0.001502   
    384. D(Au 15,Au 13,Au  6,Au  4)   -100.6686         0.001502   
    385. D(Au 14,Au 13,Au  6,Au 15)     -3.6523         0.001502   
    386. D(Au 14,Au 13,Au  6,Au  5)   -107.9592         0.001502   
    387. D(Au 14,Au 13,Au  6,Au  4)   -104.3209         0.001502   
    388. D(Au 12,Au 13,Au  6,Au 15)     61.7118         0.001502   
    389. D(Au 12,Au 13,Au  6,Au  7)     22.7610         0.001502   
    390. D(Au 12,Au 13,Au  6,Au  5)    -42.5950         0.001502   
    391. D(Au  4,Au 13,Au  6,Au 15)    100.6686         0.001502   
    392. D(Au  4,Au 13,Au  6,Au  5)     -3.6383         0.001502   
    393. D(Au  6,Au 13,Au  4,Au 12)   -137.3805         0.001501   
    394. D(Au  6,Au 13,Au  4,Au  0)    -66.8408         0.001501   
    395. D(Au 15,Au 13,Au  4,Au  7)     17.8053         0.001501   
    396. D(Au 14,Au 13,Au  4,Au  6)    111.6087         0.001501   
    397. D(Au 14,Au 13,Au  4,Au  5)    115.1285         0.001501   
    398. D(Au 12,Au 13,Au  4,Au  6)    137.3805         0.001501   
    399. D(Au 12,Au 13,Au  4,Fe 16)     47.5227         0.001501   
    400. D(Au 12,Au 13,Au  4,Au  5)    140.9003         0.001501   
    401. D(Au 14,Au 13,Au  4,Au  1)    -30.7861         0.001501   
    402. D(Au 14,Au 13,Au  4,Fe 16)     21.7509         0.001501   
    403. D(Au 14,Au 13,Au  4,Au 12)    -25.7718         0.001501   
    404. D(Au 14,Au 13,Au  4,Au  7)     70.6398         0.001501   
    405. D(Au 15,Au 13,Au  4,Au  1)    -83.6206         0.001501   
    406. D(Au 15,Au 13,Au  4,Au  5)     62.2941         0.001501   
    407. D(Au 15,Au 13,Au  4,Au  0)     -8.0666         0.001501   
    408. D(Au 15,Au 13,Au  4,Fe 16)    -31.0836         0.001501   
    409. D(Au 15,Au 13,Au  4,Au 12)    -78.6063         0.001501   
    410. D(Au  6,Au 13,Au  4,Au  1)   -142.3948         0.001501   
    411. D(Au 14,Au 13,Au 12,Fe 16)     96.6222         0.001501   
    412. D(Au 12,Au 13,Au  4,Au  0)     70.5397         0.001501   
    413. D(Au  6,Au 13,Au  4,Au  5)      3.5198         0.001501   
    414. D(Au 12,Au 13,Au  4,Au  1)     -5.0143         0.001501   
    415. D(Au  6,Au 13,Au  4,Fe 16)    -89.8578         0.001501   
    416. D(Au  6,Au 13,Au  4,Au  7)    -40.9689         0.001501   
    417. D(Au 15,Au 13,Au  4,Au  6)     58.7742         0.001501   
    418. D(Au 12,Au 13,Au  6,Au  4)    -38.9568         0.001502   
    419. D(Au  4,Au 13,Au  6,Au  7)     61.7178         0.001502   
    420. D(Au 14,Au 13,Au  4,Au  0)     44.7679         0.001501   
    421. D(Au 12,Au 13,Au  4,Au  7)     96.4116         0.001501   
    422. D(Au 15,Au 14,Au 13,Au 12)    -93.0153         0.001501   
    423. D(Au 12,Au 14,Au 13,Au  4)     26.1757         0.001501   
    424. D(Au 12,Au 14,Au  9,Au 15)    -88.9666         0.001502   
    425. D(Au  9,Au 14,Au 13,Au 12)    -48.5638         0.001501   
    426. D(Au  9,Au 14,Au 13,Au  4)    -22.3881         0.001501   
    427. D(Au  9,Au 14,Au 12,Au  4)    103.1779         0.001502   
    428. D(Au 15,Au 14,Au 12,Au 13)     63.4567         0.001502   
    429. D(Au 15,Au 14,Au 12,Au  4)     37.7506         0.001502   
    430. D(Au 15,Au 14,Au 12,Fe 16)    -31.0970         0.001502   
    431. D(Au  9,Au 14,Au 12,Au 13)    128.8840         0.001502   
    432. D(Au  9,Au 14,Au 12,Au 15)     65.4273         0.001502   
    433. D(Au 13,Au 14,Au 12,Au 15)    -63.4567         0.001502   
    434. D(Au  9,Au 14,Au 12,Fe 16)     34.3303         0.001502   
    435. D(Au 13,Au 14,Au  9,Au 15)    -43.6081         0.001502   
    436. D(Au 13,Au 14,Au  9,Fe 16)      9.0103         0.001502   
    437. D(Au 13,Au 14,Au 12,Au  4)    -25.7061         0.001502   
    438. D(Au 15,Au 14,Au  9,Fe 16)     52.6184         0.001502   
    439. D(Au 12,Au 14,Au 13,Au 15)     93.0153         0.001501   
    440. D(Au  9,Au 14,Au 13,Au  6)     48.1182         0.001501   
    441. D(Au 12,Au 14,Au  9,Fe 16)    -36.3482         0.001502   
    442. D(Au 12,Au 14,Au 13,Au  6)     96.6820         0.001501   
    443. D(Au 13,Au 14,Au 12,Fe 16)    -94.5537         0.001502   
    444. D(Au  9,Au 14,Au 13,Au 15)     44.4515         0.001501   
    445. D(Au 15,Au 14,Au 13,Au  6)      3.6668         0.001501   
    446. D(Au 15,Au 14,Au 13,Au  4)    -66.8396         0.001501   
    447. D(Au 14,Au 15,Au  6,Au 13)      3.5334         0.001501   
    448. D(Au 12,Au 15,Au  6,Au 13)    -40.9593         0.001501   
    449. D(Au 11,Au 15,Au  6,Au 13)   -142.3996         0.001501   
    450. D(Au 11,Au 15,Au  6,Au  4)    -83.6436         0.001501   
    451. D(Au  9,Au 15,Au  6,Au 13)    -66.8487         0.001501   
    452. D(Au  7,Au 15,Au  6,Au 13)   -137.3685         0.001501   
    453. D(Au  7,Au 15,Au  6,Au  4)    -78.6124         0.001501   
    454. D(Au  7,Au 15,Au  6,Au  5)    -25.7883         0.001501   
    455. D(Au  9,Au 15,Au  6,Au  5)     44.7315         0.001501   
    456. D(Au  9,Au 15,Au  6,Au  7)     70.5198         0.001501   
    457. D(Au  9,Au 15,Au  6,Au  4)     -8.0926         0.001501   
    458. D(Au 11,Au 15,Au  6,Au  7)     -5.0312         0.001501   
    459. D(Au 11,Au 15,Au  6,Au  5)    -30.8195         0.001501   
    460. D(Au 12,Au 15,Au  6,Au  5)     70.6209         0.001501   
    461. D(Au 12,Au 15,Au  6,Au  4)     17.7968         0.001501   
    462. D(Au 12,Au 15,Au  6,Au  7)     96.4092         0.001501   
    463. D(Fe 16,Au 15,Au  6,Au  4)    -31.0983         0.001501   
    464. D(Fe 16,Au 15,Au  6,Au  5)     21.7258         0.001501   
    465. D(Fe 16,Au 15,Au  6,Au  7)     47.5141         0.001501   
    466. D(Au 14,Au 15,Au  6,Au  7)    140.9019         0.001501   
    467. D(Au  6,Au 15,Au 14,Au 13)     -3.5054         0.001501   
    468. D(Au  6,Au 15,Au 14,Au 12)    -65.9104         0.001501   
    469. D(Au  6,Au 15,Au 14,Au  9)   -135.1285         0.001501   
    470. D(Au 13,Au 15,Au 14,Au 12)    -62.4050         0.001501   
    471. D(Fe 16,Au 15,Au 14,Au 13)     89.6111         0.001501   
    472. D(Fe 16,Au 15,Au 14,Au 12)     27.2060         0.001501   
    473. D(Fe 16,Au 15,Au 14,Au  9)    -42.0121         0.001501   
    474. D(Au 12,Au 15,Au 14,Au  9)    -69.2181         0.001501   
    475. D(Au 11,Au 15,Au 14,Au 13)    143.2156         0.001501   
    476. D(Au 11,Au 15,Au 14,Au 12)     80.8105         0.001501   
    477. D(Au  9,Au 15,Au 14,Au 13)    131.6232         0.001501   
    478. D(Au  9,Au 15,Au 14,Au 12)     69.2181         0.001501   
    479. D(Au  7,Au 15,Au 14,Au 13)     70.8273         0.001501   
    480. D(Au  7,Au 15,Au 14,Au 12)      8.4223         0.001501   
    481. D(Au  7,Au 15,Au 14,Au  9)    -60.7959         0.001501   
    482. D(Au  6,Au 15,Au 13,Au 14)    176.3188         0.001501   
    483. D(Au  6,Au 15,Au 13,Au 12)   -121.8821         0.001501   
    484. D(Au 14,Au 15,Au  6,Au  5)    115.1136         0.001501   
    485. D(Fe 16,Au 15,Au 13,Au  6)     91.5830         0.001501   
    486. D(Fe 16,Au 15,Au 13,Au 14)    -92.0982         0.001501   
    487. D(Fe 16,Au 15,Au 13,Au 12)    -30.2991         0.001501   
    488. D(Au 14,Au 15,Au 13,Au  6)   -176.3188         0.001501   
    489. D(Au 14,Au 15,Au 13,Au 12)     61.7991         0.001501   
    490. D(Au 14,Au 15,Au 13,Au  4)    123.1696         0.001501   
    491. D(Au 12,Au 15,Au 13,Au 14)    -61.7991         0.001501   
    492. D(Au 12,Au 15,Au 13,Au  4)     61.3704         0.001501   
    493. D(Au 11,Au 15,Au 13,Au  6)     93.5105         0.001501   
    494. D(Au 11,Au 15,Au 13,Au 14)    -90.1707         0.001501   
    495. D(Au 11,Au 15,Au 13,Au 12)    -28.3716         0.001501   
    496. D(Au 11,Au 15,Au 13,Au  4)     32.9988         0.001501   
    497. D(Au  9,Au 15,Au 13,Au  6)    143.7353         0.001501   
    498. D(Au  9,Au 15,Au 13,Au 12)     21.8533         0.001501   
    499. D(Au  9,Au 15,Au 13,Au  4)     83.2237         0.001501   
    500. D(Au  7,Au 15,Au 13,Au  6)     37.2294         0.001501   
    501. D(Au  7,Au 15,Au 13,Au 12)    -84.6527         0.001501   
    502. D(Au  7,Au 15,Au 13,Au  4)    -23.2822         0.001501   
    503. D(Au  6,Au 15,Au 12,Au 13)     46.1497         0.001500   
    504. D(Au  6,Au 15,Au 12,Au 14)    125.4967         0.001500   
    505. D(Au  6,Au 15,Au 12,Fe 16)    -91.8243         0.001500   
    506. D(Au 13,Au 15,Au 12,Au  4)    -64.8714         0.001500   
    507. D(Au 13,Au 15,Au 12,Fe 16)   -137.9740         0.001500   
    508. D(Fe 16,Au 15,Au 12,Au 13)    137.9740         0.001500   
    509. D(Fe 16,Au 15,Au 12,Au  4)     73.1026         0.001500   
    510. D(Au 11,Au 15,Au  7,Au  5)   -159.3589         0.001501   
    511. D(Au 14,Au 15,Au 12,Fe 16)    142.6790         0.001500   
    512. D(Au 11,Au 15,Au  7,Au  6)    174.8305         0.001501   
    513. D(Au 12,Au 15,Au  7,Au  5)    -61.4375         0.001501   
    514. D(Au 11,Au 15,Au 12,Fe 16)     26.9727         0.001500   
    515. D(Au  9,Au 15,Au 12,Au 13)   -153.5158         0.001500   
    516. D(Au  9,Au 15,Au 12,Fe 16)     68.5101         0.001500   
    517. D(Au  7,Au 15,Au 12,Au 14)   -175.2404         0.001500   
    518. D(Au  7,Au 15,Au 12,Fe 16)    -32.5613         0.001500   
    519. D(Fe 16,Au 15,Au  7,Au  4)    -60.9147         0.001501   
    520. D(Au 12,Au 15,Au 11,Fe 16)    -24.1609         0.001502   
    521. D(Au 13,Au 15,Au  7,Au  6)    -36.6630         0.001501   
    522. D(Au  6,Au 15,Au  9,Fe 16)    -29.3503         0.001501   
    523. D(Au 14,Au 15,Au 11,Fe 16)    -74.4198         0.001502   
    524. D(Au 13,Au 15,Au  9,Fe 16)    -82.1800         0.001501   
    525. D(Au 14,Au 15,Au  9,Fe 16)   -122.9491         0.001501   
    526. D(Au 12,Au 15,Au  9,Au 14)     61.3361         0.001501   
    527. D(Au 11,Au 15,Au  9,Au 14)   -167.9060         0.001501   
    528. D(Au 11,Au 15,Au  9,Fe 16)     69.1449         0.001501   
    529. D(Au  7,Au 15,Au 12,Au  4)     40.5413         0.001500   
    530. D(Au  7,Au 15,Au  9,Au 14)    149.7556         0.001501   
    531. D(Au  7,Au 15,Au  9,Fe 16)     26.8065         0.001501   
    532. D(Au 12,Au 15,Au  9,Fe 16)    -61.6129         0.001501   
    533. D(Au  6,Au 15,Au  7,Au  4)     55.7774         0.001501   
    534. D(Fe 16,Au 15,Au  9,Au 14)    122.9491         0.001501   
    535. D(Au  6,Au 15,Au  7,Au  5)     25.8106         0.001501   
    536. D(Au  6,Au 15,Au  7,Fe 16)    116.6921         0.001501   
    537. D(Au  6,Au 15,Au  9,Au 14)     93.5988         0.001501   
    538. D(Au 13,Au 15,Au  9,Au 14)     40.7690         0.001501   
    539. D(Au  6,Au 15,Au 12,Au  4)    -18.7217         0.001500   
    540. D(Au 13,Au 15,Au  7,Au  4)     19.1144         0.001501   
    541. D(Au  7,Au 15,Au 11,Fe 16)     66.7975         0.001502   
    542. D(Au 13,Au 15,Au  7,Au  5)    -10.8524         0.001501   
    543. D(Au  7,Au 15,Au 13,Au 14)   -146.4518         0.001501   
    544. D(Au 13,Au 15,Au  7,Fe 16)     80.0291         0.001501   
    545. D(Fe 16,Au 15,Au  7,Au  6)   -116.6921         0.001501   
    546. D(Au 13,Au 15,Au 11,Fe 16)     -2.3083         0.001502   
    547. D(Au  9,Au 15,Au 13,Au 14)    -39.9459         0.001501   
    548. D(Au  6,Au 15,Au 11,Fe 16)     71.8455         0.001502   
    549. D(Fe 16,Au 15,Au  7,Au  5)    -90.8815         0.001501   
    550. D(Au  9,Au 15,Au 11,Fe 16)    -63.1140         0.001502   
    551. D(Au 14,Au 15,Au  7,Au  6)    -93.7373         0.001501   
    552. D(Au 14,Au 15,Au  7,Au  4)    -37.9600         0.001501   
    553. D(Au 14,Au 15,Au  7,Au  5)    -67.9268         0.001501   
    554. D(Au 14,Au 15,Au  7,Fe 16)     22.9547         0.001501   
    555. D(Au 12,Au 15,Au 13,Au  6)    121.8821         0.001501   
    556. D(Au  7,Au 15,Au 12,Au 13)    105.4127         0.001500   
    557. D(Au 12,Au 15,Au  7,Au  6)    -87.2481         0.001501   
    558. D(Au 12,Au 15,Au  7,Au  4)    -31.4707         0.001501   
    559. D(Fe 16,Au 15,Au 13,Au  4)     31.0713         0.001501   
    560. D(Au  9,Au 15,Au 12,Au  4)    141.6127         0.001500   
    561. D(Au 11,Au 15,Au 12,Au 14)   -115.7064         0.001500   
    562. D(Au 12,Au 15,Au  7,Fe 16)     29.4440         0.001501   
    563. D(Au  6,Au 15,Au 13,Au  4)    -60.5117         0.001501   
    564. D(Au  9,Au 15,Au 12,Au 14)    -74.1689         0.001500   
    565. D(Au 11,Au 15,Au 12,Au 13)    164.9467         0.001500   
    566. D(Au 11,Au 15,Au  7,Au  4)   -129.3921         0.001501   
    567. D(Au 14,Au 15,Au 12,Au 13)    -79.3470         0.001500   
    568. D(Au 11,Au 15,Au  7,Fe 16)    -68.4774         0.001501   
    569. D(Au 14,Au 15,Au 12,Au  4)   -144.2184         0.001500   
    570. D(Au 11,Au 15,Au 12,Au  4)    100.0753         0.001500   
    571. D(Au 11,Au 15,Au 14,Au  9)     11.5924         0.001501   
    572. D(Au  9,Au 15,Au  7,Au  6)   -142.5192         0.001501   
    573. D(Au  9,Au 15,Au  7,Au  4)    -86.7418         0.001501   
    574. D(Au  9,Au 15,Au  7,Au  5)   -116.7086         0.001501   
    575. D(Au 12,Au 15,Au 14,Au 13)     62.4050         0.001501   
    576. D(Au  9,Au 15,Au  7,Fe 16)    -25.8271         0.001501   
    577. D(Fe 16,Au 15,Au 12,Au 14)   -142.6790         0.001500   
    578. D(Au 13,Au 15,Au  6,Au  7)    137.3685         0.001501   
    579. D(Au 13,Au 15,Au 14,Au  9)   -131.6232         0.001501   
    580. D(Au 13,Au 15,Au  6,Au  5)    111.5802         0.001501   
    581. D(Au 13,Au 15,Au  6,Au  4)     58.7561         0.001501   
    582. D(Fe 16,Au 15,Au  6,Au 13)    -89.8544         0.001501   
    583. D(Au 13,Au 15,Au 12,Au 14)     79.3470         0.001500   
    584. D(Au 14,Au 15,Au  6,Au  4)     62.2895         0.001501   
    585. D(Au 15,Fe 16,Au  7,Au  6)     51.3712         0.001514   
    586. D(Au 15,Fe 16,Au  7,Au  4)     83.6617         0.001514   
    587. D(Au 15,Fe 16,Au  7,Au  5)    112.3151         0.001514   
    588. D(Au  4,Fe 16,Au  7,Au 15)    -83.6617         0.001514   
    589. D(Au  4,Fe 16,Au  7,Au  5)     28.6535         0.001514   
    590. D(Au 12,Fe 16,Au  7,Au  6)      6.2600         0.001514   
    591. D(Au 12,Fe 16,Au  7,Au  4)     38.5505         0.001514   
    592. D(Au 12,Fe 16,Au  7,Au  5)     67.2040         0.001514   
    593. D(Au 11,Fe 16,Au  7,Au  6)    117.8554         0.001514   
    594. D(Au 11,Fe 16,Au  7,Au 15)     66.4842         0.001514   
    595. D(Au 11,Fe 16,Au  7,Au  4)    150.1459         0.001514   
    596. D(Au 11,Fe 16,Au  7,Au  5)    178.7994         0.001514   
    597. D(Au  9,Fe 16,Au  7,Au  6)     81.0498         0.001514   
    598. D(Au  9,Fe 16,Au  7,Au  4)    113.3404         0.001514   
    599. D(Au  9,Fe 16,Au  7,Au  5)    141.9938         0.001514   
    600. D(Au  8,Fe 16,Au  7,Au  6)    149.9545         0.001514   
    601. D(Au  8,Fe 16,Au  7,Au  4)   -177.7549         0.001514   
    602. D(Au  8,Fe 16,Au  7,Au  5)   -149.1015         0.001514   
    603. D(Au  3,Fe 16,Au  7,Au  6)   -168.9772         0.001514   
    604. D(Au  3,Fe 16,Au  7,Au  4)   -136.6867         0.001514   
    605. D(Au  3,Fe 16,Au  7,Au  5)   -108.0332         0.001514   
    606. D(Au  2,Fe 16,Au  7,Au  6)   -135.9793         0.001514   
    607. D(Au  2,Fe 16,Au  7,Au 15)    172.6495         0.001514   
    608. D(Au  2,Fe 16,Au  7,Au  4)   -103.6888         0.001514   
    609. D(Au  2,Fe 16,Au  7,Au  5)    -75.0353         0.001514   
    610. D(Au  1,Fe 16,Au  7,Au  6)    -63.5097         0.001514   
    611. D(Au  1,Fe 16,Au  7,Au  4)    -31.2192         0.001514   
    612. D(Au  1,Fe 16,Au  7,Au  5)     -2.5657         0.001514   
    613. D(Au  0,Fe 16,Au  7,Au  6)    -96.0461         0.001514   
    614. D(Au  0,Fe 16,Au  7,Au  4)    -63.7555         0.001514   
    615. D(Au  0,Fe 16,Au  7,Au  5)    -35.1021         0.001514   
    616. D(Au 15,Fe 16,Au  4,Au  6)    -28.7882         0.001502   
    617. D(Au 15,Fe 16,Au  4,Au 12)     79.6364         0.001502   
    618. D(Au 15,Fe 16,Au  4,Au  7)    -59.8855         0.001502   
    619. D(Au 15,Fe 16,Au  4,Au  5)    -87.6578         0.001502   
    620. D(Au 15,Fe 16,Au  4,Au  1)    152.4778         0.001502   
    621. D(Au 15,Fe 16,Au  4,Au  0)   -132.6237         0.001502   
    622. D(Au 12,Fe 16,Au  4,Au  6)   -108.4246         0.001502   
    623. D(Au 12,Fe 16,Au  4,Au 13)    -50.2896         0.001502   
    624. D(Au 12,Fe 16,Au  4,Au  5)   -167.2942         0.001502   
    625. D(Au 12,Fe 16,Au  4,Au  1)     72.8414         0.001502   
    626. D(Au 12,Fe 16,Au  4,Au  0)    147.7399         0.001502   
    627. D(Au 11,Fe 16,Au  4,Au 13)     57.3885         0.001502   
    628. D(Au 11,Fe 16,Au  4,Au 12)    107.6781         0.001502   
    629. D(Au 11,Fe 16,Au  4,Au  7)    -31.8438         0.001502   
    630. D(Au 11,Fe 16,Au  4,Au  1)   -179.4804         0.001502   
    631. D(Au 11,Fe 16,Au  4,Au  0)   -104.5820         0.001502   
    632. D(Au 10,Fe 16,Au  4,Au  6)   -145.4118         0.001502   
    633. D(Au 10,Fe 16,Au  4,Au 13)    -87.2768         0.001502   
    634. D(Au 10,Fe 16,Au  4,Au 12)    -36.9872         0.001502   
    635. D(Au 10,Fe 16,Au  4,Au  7)   -176.5091         0.001502   
    636. D(Au 10,Fe 16,Au  4,Au  5)    155.7186         0.001502   
    637. D(Au 10,Fe 16,Au  4,Au  0)    110.7527         0.001502   
    638. D(Au  9,Fe 16,Au  4,Au  6)    -74.4989         0.001502   
    639. D(Au  9,Fe 16,Au  4,Au 13)    -16.3639         0.001502   
    640. D(Au  9,Fe 16,Au  4,Au  7)   -105.5962         0.001502   
    641. D(Au  9,Fe 16,Au  4,Au  5)   -133.3685         0.001502   
    642. D(Au  9,Fe 16,Au  4,Au  1)    106.7671         0.001502   
    643. D(Au  8,Fe 16,Au  4,Au  6)   -164.0542         0.001502   
    644. D(Au  8,Fe 16,Au  4,Au 13)   -105.9193         0.001502   
    645. D(Au  8,Fe 16,Au  4,Au 12)    -55.6297         0.001502   
    646. D(Au  8,Fe 16,Au  4,Au  7)    164.8484         0.001502   
    647. D(Au  8,Fe 16,Au  4,Au  5)    137.0761         0.001502   
    648. D(Au  8,Fe 16,Au  4,Au  1)     17.2118         0.001502   
    649. D(Au  8,Fe 16,Au  4,Au  0)     92.1102         0.001502   
    650. D(Au  7,Fe 16,Au  4,Au  6)     31.0973         0.001502   
    651. D(Au  9,Fe 16,Au  4,Au  0)   -178.3344         0.001502   
    652. D(Au  7,Fe 16,Au  4,Au 13)     89.2323         0.001502   
    653. D(Au  7,Fe 16,Au  4,Au 12)    139.5219         0.001502   
    654. D(Au  7,Fe 16,Au  4,Au  5)    -27.7723         0.001502   
    655. D(Au  9,Fe 16,Au  4,Au 12)     33.9257         0.001502   
    656. D(Au  7,Fe 16,Au  4,Au  1)   -147.6367         0.001502   
    657. D(Au  7,Fe 16,Au  4,Au  0)    -72.7382         0.001502   
    658. D(Au  3,Fe 16,Au  4,Au  6)     74.9321         0.001502   
    659. D(Au 10,Fe 16,Au  4,Au  1)     35.8542         0.001502   
    660. D(Au  3,Fe 16,Au  4,Au 13)    133.0670         0.001502   
    661. D(Au  3,Fe 16,Au  4,Au 12)   -176.6434         0.001502   
    662. D(Au  3,Fe 16,Au  4,Au  7)     43.8347         0.001502   
    663. D(Au  3,Fe 16,Au  4,Au  5)     16.0624         0.001502   
    664. D(Au  3,Fe 16,Au  4,Au  1)   -103.8019         0.001502   
    665. D(Au  3,Fe 16,Au  4,Au  0)    -28.9035         0.001502   
    666. D(Au  2,Fe 16,Au  4,Au  6)    145.3451         0.001502   
    667. D(Au 11,Fe 16,Au  4,Au  5)    -59.6161         0.001502   
    668. D(Au  2,Fe 16,Au  4,Au 13)   -156.5200         0.001502   
    669. D(Au  2,Fe 16,Au  4,Au 12)   -106.2304         0.001502   
    670. D(Au  2,Fe 16,Au  4,Au  7)    114.2477         0.001502   
    671. D(Au 11,Fe 16,Au  4,Au  6)     -0.7464         0.001502   
    672. D(Au  2,Fe 16,Au  4,Au  5)     86.4755         0.001502   
    673. D(Au  2,Fe 16,Au  4,Au  1)    -33.3889         0.001502   
    674. D(Au  2,Fe 16,Au  4,Au  0)     41.5095         0.001502   
    675. D(Au 12,Fe 16,Au  4,Au  7)   -139.5219         0.001502   
    676. D(Au  1,Fe 16,Au  4,Au  6)    178.7340         0.001502   
    677. D(Au  1,Fe 16,Au  4,Au 13)   -123.1311         0.001502   
    678. D(Au  1,Fe 16,Au  4,Au 12)    -72.8414         0.001502   
    679. D(Au  1,Fe 16,Au  4,Au  7)    147.6367         0.001502   
    680. D(Au  1,Fe 16,Au  4,Au  5)    119.8644         0.001502   
    681. D(Au  1,Fe 16,Au  4,Au  0)     74.8985         0.001502   
    682. D(Au  0,Fe 16,Au  4,Au  6)    103.8355         0.001502   
    683. D(Au 15,Fe 16,Au  4,Au 13)     29.3468         0.001502   
    684. D(Au  0,Fe 16,Au  4,Au 13)    161.9705         0.001502   
    685. D(Au  0,Fe 16,Au  4,Au 12)   -147.7399         0.001502   
    686. D(Au  0,Fe 16,Au  4,Au  7)     72.7382         0.001502   
    687. D(Au  0,Fe 16,Au  7,Au 15)   -147.4172         0.001514   
    688. D(Au  0,Fe 16,Au  4,Au  5)     44.9659         0.001502   
    689. D(Au  0,Fe 16,Au  4,Au  1)    -74.8985         0.001502   
    690. D(Au 15,Fe 16,Au  1,Au  4)    -33.4883         0.001511   
    691. D(Au  1,Fe 16,Au  7,Au 15)   -114.8809         0.001514   
    692. D(Au 12,Fe 16,Au  1,Au  4)    -69.5446         0.001511   
    693. D(Au 10,Fe 16,Au  1,Au  4)   -141.2858         0.001511   
    694. D(Au  9,Fe 16,Au  1,Au  4)   -105.1381         0.001511   
    695. D(Au  8,Fe 16,Au  1,Au  4)   -177.3936         0.001511   
    696. D(Au  7,Fe 16,Au  1,Au  4)     37.0372         0.001511   
    697. D(Au  3,Fe 16,Au  1,Au  4)    108.6874         0.001511   
    698. D(Au  2,Fe 16,Au  1,Au  4)    143.9596         0.001511   
    699. D(Au  3,Fe 16,Au  7,Au 15)    139.6516         0.001514   
    700. D(Au  0,Fe 16,Au  1,Au  4)     71.1940         0.001511   
    701. D(Au 15,Fe 16,Au  0,Au  4)     53.3506         0.001526   
    702. D(Au 15,Fe 16,Au  0,Au  5)      5.2923         0.001526   
    703. D(Au  8,Fe 16,Au  7,Au 15)     98.5834         0.001514   
    704. D(Au  4,Fe 16,Au  0,Au  5)    -48.0584         0.001526   
    705. D(Au 12,Fe 16,Au  0,Au  4)    -28.8764         0.001526   
    706. D(Au 12,Fe 16,Au  0,Au  5)    -76.9348         0.001526   
    707. D(Au  9,Fe 16,Au  7,Au 15)     29.6787         0.001514   
    708. D(Au 11,Fe 16,Au  0,Au  4)    117.0442         0.001526   
    709. D(Au 11,Fe 16,Au  0,Au  5)     68.9858         0.001526   
    710. D(Au 10,Fe 16,Au  0,Au  4)    -96.8743         0.001526   
    711. D(Au 10,Fe 16,Au  0,Au  5)   -144.9327         0.001526   
    712. D(Au  8,Fe 16,Au  0,Au  4)   -170.8893         0.001526   
    713. D(Au  8,Fe 16,Au  0,Au  5)    141.0523         0.001526   
    714. D(Au  7,Fe 16,Au  0,Au  4)     84.0842         0.001526   
    715. D(Au 12,Fe 16,Au  7,Au 15)    -45.1112         0.001514   
    716. D(Au  7,Fe 16,Au  0,Au  5)     36.0258         0.001526   
    717. D(Au  3,Fe 16,Au  0,Au  4)    152.2899         0.001526   
    718. D(Au  3,Fe 16,Au  0,Au  5)    104.2316         0.001526   
    719. D(Au  4,Fe 16,Au  7,Au  6)    -32.2905         0.001514   
    720. D(Au  2,Fe 16,Au  0,Au  4)   -135.4941         0.001526   
    721. D(Au  2,Fe 16,Au  0,Au  5)    176.4476         0.001526   
    722. D(Au  1,Fe 16,Au  0,Au  4)    -64.6027         0.001526   
    723. D(Au  1,Fe 16,Au  9,Au 14)     68.9575         0.001526   
    724. D(Au  1,Fe 16,Au  0,Au  5)   -112.6611         0.001526   
    725. D(Au  4,Fe 16,Au 15,Au  6)     29.3668         0.001502   
    726. D(Au  4,Fe 16,Au 15,Au 13)    -28.7701         0.001502   
    727. D(Au  4,Fe 16,Au 15,Au 12)    -59.8908         0.001502   
    728. D(Au  4,Fe 16,Au 15,Au 11)    152.4731         0.001502   
    729. D(Au  4,Fe 16,Au 15,Au  9)   -132.6259         0.001502   
    730. D(Au  4,Fe 16,Au 15,Au  7)     79.6433         0.001502   
    731. D(Au 12,Fe 16,Au 15,Au  6)     89.2576         0.001502   
    732. D(Au 12,Fe 16,Au 15,Au 13)     31.1207         0.001502   
    733. D(Au 12,Fe 16,Au 15,Au 14)    -27.7587         0.001502   
    734. D(Au 12,Fe 16,Au 15,Au  9)    -72.7351         0.001502   
    735. D(Au 12,Fe 16,Au 15,Au  7)    139.5341         0.001502   
    736. D(Au 11,Fe 16,Au 15,Au  6)   -123.1063         0.001502   
    737. D(Au 11,Fe 16,Au 15,Au 14)    119.8774         0.001502   
    738. D(Au 11,Fe 16,Au 15,Au 12)    147.6361         0.001502   
    739. D(Au 11,Fe 16,Au 15,Au  9)     74.9010         0.001502   
    740. D(Au 10,Fe 16,Au 15,Au  6)    133.0887         0.001502   
    741. D(Au 10,Fe 16,Au 15,Au 13)     74.9518         0.001502   
    742. D(Au 10,Fe 16,Au 15,Au 14)     16.0724         0.001502   
    743. D(Au 10,Fe 16,Au 15,Au 12)     43.8311         0.001502   
    744. D(Au 10,Fe 16,Au 15,Au 11)   -103.8050         0.001502   
    745. D(Au 10,Fe 16,Au 15,Au  9)    -28.9040         0.001502   
    746. D(Au 10,Fe 16,Au 15,Au  7)   -176.6348         0.001502   
    747. D(Au  9,Fe 16,Au 15,Au 13)    103.8558         0.001502   
    748. D(Au  9,Fe 16,Au 15,Au 14)     44.9764         0.001502   
    749. D(Au  9,Fe 16,Au 15,Au 12)     72.7351         0.001502   
    750. D(Au  9,Fe 16,Au 15,Au  7)   -147.7308         0.001502   
    751. D(Au  8,Fe 16,Au 15,Au  6)   -156.5121         0.001502   
    752. D(Au  8,Fe 16,Au 15,Au 13)    145.3510         0.001502   
    753. D(Au  8,Fe 16,Au 15,Au 12)    114.2303         0.001502   
    754. D(Au  8,Fe 16,Au 15,Au 11)    -33.4058         0.001502   
    755. D(Au  8,Fe 16,Au 15,Au  9)     41.4953         0.001502   
    756. D(Au  8,Fe 16,Au 15,Au  7)   -106.2355         0.001502   
    757. D(Au  7,Fe 16,Au 15,Au  6)    -50.2765         0.001502   
    758. D(Au  7,Fe 16,Au 15,Au 13)   -108.4134         0.001502   
    759. D(Au  7,Fe 16,Au 15,Au 14)   -167.2929         0.001502   
    760. D(Au  7,Fe 16,Au 15,Au 11)     72.8298         0.001502   
    761. D(Au  7,Fe 16,Au 15,Au  9)    147.7308         0.001502   
    762. D(Au  3,Fe 16,Au 15,Au  6)    -87.2554         0.001502   
    763. D(Au  3,Fe 16,Au 15,Au 14)    155.7283         0.001502   
    764. D(Au  3,Fe 16,Au 15,Au 12)   -176.5130         0.001502   
    765. D(Au  3,Fe 16,Au 15,Au 11)     35.8509         0.001502   
    766. D(Au  3,Fe 16,Au 15,Au  7)    -36.9789         0.001502   
    767. D(Au  2,Fe 16,Au 15,Au  6)   -105.9549         0.001502   
    768. D(Au  2,Fe 16,Au 15,Au 13)   -164.0918         0.001502   
    769. D(Au  2,Fe 16,Au 15,Au 14)    137.0287         0.001502   
    770. D(Au  2,Fe 16,Au 15,Au 12)    164.7875         0.001502   
    771. D(Au  2,Fe 16,Au 15,Au 11)     17.1514         0.001502   
    772. D(Au  2,Fe 16,Au 15,Au  9)     92.0524         0.001502   
    773. D(Au  1,Fe 16,Au 15,Au  6)     57.3971         0.001502   
    774. D(Au  1,Fe 16,Au 15,Au 13)     -0.7398         0.001502   
    775. D(Au  1,Fe 16,Au 15,Au 14)    -59.6192         0.001502   
    776. D(Au  1,Fe 16,Au 15,Au 11)   -179.4966         0.001502   
    777. D(Au  1,Fe 16,Au 15,Au  9)   -104.5956         0.001502   
    778. D(Au  1,Fe 16,Au 15,Au  7)    107.6736         0.001502   
    779. D(Au  0,Fe 16,Au 15,Au 13)    -74.4987         0.001502   
    780. D(Au  0,Fe 16,Au 15,Au 14)   -133.3782         0.001502   
    781. D(Au  0,Fe 16,Au 15,Au 12)   -105.6194         0.001502   
    782. D(Au  0,Fe 16,Au 15,Au 11)    106.7445         0.001502   
    783. D(Au  0,Fe 16,Au 15,Au  9)   -178.3545         0.001502   
    784. D(Au  0,Fe 16,Au 15,Au  7)     33.9147         0.001502   
    785. D(Au 15,Fe 16,Au 12,Au 13)    -32.3018         0.001514   
    786. D(Au 15,Fe 16,Au 12,Au  4)    -83.6639         0.001514   
    787. D(Au 15,Fe 16,Au 12,Au 14)     28.6388         0.001514   
    788. D(Au  4,Fe 16,Au 12,Au 13)     51.3621         0.001514   
    789. D(Au  4,Fe 16,Au 12,Au 15)     83.6639         0.001514   
    790. D(Au  4,Fe 16,Au 12,Au 14)    112.3027         0.001514   
    791. D(Au 11,Fe 16,Au 12,Au 13)    -63.5275         0.001514   
    792. D(Au 11,Fe 16,Au 12,Au 15)    -31.2256         0.001514   
    793. D(Au 11,Fe 16,Au 12,Au  4)   -114.8895         0.001514   
    794. D(Au 11,Fe 16,Au 12,Au 14)     -2.5869         0.001514   
    795. D(Au  0,Fe 16,Au 15,Au  6)    -16.3618         0.001502   
    796. D(Au 10,Fe 16,Au 12,Au 13)   -168.9941         0.001514   
    797. D(Au 10,Fe 16,Au 12,Au 15)   -136.6923         0.001514   
    798. D(Au 10,Fe 16,Au 12,Au  4)    139.6438         0.001514   
    799. D(Au  1,Fe 16,Au 15,Au 12)    -31.8605         0.001502   
    800. D(Au 10,Fe 16,Au 12,Au 14)   -108.0535         0.001514   
    801. D(Au  9,Fe 16,Au 12,Au 13)    -96.0398         0.001514   
    802. D(Au  9,Fe 16,Au 12,Au 15)    -63.7379         0.001514   
    803. D(Au  2,Fe 16,Au 15,Au  7)    -55.6784         0.001502   
    804. D(Au  9,Fe 16,Au 12,Au  4)   -147.4018         0.001514   
    805. D(Au  9,Fe 16,Au 12,Au 14)    -35.0992         0.001514   
    806. D(Au  8,Fe 16,Au 12,Au 13)   -135.9910         0.001514   
    807. D(Au  8,Fe 16,Au 12,Au 15)   -103.6892         0.001514   
    808. D(Au  8,Fe 16,Au 12,Au  4)    172.6469         0.001514   
    809. D(Au  8,Fe 16,Au 12,Au 14)    -75.0504         0.001514   
    810. D(Au  7,Fe 16,Au 12,Au 13)      6.2349         0.001514   
    811. D(Au  3,Fe 16,Au 15,Au  9)    110.7519         0.001502   
    812. D(Au  7,Fe 16,Au 12,Au 15)     38.5368         0.001514   
    813. D(Au  7,Fe 16,Au 12,Au  4)    -45.1271         0.001514   
    814. D(Au  7,Fe 16,Au 12,Au 14)     67.1755         0.001514   
    815. D(Au  3,Fe 16,Au 15,Au 13)   -145.3923         0.001502   
    816. D(Au  2,Fe 16,Au 12,Au 13)    149.9495         0.001514   
    817. D(Au  2,Fe 16,Au 12,Au 15)   -177.7486         0.001514   
    818. D(Au  2,Fe 16,Au 12,Au  4)     98.5875         0.001514   
    819. D(Au  7,Fe 16,Au 15,Au 12)   -139.5341         0.001502   
    820. D(Au  2,Fe 16,Au 12,Au 14)   -149.1099         0.001514   
    821. D(Au  1,Fe 16,Au 12,Au 13)    117.8281         0.001514   
    822. D(Au  1,Fe 16,Au 12,Au 15)    150.1300         0.001514   
    823. D(Au  1,Fe 16,Au 12,Au  4)     66.4661         0.001514   
    824. D(Au  1,Fe 16,Au 12,Au 14)    178.7687         0.001514   
    825. D(Au  0,Fe 16,Au 12,Au 13)     81.0437         0.001514   
    826. D(Au  0,Fe 16,Au 12,Au 15)    113.3456         0.001514   
    827. D(Au  8,Fe 16,Au 15,Au 14)     86.4716         0.001502   
    828. D(Au  0,Fe 16,Au 12,Au  4)     29.6817         0.001514   
    829. D(Au  0,Fe 16,Au 12,Au 14)    141.9843         0.001514   
    830. D(Au  4,Fe 16,Au 11,Au 15)    -33.4977         0.001511   
    831. D(Au  9,Fe 16,Au 15,Au 11)    -74.9010         0.001502   
    832. D(Au 12,Fe 16,Au 11,Au 15)     37.0385         0.001511   
    833. D(Au 10,Fe 16,Au 11,Au 15)    108.6928         0.001511   
    834. D(Au  9,Fe 16,Au 11,Au 15)     71.1686         0.001511   
    835. D(Au  9,Fe 16,Au 15,Au  6)    161.9927         0.001502   
    836. D(Au  8,Fe 16,Au 11,Au 15)    143.9410         0.001511   
    837. D(Au  7,Fe 16,Au 11,Au 15)    -69.5384         0.001511   
    838. D(Au  3,Fe 16,Au 11,Au 15)   -141.2843         0.001511   
    839. D(Au  2,Fe 16,Au 11,Au 15)   -177.4054         0.001511   
    840. D(Au  0,Fe 16,Au 11,Au 15)   -105.1634         0.001511   
    841. D(Au 15,Fe 16,Au  9,Au 14)    -48.0666         0.001526   
    842. D(Au  4,Fe 16,Au  9,Au 15)     53.3414         0.001526   
    843. D(Au 11,Fe 16,Au 15,Au  7)    -72.8298         0.001502   
    844. D(Au  4,Fe 16,Au  9,Au 14)      5.2748         0.001526   
    845. D(Au 12,Fe 16,Au  9,Au 15)     84.0881         0.001526   
    846. D(Au 12,Fe 16,Au  9,Au 14)     36.0215         0.001526   
    847. D(Au 11,Fe 16,Au 15,Au 13)    178.7568         0.001502   
    848. D(Au 11,Fe 16,Au  9,Au 15)    -64.6224         0.001526   
    849. D(Au 11,Fe 16,Au  9,Au 14)   -112.6890         0.001526   
    850. D(Au 10,Fe 16,Au  9,Au 15)    152.2943         0.001526   
    851. D(Au 12,Fe 16,Au 15,Au 11)   -147.6361         0.001502   
    852. D(Au 10,Fe 16,Au  9,Au 14)    104.2276         0.001526   
    853. D(Au  8,Fe 16,Au  9,Au 15)   -135.5124         0.001526   
    854. D(Au  8,Fe 16,Au  9,Au 14)    176.4210         0.001526   
    855. D(Au  7,Fe 16,Au  9,Au 15)    -28.8778         0.001526   
    856. D(Au  7,Fe 16,Au  9,Au 14)    -76.9444         0.001526   
    857. D(Au  3,Fe 16,Au  9,Au 15)    -96.8638         0.001526   
    858. D(Au  3,Fe 16,Au  9,Au 14)   -144.9304         0.001526   
    859. D(Au  4,Fe 16,Au 15,Au 14)    -87.6495         0.001502   
    860. D(Au  2,Fe 16,Au  9,Au 15)   -170.8979         0.001526   
    861. D(Au  2,Fe 16,Au  9,Au 14)    141.0355         0.001526   
    862. D(Au  1,Fe 16,Au  9,Au 15)    117.0242         0.001526   
    -----------------------------------------------------------------

Number of atoms                         .... 17
Number of degrees of freedom            .... 862

         *************************************************************
         *                GEOMETRY OPTIMIZATION CYCLE   1            *
         *************************************************************
---------------------------------
CARTESIAN COORDINATES (ANGSTROEM)
---------------------------------
  Au     9.033355    6.282222    7.152820
  Au     8.418968    8.361585    9.018747
  Au     6.885991    5.940809    8.996654
  Au     6.556787    5.041545    6.289373
  Au     9.448062    9.132363    6.529099
  Au    10.502785    7.036341    4.916844
  Au     9.119784    9.146598    3.648532
  Au     7.751234    6.781708    4.414670
  Au     4.349091    6.464736    7.543264
  Au     4.468590    9.119332    6.509536
  Au     5.558618    8.526929    9.133361
  Au     4.975645    6.897224    4.780755
  Au     7.059848   10.350453    7.586827
  Au     8.200911   11.300771    5.168536
  Au     5.434016   11.582280    5.656866
  Au     6.336675    9.286080    4.237409
  Fe     6.714446    7.652301    6.877976

----------------------------
CARTESIAN COORDINATES (A.U.)
----------------------------
  NO LB      ZA    FRAG     MASS         X           Y           Z
   0 Au   19.0000*   0   196.966   17.070566   11.871679   13.516871
   1 Au   19.0000*   0   196.966   15.909543   15.801105   17.042961
   2 Au   19.0000*   0   196.966   13.012637   11.226503   17.001213
   3 Au   19.0000*   0   196.966   12.390531    9.527139   11.885192
   4 Au   19.0000*   0   196.966   17.854249   17.257666   12.338208
   5 Au   19.0000*   0   196.966   19.847387   13.296757    9.291489
   6 Au   19.0000*   0   196.966   17.233894   17.284566    6.894725
   7 Au   19.0000*   0   196.966   14.647709   12.815571    8.342517
   8 Au   19.0000*   0   196.966    8.218590   12.216581   14.254703
   9 Au   19.0000*   0   196.966    8.444411   17.233040   12.301241
  10 Au   19.0000*   0   196.966   10.504266   16.113561   17.259551
  11 Au   19.0000*   0   196.966    9.402607   13.033865    9.034317
  12 Au   19.0000*   0   196.966   13.341179   19.559521   14.337024
  13 Au   19.0000*   0   196.966   15.497476   21.355361    9.767117
  14 Au   19.0000*   0   196.966   10.268801   21.887337   10.689927
  15 Au   19.0000*   0   196.966   11.974580   17.548149    8.007542
  16 Fe   26.0000    0    55.850   12.688464   14.460753   12.997491
* core charge reduced due to ECP

--------------------------------
INTERNAL COORDINATES (ANGSTROEM)
--------------------------------
 Au     0   0   0     0.000000000000     0.00000000     0.00000000
 Au     1   0   0     2.860577444531     0.00000000     0.00000000
 Au     1   2   0     2.850869818618    60.22459468     0.00000000
 Au     3   1   2     2.871659068346    60.92929055   139.47679921
 Au     2   1   3     2.802049541710    62.71014994   211.66423377
 Au     1   2   3     2.779839277307   116.16827110   159.96453849
 Au     6   1   2     2.823914975271   107.76443834   304.97831715
 Au     6   1   2     2.808567403362    66.50635626   259.64691158
 Au     4   3   1     2.910608052580    61.81578598   223.16592452
 Au     9   4   3     2.851271557320   105.50146278   101.66075498
 Au     2   1   3     2.867416115629   106.39372995   319.18096171
 Au     8   6   1     2.802008699935   160.62428427    37.47858758
 Au     2   1   3     2.802355479537   106.66389648   256.61006807
 Au     7   6   1     2.791988396835   119.55333197    48.11801345
 Au    10   9   4     2.779425863206   161.95098769   316.46545380
 Au    12   8   6     2.802545264031    61.88448112    75.38445761
 Fe     4   3   1     2.680924716327    58.75612948   291.25881283

---------------------------
INTERNAL COORDINATES (A.U.)
---------------------------
 Au     0   0   0     0.000000000000     0.00000000     0.00000000
 Au     1   0   0     5.405707955035     0.00000000     0.00000000
 Au     1   2   0     5.387363200650    60.22459468     0.00000000
 Au     3   1   2     5.426649189165    60.92929055   139.47679921
 Au     2   1   3     5.295106247511    62.71014994   211.66423377
 Au     1   2   3     5.253134930428   116.16827110   159.96453849
 Au     6   1   2     5.336425928742   107.76443834   304.97831715
 Au     6   1   2     5.307423221012    66.50635626   259.64691158
 Au     4   3   1     5.500252102562    61.81578598   223.16592452
 Au     9   4   3     5.388122376774   105.50146278   101.66075498
 Au     2   1   3     5.418631170532   106.39372995   319.18096171
 Au     8   6   1     5.295029067742   160.62428427    37.47858758
 Au     2   1   3     5.295684386218   106.66389648   256.61006807
 Au     7   6   1     5.276093439103   119.55333197    48.11801345
 Au    10   9   4     5.252353690997   161.95098769   316.46545380
 Au    12   8   6     5.296043026936    61.88448112    75.38445761
 Fe     4   3   1     5.066213499519    58.75612948   291.25881283

---------------------
BASIS SET INFORMATION
---------------------
There are 2 groups of distinct atoms

 Group   1 Type Au  : 8s7p6d1f contracted to 6s4p3d1f pattern {311111/4111/411/1}
 Group   2 Type Fe  : 17s11p7d1f contracted to 6s4p4d1f pattern {842111/6311/4111/1}

Atom   0Au   basis set group =>   1
Atom   1Au   basis set group =>   1
Atom   2Au   basis set group =>   1
Atom   3Au   basis set group =>   1
Atom   4Au   basis set group =>   1
Atom   5Au   basis set group =>   1
Atom   6Au   basis set group =>   1
Atom   7Au   basis set group =>   1
Atom   8Au   basis set group =>   1
Atom   9Au   basis set group =>   1
Atom  10Au   basis set group =>   1
Atom  11Au   basis set group =>   1
Atom  12Au   basis set group =>   1
Atom  13Au   basis set group =>   1
Atom  14Au   basis set group =>   1
Atom  15Au   basis set group =>   1
Atom  16Fe   basis set group =>   2
---------------------------------
AUXILIARY/J BASIS SET INFORMATION
---------------------------------
There are 2 groups of distinct atoms

 Group   1 Type Au  : 11s5p5d3f3g contracted to 8s5p5d2f3g pattern {41111111/11111/11111/21/111}
 Group   2 Type Fe  : 19s5p5d3f3g contracted to 8s5p5d2f3g pattern {121111111/11111/11111/21/111}

Atom   0Au   basis set group =>   1
Atom   1Au   basis set group =>   1
Atom   2Au   basis set group =>   1
Atom   3Au   basis set group =>   1
Atom   4Au   basis set group =>   1
Atom   5Au   basis set group =>   1
Atom   6Au   basis set group =>   1
Atom   7Au   basis set group =>   1
Atom   8Au   basis set group =>   1
Atom   9Au   basis set group =>   1
Atom  10Au   basis set group =>   1
Atom  11Au   basis set group =>   1
Atom  12Au   basis set group =>   1
Atom  13Au   basis set group =>   1
Atom  14Au   basis set group =>   1
Atom  15Au   basis set group =>   1
Atom  16Fe   basis set group =>   2
-------------------------
ECP PARAMETER INFORMATION
-------------------------

 Group 1, Type Au ECP Def2-ECP (replacing 60 core electrons, lmax=3)

Atom   0Au   ECP group =>   1
Atom   1Au   ECP group =>   1
Atom   2Au   ECP group =>   1
Atom   3Au   ECP group =>   1
Atom   4Au   ECP group =>   1
Atom   5Au   ECP group =>   1
Atom   6Au   ECP group =>   1
Atom   7Au   ECP group =>   1
Atom   8Au   ECP group =>   1
Atom   9Au   ECP group =>   1
Atom  10Au   ECP group =>   1
Atom  11Au   ECP group =>   1
Atom  12Au   ECP group =>   1
Atom  13Au   ECP group =>   1
Atom  14Au   ECP group =>   1
Atom  15Au   ECP group =>   1

------------------------------------------------------------------------------
                           ORCA GTO INTEGRAL CALCULATION
                           -- RI-GTO INTEGRALS CHOSEN --
------------------------------------------------------------------------------
------------------------------------------------------------------------------
                   ___                                                        
                  /   \      - P O W E R E D   B Y -                         
                 /     \                                                     
                 |  |  |   _    _      __       _____    __    __             
                 |  |  |  | |  | |    /  \     |  _  \  |  |  /  |          
                  \  \/   | |  | |   /    \    | | | |  |  | /  /          
                 / \  \   | |__| |  /  /\  \   | |_| |  |  |/  /          
                |  |  |   |  __  | /  /__\  \  |    /   |      \           
                |  |  |   | |  | | |   __   |  |    \   |  |\   \          
                \     /   | |  | | |  |  |  |  | |\  \  |  | \   \       
                 \___/    |_|  |_| |__|  |__|  |_| \__\ |__|  \__/        
                                                                              
[...]
 300( 0) :     0.475743 a.u.    12.946 eV
 301( 0) :     0.479748 a.u.    13.055 eV
 302( 0) :     0.484891 a.u.    13.195 eV
 303( 0) :     0.488785 a.u.    13.301 eV
 304( 0) :     0.489985 a.u.    13.333 eV
 305( 0) :     0.491829 a.u.    13.383 eV
 306( 0) :     0.500034 a.u.    13.607 eV
 307( 0) :     0.501405 a.u.    13.644 eV
 308( 0) :     0.504891 a.u.    13.739 eV
 309( 0) :     0.505000 a.u.    13.742 eV
 310( 0) :     0.511814 a.u.    13.927 eV
 311( 0) :     0.512767 a.u.    13.953 eV
 312( 0) :     0.515156 a.u.    14.018 eV
 313( 0) :     0.515200 a.u.    14.019 eV
 314( 0) :     0.518110 a.u.    14.098 eV
 315( 0) :     0.518886 a.u.    14.120 eV
 316( 0) :     0.531038 a.u.    14.450 eV
 317( 0) :     0.532654 a.u.    14.494 eV
 318( 0) :     0.537197 a.u.    14.618 eV
 319( 0) :     0.540873 a.u.    14.718 eV
 320( 0) :     0.547688 a.u.    14.903 eV
 321( 0) :     0.550889 a.u.    14.990 eV
 322( 0) :     0.552891 a.u.    15.045 eV
 323( 0) :     0.554338 a.u.    15.084 eV
 324( 0) :     0.556687 a.u.    15.148 eV
 325( 0) :     0.566563 a.u.    15.417 eV
 326( 0) :     0.573392 a.u.    15.603 eV
 327( 0) :     0.593926 a.u.    16.162 eV
 328( 0) :     0.644156 a.u.    17.528 eV
 329( 0) :     0.646305 a.u.    17.587 eV
 330( 0) :     0.675745 a.u.    18.388 eV
 331( 0) :     0.679466 a.u.    18.489 eV
 332( 0) :     0.681927 a.u.    18.556 eV
 333( 0) :     0.683781 a.u.    18.607 eV
 334( 0) :     0.689839 a.u.    18.771 eV
 335( 0) :     0.695649 a.u.    18.930 eV
 336( 0) :     0.701362 a.u.    19.085 eV
 337( 0) :     0.716616 a.u.    19.500 eV
 338( 0) :     0.718722 a.u.    19.557 eV
 339( 0) :     0.723533 a.u.    19.688 eV
 340( 0) :     0.728877 a.u.    19.834 eV
 341( 0) :     0.741264 a.u.    20.171 eV
 342( 0) :     0.747560 a.u.    20.342 eV
 343( 0) :     0.752796 a.u.    20.485 eV
 344( 0) :     0.759047 a.u.    20.655 eV
 345( 0) :     0.759979 a.u.    20.680 eV
 346( 0) :     0.778621 a.u.    21.187 eV
 347( 0) :     0.790943 a.u.    21.523 eV
 348( 0) :     0.802911 a.u.    21.848 eV
 349( 0) :     0.807082 a.u.    21.962 eV
 350( 0) :     0.812712 a.u.    22.115 eV
 351( 0) :     0.816124 a.u.    22.208 eV
 352( 0) :     0.832436 a.u.    22.652 eV
 353( 0) :     0.860304 a.u.    23.410 eV
 354( 0) :     0.865708 a.u.    23.557 eV
 355( 0) :     0.882947 a.u.    24.026 eV
 356( 0) :     0.885301 a.u.    24.090 eV
 357( 0) :     0.888167 a.u.    24.168 eV
 358( 0) :     0.893975 a.u.    24.326 eV
 359( 0) :     0.899601 a.u.    24.479 eV
 360( 0) :     0.907902 a.u.    24.705 eV
 361( 0) :     0.909581 a.u.    24.751 eV
 362( 0) :     0.912832 a.u.    24.839 eV
 363( 0) :     0.923855 a.u.    25.139 eV
 364( 0) :     0.926054 a.u.    25.199 eV
 365( 0) :     0.929826 a.u.    25.302 eV
 366( 0) :     0.940708 a.u.    25.598 eV
 367( 0) :     0.950615 a.u.    25.868 eV
 368( 0) :     0.955482 a.u.    26.000 eV
 369( 0) :     0.958619 a.u.    26.085 eV
 370( 0) :     0.981425 a.u.    26.706 eV
 371( 0) :     0.984958 a.u.    26.802 eV
 372( 0) :     1.011450 a.u.    27.523 eV
 373( 0) :     1.082771 a.u.    29.464 eV
 374( 0) :     1.114954 a.u.    30.339 eV
 375( 0) :     1.152405 a.u.    31.359 eV
 376( 0) :     1.158436 a.u.    31.523 eV
 377( 0) :     1.179292 a.u.    32.090 eV
 378( 0) :     1.184049 a.u.    32.220 eV
 379( 0) :     1.195609 a.u.    32.534 eV
 380( 0) :     1.199007 a.u.    32.627 eV
 381( 0) :     1.211719 a.u.    32.973 eV
 382( 0) :     1.223519 a.u.    33.294 eV
 383( 0) :     1.241015 a.u.    33.770 eV
 384( 0) :     1.245368 a.u.    33.888 eV
 385( 0) :     1.249803 a.u.    34.009 eV
 386( 0) :     1.260873 a.u.    34.310 eV
 387( 0) :     1.271761 a.u.    34.606 eV
 388( 0) :     1.273011 a.u.    34.640 eV
 389( 0) :     1.280209 a.u.    34.836 eV
 390( 0) :     1.291795 a.u.    35.152 eV
 391( 0) :     1.293306 a.u.    35.193 eV
 392( 0) :     1.302218 a.u.    35.435 eV
 393( 0) :     1.308318 a.u.    35.601 eV
 394( 0) :     1.312361 a.u.    35.711 eV
 395( 0) :     1.317470 a.u.    35.850 eV
 396( 0) :     1.325981 a.u.    36.082 eV
 397( 0) :     1.341237 a.u.    36.497 eV
 398( 0) :     1.343299 a.u.    36.553 eV
 399( 0) :     1.345820 a.u.    36.622 eV
 400( 0) :     1.349669 a.u.    36.726 eV
 401( 0) :     1.351295 a.u.    36.771 eV
 402( 0) :     1.361340 a.u.    37.044 eV
 403( 0) :     1.365335 a.u.    37.153 eV
 404( 0) :     1.371057 a.u.    37.308 eV
 405( 0) :     1.391318 a.u.    37.860 eV
 406( 0) :     1.399350 a.u.    38.078 eV
 407( 0) :     1.402791 a.u.    38.172 eV
 408( 0) :     1.408427 a.u.    38.325 eV
 409( 0) :     1.411932 a.u.    38.421 eV
 410( 0) :     1.418197 a.u.    38.591 eV
 411( 0) :     1.420964 a.u.    38.666 eV
 412( 0) :     1.421621 a.u.    38.684 eV
 413( 0) :     1.426609 a.u.    38.820 eV
 414( 0) :     1.427007 a.u.    38.831 eV
 415( 0) :     1.430232 a.u.    38.919 eV
 416( 0) :     1.434853 a.u.    39.044 eV
 417( 0) :     1.435510 a.u.    39.062 eV
 418( 0) :     1.438821 a.u.    39.152 eV
 419( 0) :     1.440182 a.u.    39.189 eV
 420( 0) :     1.442445 a.u.    39.251 eV
 421( 0) :     1.444170 a.u.    39.298 eV
 422( 0) :     1.449775 a.u.    39.450 eV
 423( 0) :     1.451037 a.u.    39.485 eV
 424( 0) :     1.453081 a.u.    39.540 eV
 425( 0) :     1.454414 a.u.    39.577 eV
 426( 0) :     1.455215 a.u.    39.598 eV
 427( 0) :     1.456837 a.u.    39.643 eV
 428( 0) :     1.459396 a.u.    39.712 eV
 429( 0) :     1.468570 a.u.    39.962 eV
 430( 0) :     1.469031 a.u.    39.974 eV
 431( 0) :     1.469323 a.u.    39.982 eV
 432( 0) :     1.470912 a.u.    40.026 eV
 433( 0) :     1.477516 a.u.    40.205 eV
 434( 0) :     1.478593 a.u.    40.235 eV
 435( 0) :     1.479547 a.u.    40.261 eV
 436( 0) :     1.479724 a.u.    40.265 eV
 437( 0) :     1.482806 a.u.    40.349 eV
 438( 0) :     1.483165 a.u.    40.359 eV
 439( 0) :     1.484327 a.u.    40.391 eV
 440( 0) :     1.485713 a.u.    40.428 eV
 441( 0) :     1.487121 a.u.    40.467 eV
 442( 0) :     1.488201 a.u.    40.496 eV
 443( 0) :     1.492131 a.u.    40.603 eV
 444( 0) :     1.492737 a.u.    40.619 eV
 445( 0) :     1.493062 a.u.    40.628 eV
 446( 0) :     1.494324 a.u.    40.663 eV
 447( 0) :     1.495651 a.u.    40.699 eV
 448( 0) :     1.496988 a.u.    40.735 eV
 449( 0) :     1.497618 a.u.    40.752 eV
 450( 0) :     1.499172 a.u.    40.795 eV
 451( 0) :     1.499649 a.u.    40.808 eV
 452( 0) :     1.500922 a.u.    40.842 eV
 453( 0) :     1.502432 a.u.    40.883 eV
 454( 0) :     1.503876 a.u.    40.923 eV
 455( 0) :     1.505432 a.u.    40.965 eV
 456( 0) :     1.506163 a.u.    40.985 eV
 457( 0) :     1.506482 a.u.    40.993 eV
 458( 0) :     1.506963 a.u.    41.007 eV
 459( 0) :     1.509136 a.u.    41.066 eV
 460( 0) :     1.509566 a.u.    41.077 eV
 461( 0) :     1.512005 a.u.    41.144 eV
 462( 0) :     1.512144 a.u.    41.148 eV
 463( 0) :     1.512927 a.u.    41.169 eV
 464( 0) :     1.513407 a.u.    41.182 eV
 465( 0) :     1.515178 a.u.    41.230 eV
 466( 0) :     1.516210 a.u.    41.258 eV
 467( 0) :     1.516788 a.u.    41.274 eV
 468( 0) :     1.517327 a.u.    41.289 eV
 469( 0) :     1.518509 a.u.    41.321 eV
 470( 0) :     1.521971 a.u.    41.415 eV
 471( 0) :     1.522254 a.u.    41.423 eV
 472( 0) :     1.523974 a.u.    41.469 eV
 473( 0) :     1.524562 a.u.    41.485 eV
 474( 0) :     1.524884 a.u.    41.494 eV
 475( 0) :     1.527950 a.u.    41.578 eV
 476( 0) :     1.529518 a.u.    41.620 eV
 477( 0) :     1.530358 a.u.    41.643 eV
 478( 0) :     1.534949 a.u.    41.768 eV
 479( 0) :     1.536548 a.u.    41.812 eV
 480( 0) :     1.540165 a.u.    41.910 eV
 481( 0) :     1.544834 a.u.    42.037 eV
 482( 0) :     1.548160 a.u.    42.128 eV
 483( 0) :     1.548630 a.u.    42.140 eV
 484( 0) :     1.553362 a.u.    42.269 eV
 485( 0) :     1.556959 a.u.    42.367 eV
 486( 0) :     1.558387 a.u.    42.406 eV
 487( 0) :     1.561231 a.u.    42.483 eV
 488( 0) :     1.561800 a.u.    42.499 eV
 489( 0) :     1.566246 a.u.    42.620 eV
 490( 0) :     1.567800 a.u.    42.662 eV
 491( 0) :     1.567952 a.u.    42.666 eV
 492( 0) :     1.571324 a.u.    42.758 eV
 493( 0) :     1.573860 a.u.    42.827 eV
 494( 0) :     1.576605 a.u.    42.902 eV
 495( 0) :     1.577676 a.u.    42.931 eV
 496( 0) :     1.579003 a.u.    42.967 eV
 497( 0) :     1.583315 a.u.    43.084 eV
 498( 0) :     1.585322 a.u.    43.139 eV
 499( 0) :     1.585909 a.u.    43.155 eV
 500( 0) :     1.588646 a.u.    43.229 eV
 501( 0) :     1.591718 a.u.    43.313 eV
 502( 0) :     1.595396 a.u.    43.413 eV
 503( 0) :     1.595779 a.u.    43.423 eV
 504( 0) :     1.597129 a.u.    43.460 eV
 505( 0) :     1.600179 a.u.    43.543 eV
 506( 0) :     1.604555 a.u.    43.662 eV
 507( 0) :     1.610656 a.u.    43.828 eV
 508( 0) :     1.611189 a.u.    43.843 eV
 509( 0) :     1.612501 a.u.    43.878 eV
 510( 0) :     1.617409 a.u.    44.012 eV
 511( 0) :     1.622385 a.u.    44.147 eV
 512( 0) :     1.623572 a.u.    44.180 eV
 513( 0) :     1.626099 a.u.    44.248 eV
 514( 0) :     1.633575 a.u.    44.452 eV
 515( 0) :     1.634149 a.u.    44.467 eV
 516( 0) :     1.635430 a.u.    44.502 eV
 517( 0) :     1.637171 a.u.    44.550 eV
 518( 0) :     1.642994 a.u.    44.708 eV
 519( 0) :     1.643092 a.u.    44.711 eV
 520( 0) :     1.652302 a.u.    44.961 eV
 521( 0) :     1.652683 a.u.    44.972 eV
 522( 0) :     1.653940 a.u.    45.006 eV
 523( 0) :     1.658694 a.u.    45.135 eV
 524( 0) :     1.672808 a.u.    45.519 eV
 525( 0) :     1.675483 a.u.    45.592 eV
 526( 0) :     1.678725 a.u.    45.680 eV
 527( 0) :     1.682434 a.u.    45.781 eV
 528( 0) :     1.691951 a.u.    46.040 eV
 529( 0) :     1.695428 a.u.    46.135 eV
 530( 0) :     1.699053 a.u.    46.234 eV
 531( 0) :     1.706607 a.u.    46.439 eV
 532( 0) :     1.711859 a.u.    46.582 eV
 533( 0) :     1.716503 a.u.    46.708 eV
 534( 0) :     1.721295 a.u.    46.839 eV
 535( 0) :     1.722255 a.u.    46.865 eV
 536( 0) :     1.723307 a.u.    46.894 eV
 537( 0) :     1.726451 a.u.    46.979 eV
 538( 0) :     1.733817 a.u.    47.180 eV
 539( 0) :     1.744068 a.u.    47.458 eV
 540( 0) :     1.748623 a.u.    47.582 eV
 541( 0) :     1.751007 a.u.    47.647 eV
 542( 0) :     1.752776 a.u.    47.695 eV
 543( 0) :     1.757071 a.u.    47.812 eV
 544( 0) :     1.758510 a.u.    47.852 eV
 545( 0) :     1.763979 a.u.    48.000 eV
 546( 0) :     1.769542 a.u.    48.152 eV
 547( 0) :     1.777278 a.u.    48.362 eV
 548( 0) :     1.779719 a.u.    48.429 eV
 549( 0) :     1.781297 a.u.    48.472 eV
 550( 0) :     1.790063 a.u.    48.710 eV
 551( 0) :     1.798860 a.u.    48.949 eV
 552( 0) :     1.800909 a.u.    49.005 eV
 553( 0) :     1.813763 a.u.    49.355 eV
 554( 0) :     1.816418 a.u.    49.427 eV
 555( 0) :     1.826230 a.u.    49.694 eV
 556( 0) :     1.835045 a.u.    49.934 eV
 557( 0) :     1.843660 a.u.    50.169 eV
 558( 0) :     1.861242 a.u.    50.647 eV
 559( 0) :     1.866789 a.u.    50.798 eV
 560( 0) :     1.874256 a.u.    51.001 eV
 561( 0) :     1.877696 a.u.    51.095 eV
 562( 0) :     1.884372 a.u.    51.276 eV
 563( 0) :     1.889738 a.u.    51.422 eV
 564( 0) :     1.902858 a.u.    51.779 eV
 565( 0) :     1.986587 a.u.    54.058 eV
 566( 0) :     2.001359 a.u.    54.460 eV
 567( 0) :     2.010723 a.u.    54.715 eV
 568( 0) :     2.070750 a.u.    56.348 eV
 569( 0) :     2.079977 a.u.    56.599 eV
 570( 0) :     2.146910 a.u.    58.420 eV
 571( 0) :     2.157456 a.u.    58.707 eV
 572( 0) :     2.200833 a.u.    59.888 eV
 573( 0) :     2.203665 a.u.    59.965 eV
 574( 0) :     2.271738 a.u.    61.817 eV
 575( 0) :     2.275691 a.u.    61.925 eV
 576( 0) :     2.312230 a.u.    62.919 eV
 577( 0) :     2.393945 a.u.    65.143 eV
 578( 0) :     2.398112 a.u.    65.256 eV
 579( 0) :     2.448891 a.u.    66.638 eV
 580( 0) :     2.452594 a.u.    66.738 eV
 581( 0) :     2.489415 a.u.    67.740 eV
 582( 0) :     2.495003 a.u.    67.892 eV
 583( 0) :     2.504262 a.u.    68.144 eV
 584( 0) :     2.511400 a.u.    68.339 eV
 585( 0) :     2.521383 a.u.    68.610 eV
 586( 0) :     2.531430 a.u.    68.884 eV
 587( 0) :     2.559924 a.u.    69.659 eV
 588( 0) :     2.573035 a.u.    70.016 eV
 589( 0) :     2.618468 a.u.    71.252 eV
 590( 0) :     2.627612 a.u.    71.501 eV
 591( 0) :     2.635285 a.u.    71.710 eV
 592( 0) :     3.480050 a.u.    94.697 eV
 593( 0) :     3.692650 a.u.   100.482 eV
 594( 0) :     3.704143 a.u.   100.795 eV
 595( 0) :     3.722237 a.u.   101.287 eV
 596( 0) :     3.745637 a.u.   101.924 eV
 597( 0) :     3.748399 a.u.   101.999 eV
 598( 0) :     3.918850 a.u.   106.637 eV
 599( 0) :     3.928098 a.u.   106.889 eV
 600( 0) :     3.930749 a.u.   106.961 eV
 601( 0) :     3.933766 a.u.   107.043 eV
 602( 0) :     3.937595 a.u.   107.147 eV
 603( 0) :     3.943281 a.u.   107.302 eV
 604( 0) :     3.949475 a.u.   107.471 eV
 605( 0) :    23.893082 a.u.   650.164 eV
 606( 0) :    24.006253 a.u.   653.243 eV
 607( 0) :    24.106964 a.u.   655.984 eV
 608( 0) :    24.268798 a.u.   660.388 eV
 609( 0) :    24.493664 a.u.   666.506 eV
 610( 0) :    24.640112 a.u.   670.492 eV
 611( 0) :    24.919992 a.u.   678.107 eV
 612( 0) :    25.054953 a.u.   681.780 eV
 613( 0) :    25.141930 a.u.   684.147 eV
 614( 0) :    25.249760 a.u.   687.081 eV
 615( 0) :    25.309350 a.u.   688.702 eV
 616( 0) :    25.405182 a.u.   691.310 eV
 617( 0) :    25.480911 a.u.   693.371 eV
 618( 0) :    25.503000 a.u.   693.972 eV
 619( 0) :    25.587394 a.u.   696.268 eV
 620( 0) :    25.616859 a.u.   697.070 eV
 621( 0) :    25.759938 a.u.   700.964 eV
 622( 0) :    25.795315 a.u.   701.926 eV
 623( 0) :    25.927623 a.u.   705.526 eV
 624( 0) :    26.004794 a.u.   707.626 eV
 625( 0) :    26.058142 a.u.   709.078 eV
 626( 0) :    26.198286 a.u.   712.892 eV
 627( 0) :    26.302452 a.u.   715.726 eV
 628( 0) :    26.378690 a.u.   717.801 eV
 629( 0) :    26.465553 a.u.   720.164 eV
 630( 0) :    26.526885 a.u.   721.833 eV
 631( 0) :    26.622005 a.u.   724.422 eV
 632( 0) :    26.691623 a.u.   726.316 eV
 633( 0) :    26.777989 a.u.   728.666 eV
 634( 0) :    26.911774 a.u.   732.307 eV
 635( 0) :    27.004646 a.u.   734.834 eV
 636( 0) :    27.035952 a.u.   735.686 eV
 637( 0) :    27.146383 a.u.   738.691 eV
 638( 0) :    27.187933 a.u.   739.821 eV
 639( 0) :    27.432204 a.u.   746.468 eV
 640( 0) :    27.493704 a.u.   748.142 eV
 641( 0) :    27.583816 a.u.   750.594 eV
 642( 0) :    27.774660 a.u.   755.787 eV
 643( 0) :    27.829266 a.u.   757.273 eV
 644( 0) :    27.892506 a.u.   758.994 eV
 645( 0) :    28.267813 a.u.   769.206 eV
 646( 0) :    28.585677 a.u.   777.856 eV
 647( 0) :    29.294344 a.u.   797.140 eV
 648( 0) :    29.473392 a.u.   802.012 eV
 649( 0) :    30.274189 a.u.   823.803 eV
 650( 0) :    30.594924 a.u.   832.530 eV
 651( 0) :    30.809711 a.u.   838.375 eV
 652( 0) :    33.497561 a.u.   911.515 eV
 653( 0) :    43.919936 a.u.  1195.122 eV
 654( 0) :    44.027381 a.u.  1198.046 eV
 655( 0) :    44.049815 a.u.  1198.656 eV
 656( 0) :    44.081215 a.u.  1199.511 eV
 657( 0) :    44.104852 a.u.  1200.154 eV
 658( 0) :    44.131005 a.u.  1200.866 eV
 659( 0) :    44.140075 a.u.  1201.112 eV
 660( 0) :    44.148548 a.u.  1201.343 eV
 661( 0) :    44.150354 a.u.  1201.392 eV
 662( 0) :    44.169434 a.u.  1201.911 eV
 663( 0) :    44.179118 a.u.  1202.175 eV
 664( 0) :    44.180260 a.u.  1202.206 eV
 665( 0) :    44.200800 a.u.  1202.765 eV
 666( 0) :    44.223579 a.u.  1203.385 eV
 667( 0) :    44.301132 a.u.  1205.495 eV
 668( 0) :    44.323314 a.u.  1206.099 eV
 669( 0) :   205.091520 a.u.  5580.824 eV
 670( 0) :   205.142070 a.u.  5582.200 eV
 671( 0) :   205.144439 a.u.  5582.264 eV
 672( 0) :   205.159287 a.u.  5582.668 eV
 673( 0) :   205.176849 a.u.  5583.146 eV
 674( 0) :   205.186019 a.u.  5583.395 eV
 675( 0) :   205.188531 a.u.  5583.464 eV
 676( 0) :   205.193914 a.u.  5583.610 eV
 677( 0) :   205.195008 a.u.  5583.640 eV
 678( 0) :   205.200978 a.u.  5583.802 eV
 679( 0) :   205.202143 a.u.  5583.834 eV
 680( 0) :   205.207437 a.u.  5583.978 eV
 681( 0) :   205.213901 a.u.  5584.154 eV
 682( 0) :   205.220204 a.u.  5584.326 eV
 683( 0) :   205.249794 a.u.  5585.131 eV
 684( 0) :   205.253724 a.u.  5585.238 eV
-------
TIMINGS
-------

Total SCF time: 0 days 0 hours 17 min 57 sec 

Total time                  ....    1077.424 sec
Sum of individual times     ....    1063.067 sec  ( 98.7%)

Fock matrix formation       ....    1047.467 sec  ( 97.2%)
  Split-RI-J                ....     388.204 sec  ( 37.1% of F)
  XC integration            ....     631.140 sec  ( 60.3% of F)
    Basis function eval.    ....      67.386 sec  ( 10.7% of XC)
    Density eval.           ....     243.047 sec  ( 38.5% of XC)
    XC-Functional eval.     ....      11.026 sec  (  1.7% of XC)
    XC-Potential eval.      ....     248.426 sec  ( 39.4% of XC)
Diagonalization             ....       4.332 sec  (  0.4%)
Density matrix formation    ....       1.084 sec  (  0.1%)
Population analysis         ....       1.244 sec  (  0.1%)
Initial guess               ....       0.255 sec  (  0.0%)
Orbital Transformation      ....       3.427 sec  (  0.3%)
Orbital Orthonormalization  ....       0.212 sec  (  0.0%)
DIIS solution               ....       1.633 sec  (  0.2%)
Grid generation             ....       3.623 sec  (  0.3%)

Maximum memory used throughout the entire SCF-calculation: 764.9 MB

-------------------------   --------------------
FINAL SINGLE POINT ENERGY     -3436.745051778370
-------------------------   --------------------

                                *** OPTIMIZATION RUN DONE ***

                            ***************************************
                            *     ORCA property calculations      *
                            ***************************************

                                    ---------------------
                                    Active property flags
                                    ---------------------
   (+) Dipole Moment


------------------------------------------------------------------------------
                       ORCA ELECTRIC PROPERTIES CALCULATION
------------------------------------------------------------------------------

Dipole Moment Calculation                       ... on
Quadrupole Moment Calculation                   ... off
Polarizability Calculation                      ... off
GBWName                                         ... pbe.gbw
Electron density                                ... pbe.scfp
The origin for moment calculation is the CENTER OF MASS  = (13.460584, 15.481630 12.017165)

-------------
DIPOLE MOMENT
-------------
                                X             Y             Z
Electronic contribution:     14.94554      19.94667     -19.14306
Nuclear contribution   :    -15.04785     -20.09782      19.28437
                        -----------------------------------------
Total Dipole Moment    :     -0.10231      -0.15115       0.14132
                        -----------------------------------------
Magnitude (a.u.)       :      0.23083
Magnitude (Debye)      :      0.58672



--------------------
Rotational spectrum 
--------------------
 
Rotational constants in cm-1:     0.000949     0.000863     0.000707 
Rotational constants in MHz :    28.456729    25.863368    21.207971 

 Dipole components along the rotational axes: 
x,y,z [a.u.] :    -0.230615     0.009716     0.002011 
x,y,z [Debye]:    -0.586177     0.024696     0.005112 

 

Timings for individual modules:

Sum of individual times         ...    40037.024 sec (= 667.284 min)
GTO integral calculation        ...      218.349 sec (=   3.639 min)   0.5 %
SCF iterations                  ...    37575.235 sec (= 626.254 min)  93.9 %
SCF Gradient evaluation         ...     2235.307 sec (=  37.255 min)   5.6 %
Geometry relaxation             ...        8.134 sec (=   0.136 min)   0.0 %
                             ****ORCA TERMINATED NORMALLY****
TOTAL RUN TIME: 0 days 11 hours 7 minutes 18 seconds 773 msec
