
                                 *****************
                                 * O   R   C   A *
                                 *****************

                                            #,                                       
                                            ###                                      
                                            ####                                     
                                            #####                                    
                                            ######                                   
                                           ########,                                 
                                     ,,################,,,,,                         
                               ,,#################################,,                 
                          ,,##########################################,,             
                       ,#########################################, ''#####,          
                    ,#############################################,,   '####,        
                  ,##################################################,,,,####,       
                ,###########''''           ''''###############################       
              ,#####''   ,,,,##########,,,,          '''####'''          '####       
            ,##' ,,,,###########################,,,                        '##       
           ' ,,###''''                  '''############,,,                           
         ,,##''                                '''############,,,,        ,,,,,,###''
      ,#''                                            '''#######################'''  
     '                                                          ''''####''''         
             ,#######,   #######,   ,#######,      ##                                
            ,#'     '#,  ##    ##  ,#'     '#,    #''#        ######   ,####,        
            ##       ##  ##   ,#'  ##            #'  '#       #        #'  '#        
            ##       ##  #######   ##           ,######,      #####,   #    #        
            '#,     ,#'  ##    ##  '#,     ,#' ,#      #,         ##   #,  ,#        
             '#######'   ##     ##  '#######'  #'      '#     #####' # '####'        



                  #######################################################
                  #                        -***-                        #
                  #          Department of theory and spectroscopy      #
                  #    Directorship and core code : Frank Neese         #
                  #        Max Planck Institute fuer Kohlenforschung    #
                  #                Kaiser Wilhelm Platz 1               #
                  #                 D-45470 Muelheim/Ruhr               #
                  #                      Germany                        #
                  #                                                     #
                  #                  All rights reserved                #
                  #                        -***-                        #
                  #######################################################


                         Program Version 5.0.3 -  RELEASE  -


 With contributions from (in alphabetic order):
   Daniel Aravena         : Magnetic Suceptibility
   Michael Atanasov       : Ab Initio Ligand Field Theory (pilot matlab implementation)
   Alexander A. Auer      : GIAO ZORA, VPT2 properties, NMR spectrum
   Ute Becker             : Parallelization
   Giovanni Bistoni       : ED, misc. LED, open-shell LED, HFLD
   Martin Brehm           : Molecular dynamics
   Dmytro Bykov           : SCF Hessian
   Vijay G. Chilkuri      : MRCI spin determinant printing, contributions to CSF-ICE
   Dipayan Datta          : RHF DLPNO-CCSD density
   Achintya Kumar Dutta   : EOM-CC, STEOM-CC
   Dmitry Ganyushin       : Spin-Orbit,Spin-Spin,Magnetic field MRCI
   Miquel Garcia          : C-PCM and meta-GGA Hessian, CC/C-PCM, Gaussian charge scheme
   Yang Guo               : DLPNO-NEVPT2, F12-NEVPT2, CIM, IAO-localization
   Andreas Hansen         : Spin unrestricted coupled pair/coupled cluster methods
   Benjamin Helmich-Paris : MC-RPA, TRAH-SCF, COSX integrals
   Lee Huntington         : MR-EOM, pCC
   Robert Izsak           : Overlap fitted RIJCOSX, COSX-SCS-MP3, EOM
   Marcus Kettner         : VPT2
   Christian Kollmar      : KDIIS, OOCD, Brueckner-CCSD(T), CCSD density, CASPT2, CASPT2-K
   Simone Kossmann        : Meta GGA functionals, TD-DFT gradient, OOMP2, MP2 Hessian
   Martin Krupicka        : Initial AUTO-CI
   Lucas Lang             : DCDCAS
   Marvin Lechner         : AUTO-CI (C++ implementation), FIC-MRCC
   Dagmar Lenk            : GEPOL surface, SMD
   Dimitrios Liakos       : Extrapolation schemes; Compound Job, initial MDCI parallelization
   Dimitrios Manganas     : Further ROCIS development; embedding schemes
   Dimitrios Pantazis     : SARC Basis sets
   Anastasios Papadopoulos: AUTO-CI, single reference methods and gradients
   Taras Petrenko         : DFT Hessian,TD-DFT gradient, ASA, ECA, R-Raman, ABS, FL, XAS/XES, NRVS
   Peter Pinski           : DLPNO-MP2, DLPNO-MP2 Gradient
   Christoph Reimann      : Effective Core Potentials
   Marius Retegan         : Local ZFS, SOC
   Christoph Riplinger    : Optimizer, TS searches, QM/MM, DLPNO-CCSD(T), (RO)-DLPNO pert. Triples
   Tobias Risthaus        : Range-separated hybrids, TD-DFT gradient, RPA, STAB
   Michael Roemelt        : Original ROCIS implementation
   Masaaki Saitow         : Open-shell DLPNO-CCSD energy and density
   Barbara Sandhoefer     : DKH picture change effects
   Avijit Sen             : IP-ROCIS
   Kantharuban Sivalingam : CASSCF convergence, NEVPT2, FIC-MRCI
   Bernardo de Souza      : ESD, SOC TD-DFT
   Georgi Stoychev        : AutoAux, RI-MP2 NMR, DLPNO-MP2 response
   Willem Van den Heuvel  : Paramagnetic NMR
   Boris Wezisla          : Elementary symmetry handling
   Frank Wennmohs         : Technical directorship


 We gratefully acknowledge several colleagues who have allowed us to
 interface, adapt or use parts of their codes:
   Stefan Grimme, W. Hujo, H. Kruse, P. Pracht,  : VdW corrections, initial TS optimization,
                  C. Bannwarth, S. Ehlert          DFT functionals, gCP, sTDA/sTD-DF
   Ed Valeev, F. Pavosevic, A. Kumar             : LibInt (2-el integral package), F12 methods
   Garnet Chan, S. Sharma, J. Yang, R. Olivares  : DMRG
   Ulf Ekstrom                                   : XCFun DFT Library
   Mihaly Kallay                                 : mrcc  (arbitrary order and MRCC methods)
   Jiri Pittner, Ondrej Demel                    : Mk-CCSD
   Frank Weinhold                                : gennbo (NPA and NBO analysis)
   Christopher J. Cramer and Donald G. Truhlar   : smd solvation model
   Lars Goerigk                                  : TD-DFT with DH, B97 family of functionals
   V. Asgeirsson, H. Jonsson                     : NEB implementation
   FAccTs GmbH                                   : IRC, NEB, NEB-TS, DLPNO-Multilevel, CI-OPT
                                                   MM, QMMM, 2- and 3-layer-ONIOM, Crystal-QMMM,
                                                   LR-CPCM, SF, NACMEs, symmetry and pop. for TD-DFT,
                                                   nearIR, NL-DFT gradient (VV10), updates on ESD,
                                                   ML-optimized integration grids
   S Lehtola, MJT Oliveira, MAL Marques          : LibXC Library
   Liviu Ungur et al                             : ANISO software


 Your calculation uses the libint2 library for the computation of 2-el integrals
 For citations please refer to: http://libint.valeyev.net

 Your ORCA version has been built with support for libXC version: 5.1.0
 For citations please refer to: https://tddft.org/programs/libxc/

 This ORCA versions uses:
   CBLAS   interface :  Fast vector & matrix operations
   LAPACKE interface :  Fast linear algebra routines
   SCALAPACK package :  Parallel linear algebra routines
   Shared memory     :  Shared parallel matrices
   BLAS/LAPACK       :  OpenBLAS 0.3.15  USE64BITINT DYNAMIC_ARCH NO_AFFINITY Sandybridge SINGLE_THREADED
        Core in use  :  Sandybridge
   Copyright (c) 2011-2014, The OpenBLAS Project




***************************************
The coordinates will be read from file: 3.xyz
***************************************


================================================================================

cite the ECPs for Au [Def2-ECP] as follows:
Ce-Yb(ecp-28): M. Dolg, H. Stoll, H.Preuss, J. Chem. Phys., 1989, 90, 1730-1734.
Y-Cd(ecp-28), Hf-Hg(ecp-46): D. Andrae,U. Haeussermann, M. Dolg, H. Stoll, H. Preuss, Theor. Chim. Acta, 1990, 77, 123-141.
In-Sb(ecp-28), Tl-Bi(ecp-46): B. Metz, H. Stoll, M. Dolg, J. Chem. Phys., 2000, 113, 2563-2569.
Te-Xe(ecp-28), Po-Rn(ecp-46): K. A. Peterson, D. Figgen, E. Goll, H. Stoll, M. Dolg, J. Chem. Phys., 2003, 119, 11113-11123.
Rb(ecp-28), Cs(ecp-46): T. Leininger, A. Nicklass, W. Kuechle, H. Stoll, M. Dolg, A. Bergner, Chem. Phys. Lett., 1996, 255, 274-280.
Sr(ecp-28), Ba(ecp-46): M. Kaupp, P. V. Schleyer, H. Stoll and H. Preuss, J. Chem. Phys., 1991, 94, 1360-1366.
La(ecp-46): M. Dolg, H. Stoll, A. Savin, H. Preuss, Theor. Chim. Acta, 1989, 75, 173-194.
Lu(ecp-28): X. Cao, M. Dolg, J. Chem. Phys., 2001, 115, 7348-7355.

ECP parameters for Au [Def2-ECP] have been obtained from:
TURBOMOLE (7.0.2)

----- Orbital basis set information -----
Your calculation utilizes the basis: def2-TZVP
   F. Weigend and R. Ahlrichs, Phys. Chem. Chem. Phys. 7, 3297 (2005).

----- AuxJ basis set information -----
Your calculation utilizes the auxiliary basis: def2/J
   F. Weigend, Phys. Chem. Chem. Phys. 8, 1057 (2006).

================================================================================
                                        WARNINGS
                       Please study these warnings very carefully!
================================================================================


WARNING: your system is open-shell and RHF/RKS was chosen
  ===> : WILL SWITCH to UHF/UKS


WARNING: Geometry Optimization
  ===> : Switching off AutoStart
         For restart on a previous wavefunction, please use MOREAD

INFO   : the flag for use of the SHARK integral package has been found!

================================================================================
                                       INPUT FILE
================================================================================
NAME = pbe.inp
|  1> %pal nprocs 1 end 
|  2> 
|  3> !PBE def2-TZVP OPT UNO
|  4> !SLOWCONV KDIIS 
|  5> 
|  6> %geom maxiter 300 end
|  7> 
|  8> *xyzfile 0 4 3.xyz                           ****END OF INPUT****
================================================================================

                       *****************************
                       * Geometry Optimization Run *
                       *****************************

Geometry optimization settings:
Update method            Update   .... BFGS
Choice of coordinates    CoordSys .... Z-matrix Internals
Initial Hessian          InHess   .... Almoef's Model

Convergence Tolerances:
Energy Change            TolE     ....  5.0000e-06 Eh
Max. Gradient            TolMAXG  ....  3.0000e-04 Eh/bohr
RMS Gradient             TolRMSG  ....  1.0000e-04 Eh/bohr
Max. Displacement        TolMAXD  ....  4.0000e-03 bohr
RMS Displacement         TolRMSD  ....  2.0000e-03 bohr
Strict Convergence                ....  False
------------------------------------------------------------------------------
                        ORCA OPTIMIZATION COORDINATE SETUP
------------------------------------------------------------------------------

The optimization will be done in new redundant internal coordinates
Making redundant internal coordinates   ...  (new redundants) done
Evaluating the initial hessian          ...  (Almloef) done
Evaluating the coordinates              ...  done
Calculating the B-matrix                .... done
Calculating the G-matrix                .... done
Diagonalizing the G-matrix              .... done
The first mode is                       ....  130
The number of degrees of freedom        ....   27

    -----------------------------------------------------------------
                    Redundant Internal Coordinates


    -----------------------------------------------------------------
         Definition                    Initial Value    Approx d2E/dq
    -----------------------------------------------------------------
      1. B(Au  4,Au  1)                  2.7965         0.006901   
      2. B(Au  4,Au  0)                  2.7589         0.007924   
      3. B(Au  5,Au  4)                  2.7472         0.008271   
      4. B(Au  8,Au  2)                  2.8178         0.006381   
      5. B(Au  8,Au  7)                  2.7688         0.007642   
      6. B(Au  8,Au  6)                  2.9527         0.003889   
      7. B(Au  9,Au  6)                  2.8754         0.005164   
      8. B(Au  9,Au  3)                  2.7510         0.008156   
      9. B(Au  9,Au  2)                  2.9064         0.004609   
     10. B(Au  9,Au  8)                  2.8105         0.006556   
     11. B(Mn 10,Au  7)                  2.5236         0.136715   
     12. B(Mn 10,Au  6)                  2.5459         0.125955   
     13. B(Mn 10,Au  2)                  2.6403         0.089064   
     14. B(Mn 10,Au  5)                  2.4809         0.159926   
     15. B(Mn 10,Au  3)                  2.5047         0.146574   
     16. B(Mn 10,Au  1)                  2.5906         0.106911   
     17. B(Mn 10,Au  0)                  2.5041         0.146907   
     18. A(Au  4,Au  0,Mn 10)           87.7882         0.203269   
     19. A(Au  4,Au  1,Mn 10)           85.3172         0.192065   
     20. A(Au  9,Au  2,Mn 10)           80.7412         0.179254   
     21. A(Au  8,Au  2,Au  9)           58.7854         0.133315   
     22. A(Au  8,Au  2,Mn 10)           88.6035         0.186153   
     23. A(Au  9,Au  3,Mn 10)           86.2866         0.203961   
     24. A(Au  0,Au  4,Au  5)           83.5357         0.142127   
     25. A(Au  1,Au  4,Au  5)           65.9863         0.140492   
     26. A(Au  0,Au  4,Au  1)           65.0094         0.139994   
     27. A(Au  4,Au  5,Mn 10)           88.5129         0.206622   
     28. A(Au  9,Au  6,Mn 10)           82.9346         0.189167   
     29. A(Au  8,Au  6,Au  9)           57.6439         0.129649   
     30. A(Au  8,Au  6,Mn 10)           87.5168         0.182937   
     31. A(Au  8,Au  7,Mn 10)           92.1075         0.200507   
     32. A(Au  2,Au  8,Au  9)           62.1810         0.136995   
     33. A(Au  6,Au  8,Au  9)           59.7985         0.131905   
     34. A(Au  2,Au  8,Au  7)           68.2732         0.138689   
     35. A(Au  2,Au  8,Au  6)           81.9319         0.131644   
     36. A(Au  7,Au  8,Au  9)          104.7242         0.138994   
     37. A(Au  6,Au  8,Au  7)           60.4055         0.133419   
     38. A(Au  2,Au  9,Au  3)           81.1926         0.135847   
     39. A(Au  6,Au  9,Au  8)           62.5575         0.134751   
     40. A(Au  3,Au  9,Au  8)          113.9893         0.139737   
     41. A(Au  2,Au  9,Au  8)           59.0336         0.133587   
     42. A(Au  3,Au  9,Au  6)           61.3338         0.137069   
     43. A(Au  2,Au  9,Au  6)           81.7706         0.131243   
     44. A(Au  5,Mn 10,Au  6)          122.6292         0.333330   
     45. A(Au  3,Mn 10,Au  6)           69.2989         0.328556   
     46. A(Au  0,Mn 10,Au  5)           94.7404         0.341989   
     47. A(Au  2,Mn 10,Au  6)           93.7103         0.303012   
     48. A(Au  1,Mn 10,Au  6)          155.5046         0.312045   
     49. A(Au  2,Mn 10,Au  3)           91.3967         0.310483   
     50. A(Au  1,Mn 10,Au  2)           61.8436         0.295217   
     51. A(Au  0,Mn 10,Au  6)          120.8608         0.328679   
     52. A(Au  6,Mn 10,Au  7)           69.3051         0.324811   
     53. A(Au  5,Mn 10,Au  7)          158.3358         0.337906   
     54. A(Au  3,Mn 10,Au  5)           64.5646         0.341860   
     55. A(Au  1,Mn 10,Au  3)          107.3884         0.319831   
     56. A(Au  3,Mn 10,Au  7)          135.1075         0.333043   
     57. A(Au  2,Mn 10,Au  7)           74.7294         0.307020   
     58. A(Au  2,Mn 10,Au  5)          118.9822         0.314897   
     59. A(Au  1,Mn 10,Au  7)          103.0142         0.316222   
     60. A(Au  0,Mn 10,Au  7)           64.2210         0.333168   
     61. A(Au  1,Mn 10,Au  5)           73.0316         0.324431   
     62. A(Au  0,Mn 10,Au  3)          157.6994         0.337046   
     63. A(Au  0,Mn 10,Au  2)          106.7453         0.310597   
     64. A(Au  0,Mn 10,Au  1)           71.7250         0.319949   
     65. D(Au  0,Au  4,Au  1,Mn 10)     47.8590         0.001501   
     66. D(Au  5,Au  4,Au  0,Mn 10)     16.5633         0.001502   
     67. D(Au  5,Au  4,Au  1,Mn 10)    -46.2513         0.001501   
     68. D(Au  1,Au  4,Au  0,Mn 10)    -49.9178         0.001502   
     69. D(Mn 10,Au  5,Au  4,Au  1)     48.7668         0.001502   
     70. D(Mn 10,Au  5,Au  4,Au  0)    -16.7151         0.001502   
     71. D(Au  7,Au  8,Au  6,Mn 10)     48.7655         0.001501   
     72. D(Au  2,Au  8,Au  6,Mn 10)    -20.7798         0.001501   
     73. D(Au  9,Au  8,Au  2,Mn 10)     80.0137         0.001501   
     74. D(Au  7,Au  8,Au  6,Au  9)    131.9731         0.001501   
     75. D(Au  6,Au  8,Au  2,Mn 10)     19.9916         0.001501   
     76. D(Au  2,Au  8,Au  6,Au  9)     62.4278         0.001501   
     77. D(Au  2,Au  8,Au  7,Mn 10)     43.6842         0.001502   
     78. D(Au  9,Au  8,Au  6,Mn 10)    -83.2076         0.001501   
     79. D(Au  7,Au  8,Au  2,Au  9)   -121.3071         0.001501   
     80. D(Au  6,Au  8,Au  7,Mn 10)    -49.3293         0.001502   
     81. D(Au  7,Au  8,Au  2,Mn 10)    -41.2935         0.001501   
     82. D(Au  9,Au  8,Au  7,Mn 10)     -7.6961         0.001502   
     83. D(Au  6,Au  8,Au  2,Au  9)    -60.0221         0.001501   
     84. D(Au  3,Au  9,Au  6,Mn 10)    -52.1704         0.001501   
     85. D(Au  2,Au  9,Au  6,Mn 10)     32.2488         0.001501   
     86. D(Au  2,Au  9,Au  3,Mn 10)    -32.4095         0.001502   
     87. D(Au  8,Au  9,Au  2,Mn 10)    -94.0089         0.001501   
     88. D(Au  6,Au  9,Au  3,Mn 10)     52.9806         0.001502   
     89. D(Au  2,Au  9,Au  6,Au  8)    -59.2893         0.001501   
     90. D(Au  3,Au  9,Au  6,Au  8)   -143.7085         0.001501   
     91. D(Au  2,Au  9,Au  8,Au  7)     55.1496         0.001501   
     92. D(Au  3,Au  9,Au  2,Mn 10)     30.9352         0.001501   
     93. D(Au  3,Au  9,Au  8,Au  2)    -62.4529         0.001501   
     94. D(Au  3,Au  9,Au  8,Au  7)     -7.3032         0.001501   
     95. D(Au  6,Au  9,Au  8,Au  7)    -41.9452         0.001501   
     96. D(Au  3,Au  9,Au  8,Au  6)     34.6419         0.001501   
     97. D(Au  6,Au  9,Au  2,Mn 10)    -31.1556         0.001501   
     98. D(Au  6,Au  9,Au  2,Au  8)     62.8533         0.001501   
     99. D(Au  3,Au  9,Au  2,Au  8)    124.9442         0.001501   
    100. D(Au  2,Au  9,Au  8,Au  6)     97.0948         0.001501   
    101. D(Au  6,Au  9,Au  8,Au  2)    -97.0948         0.001501   
    102. D(Au  8,Au  9,Au  6,Mn 10)     91.5381         0.001501   
    103. D(Au  8,Au  9,Au  3,Mn 10)     17.8843         0.001502   
    104. D(Au  7,Mn 10,Au  2,Au  9)    102.7854         0.001533   
    105. D(Au  6,Mn 10,Au  2,Au  8)    -23.1661         0.001533   
    106. D(Au  6,Mn 10,Au  2,Au  9)     35.4166         0.001533   
    107. D(Au  5,Mn 10,Au  2,Au  9)    -95.3972         0.001533   
    108. D(Au  3,Mn 10,Au  2,Au  8)    -92.5098         0.001533   
    109. D(Au  3,Mn 10,Au  2,Au  9)    -33.9272         0.001533   
    110. D(Au  1,Mn 10,Au  2,Au  9)   -142.9539         0.001533   
    111. D(Au  0,Mn 10,Au  2,Au  8)    100.6346         0.001533   
    112. D(Au  0,Mn 10,Au  2,Au  9)    159.2173         0.001533   
    113. D(Au  7,Mn 10,Au  1,Au  4)   -108.1221         0.001543   
    114. D(Au  6,Mn 10,Au  1,Au  4)   -176.5593         0.001543   
    115. D(Au  5,Mn 10,Au  1,Au  4)     49.8126         0.001543   
    116. D(Au  3,Mn 10,Au  1,Au  4)    105.3340         0.001543   
    117. D(Au  2,Mn 10,Au  1,Au  4)   -172.6349         0.001543   
    118. D(Au  1,Mn 10,Au  2,Au  8)    158.4634         0.001533   
    119. D(Au  5,Mn 10,Au  7,Au  8)   -177.5385         0.001569   
    120. D(Au  0,Mn 10,Au  1,Au  4)    -51.2427         0.001543   
    121. D(Au  7,Mn 10,Au  0,Au  4)    167.0496         0.001579   
    122. D(Au  5,Mn 10,Au  2,Au  8)   -153.9799         0.001533   
    123. D(Au  1,Mn 10,Au  7,Au  8)   -100.8080         0.001569   
    124. D(Au  0,Mn 10,Au  7,Au  8)   -162.8358         0.001569   
    125. D(Au  6,Mn 10,Au  0,Au  4)   -151.1765         0.001579   
    126. D(Au  7,Mn 10,Au  2,Au  8)     44.2027         0.001533   
    127. D(Au  5,Mn 10,Au  0,Au  4)    -18.3452         0.001579   
    128. D(Au  5,Mn 10,Au  6,Au  9)     92.5446         0.001563   
    129. D(Au  3,Mn 10,Au  0,Au  4)    -39.3527         0.001579   
    130. D(Au  2,Mn 10,Au  0,Au  4)    103.8416         0.001579   
    131. D(Au  2,Mn 10,Au  6,Au  8)     22.0660         0.001563   
    132. D(Au  2,Mn 10,Au  6,Au  9)    -35.6304         0.001563   
    133. D(Au  1,Mn 10,Au  0,Au  4)     52.0345         0.001579   
    134. D(Au  1,Mn 10,Au  6,Au  9)    -32.1637         0.001563   
    135. D(Au  0,Mn 10,Au  6,Au  8)    -89.9641         0.001563   
    136. D(Au  0,Mn 10,Au  6,Au  9)   -147.6605         0.001563   
    137. D(Au  7,Mn 10,Au  5,Au  4)     31.6758         0.001593   
    138. D(Au  6,Mn 10,Au  5,Au  4)    150.0440         0.001593   
    139. D(Au  3,Mn 10,Au  5,Au  4)   -170.2456         0.001593   
    140. D(Au  2,Mn 10,Au  5,Au  4)    -93.6944         0.001593   
    141. D(Au  1,Mn 10,Au  5,Au  4)    -50.8326         0.001593   
    142. D(Au  1,Mn 10,Au  6,Au  8)     25.5327         0.001563   
    143. D(Au  0,Mn 10,Au  5,Au  4)     18.4181         0.001593   
    144. D(Au  7,Mn 10,Au  3,Au  9)    -33.9090         0.001579   
    145. D(Au  3,Mn 10,Au  6,Au  9)     54.4617         0.001563   
    146. D(Au  3,Mn 10,Au  6,Au  8)    112.1581         0.001563   
    147. D(Au  6,Mn 10,Au  3,Au  9)    -57.7625         0.001579   
    148. D(Au  5,Mn 10,Au  6,Au  8)    150.2410         0.001563   
    149. D(Au  7,Mn 10,Au  6,Au  9)   -107.7739         0.001563   
    150. D(Au  7,Mn 10,Au  6,Au  8)    -50.0775         0.001563   
    151. D(Au  5,Mn 10,Au  3,Au  9)    157.3519         0.001579   
    152. D(Au  2,Mn 10,Au  3,Au  9)     35.6764         0.001579   
    153. D(Au  2,Mn 10,Au  7,Au  8)    -45.2206         0.001569   
    154. D(Au  3,Mn 10,Au  7,Au  8)     30.9965         0.001569   
    155. D(Au  1,Mn 10,Au  3,Au  9)     96.5335         0.001579   
    156. D(Au  6,Mn 10,Au  7,Au  8)     54.8489         0.001569   
    157. D(Au  0,Mn 10,Au  3,Au  9)   -179.3440         0.001579   
    -----------------------------------------------------------------

Number of atoms                         .... 11
Number of degrees of freedom            .... 157

         *************************************************************
         *                GEOMETRY OPTIMIZATION CYCLE   1            *
         *************************************************************
---------------------------------
CARTESIAN COORDINATES (ANGSTROEM)
---------------------------------
  Au     9.498618    7.364049    9.411132
  Au     7.145325    5.649607    8.751023
  Au     5.720090    7.713065    7.782610
  Au     7.753351    6.790077    4.853300
  Au     9.724542    4.630768    9.111660
  Au     9.094369    5.177656    6.494202
  Au     8.369434    9.458059    5.718900
  Au     8.150026    9.521252    8.592456
  Au     5.979055   10.445239    7.143604
  Au     5.707948    8.622017    5.022010
  Mn     8.281993    7.405694    7.222890

----------------------------
CARTESIAN COORDINATES (A.U.)
----------------------------
  NO LB      ZA    FRAG     MASS         X           Y           Z
   0 Au   19.0000*   0   196.966   17.949786   13.916036   17.784463
   1 Au   19.0000*   0   196.966   13.502708   10.676210   16.537036
   2 Au   19.0000*   0   196.966   10.809403   14.575580   14.707001
   3 Au   19.0000*   0   196.966   14.651709   12.831387    9.171408
   4 Au   19.0000*   0   196.966   18.376720    8.750883   17.218542
   5 Au   19.0000*   0   196.966   17.185866    9.784352   12.272264
   6 Au   19.0000*   0   196.966   15.815938   17.873141   10.807155
   7 Au   19.0000*   0   196.966   15.401317   17.992559   16.237388
   8 Au   19.0000*   0   196.966   11.298776   19.738642   13.499455
   9 Au   19.0000*   0   196.966   10.786459   16.293252    9.490223
  10 Mn   25.0000    0    54.940   15.650699   13.994733   13.649284
* core charge reduced due to ECP

--------------------------------
INTERNAL COORDINATES (ANGSTROEM)
--------------------------------
 Au     0   0   0     0.000000000000     0.00000000     0.00000000
 Au     1   0   0     2.985471442012     0.00000000     0.00000000
 Au     2   1   0     2.688303831407    93.25406144     0.00000000
 Au     3   2   1     3.683328476897    78.55008814    83.89226233
 Au     1   2   3     2.758904183302    58.10392469   200.34796317
 Au     4   3   2     2.662853817417    86.54066230   350.80126551
 Au     4   3   2     2.871749718795    69.26206774   242.69306665
 Au     1   2   3     2.672537368801    89.88763667     2.64109710
 Au     8   1   2     2.768761181304   145.62191501   343.18319536
 Au     4   3   2     2.751025068721    51.23942620   173.24051230
 Mn     6   4   3     2.480945688129    58.14936475   322.34019259

---------------------------
INTERNAL COORDINATES (A.U.)
---------------------------
 Au     0   0   0     0.000000000000     0.00000000     0.00000000
 Au     1   0   0     5.641723406046     0.00000000     0.00000000
 Au     2   1   0     5.080158006130    93.25406144     0.00000000
 Au     3   2   1     6.960482082610    78.55008814    83.89226233
 Au     1   2   3     5.213573336171    58.10392469   200.34796317
 Au     4   3   2     5.032064449585    86.54066230   350.80126551
 Au     4   3   2     5.426820493688    69.26206774   242.69306665
 Au     1   2   3     5.050363709705    89.88763667     2.64109710
 Au     8   1   2     5.232200362896   145.62191501   343.18319536
 Au     4   3   2     5.198683967434    51.23942620   173.24051230
 Mn     6   4   3     4.688307903698    58.14936475   322.34019259

---------------------
BASIS SET INFORMATION
---------------------
There are 2 groups of distinct atoms

 Group   1 Type Au  : 8s7p6d1f contracted to 6s4p3d1f pattern {311111/4111/411/1}
 Group   2 Type Mn  : 17s11p7d1f contracted to 6s4p4d1f pattern {842111/6311/4111/1}

Atom   0Au   basis set group =>   1
Atom   1Au   basis set group =>   1
Atom   2Au   basis set group =>   1
Atom   3Au   basis set group =>   1
Atom   4Au   basis set group =>   1
Atom   5Au   basis set group =>   1
Atom   6Au   basis set group =>   1
Atom   7Au   basis set group =>   1
Atom   8Au   basis set group =>   1
Atom   9Au   basis set group =>   1
Atom  10Mn   basis set group =>   2
---------------------------------
AUXILIARY/J BASIS SET INFORMATION
---------------------------------
There are 2 groups of distinct atoms

 Group   1 Type Au  : 11s5p5d3f3g contracted to 8s5p5d2f3g pattern {41111111/11111/11111/21/111}
 Group   2 Type Mn  : 19s5p5d3f3g contracted to 8s5p5d2f3g pattern {121111111/11111/11111/21/111}

Atom   0Au   basis set group =>   1
Atom   1Au   basis set group =>   1
Atom   2Au   basis set group =>   1
Atom   3Au   basis set group =>   1
Atom   4Au   basis set group =>   1
Atom   5Au   basis set group =>   1
Atom   6Au   basis set group =>   1
Atom   7Au   basis set group =>   1
Atom   8Au   basis set group =>   1
Atom   9Au   basis set group =>   1
Atom  10Mn   basis set group =>   2
-------------------------
ECP PARAMETER INFORMATION
-------------------------

 Group 1, Type Au ECP Def2-ECP (replacing 60 core electrons, lmax=3)

Atom   0Au   ECP group =>   1
Atom   1Au   ECP group =>   1
Atom   2Au   ECP group =>   1
Atom   3Au   ECP group =>   1
Atom   4Au   ECP group =>   1
Atom   5Au   ECP group =>   1
Atom   6Au   ECP group =>   1
Atom   7Au   ECP group =>   1
Atom   8Au   ECP group =>   1
Atom   9Au   ECP group =>   1

------------------------------------------------------------------------------
                           ORCA GTO INTEGRAL CALCULATION
                           -- RI-GTO INTEGRALS CHOSEN --
------------------------------------------------------------------------------
------------------------------------------------------------------------------
                   ___                                                        
                  /   \      - P O W E R E D   B Y -                         
                 /     \                                                     
                 |  |  |   _    _      __       _____    __    __             
                 |  |  |  | |  | |    /  \     |  _  \  |  |  /  |          
                  \  \/   | |  | |   /    \    | | | |  |  | /  /          
                 / \  \   | |__| |  /  /\  \   | |_| |  |  |/  /          
                |  |  |   |  __  | /  /__\  \  |    /   |      \           
                |  |  |   | |  | | |   __   |  |    \   |  |\   \          
                \     /   | |  | | |  |  |  |  | |\  \  |  | \   \       
                 \___/    |_|  |_| |__|  |__|  |_| \__\ |__|  \__/        
                                                                              
                      - O R C A' S   B I G   F R I E N D -                    
                                      &                                       
                       - I N T E G R A L  F E E D E R -                       
                                                                              
 v1 FN, 2020, v2 2021                                                         
------------------------------------------------------------------------------


Reading SHARK input file pbe.SHARKINP.tmp ... ok
----------------------
SHARK INTEGRAL PACKAGE
----------------------

Number of atoms                             ...     11
Number of basis functions                   ...    445
Number of shells                            ...    155
Maximum angular momentum                    ...      3
Integral batch strategy                     ... SHARK/LIBINT Hybrid
RI-J (if used) integral strategy            ... SPLIT-RIJ (Revised 2003 algorithm where possible)
Printlevel                                  ...      1
Contraction scheme used                     ... SEGMENTED contraction
Coulomb Range Separation                    ... NOT USED
Exchange Range Separation                   ... NOT USED
Finite Nucleus Model                        ... NOT USED
Auxiliary Coulomb fitting basis             ... AVAILABLE
   # of basis functions in Aux-J            ...    979
   # of shells in Aux-J                     ...    253
   Maximum angular momentum in Aux-J        ...      4
Auxiliary J/K fitting basis                 ... NOT available
Auxiliary Correlation fitting basis         ... NOT available
Auxiliary 'external' fitting basis          ... NOT available
Integral threshold                          ...     2.500000e-11
Primitive cut-off                           ...     2.500000e-12
Primitive pair pre-selection threshold      ...     2.500000e-12

Calculating pre-screening integrals         ... done (  0.4 sec) Dimension = 155
Organizing shell pair data                  ... done (  1.9 sec)
Shell pair information
Total number of shell pairs                 ...     12090
Shell pairs after pre-screening             ...     10023
Total number of primitive shell pairs       ...     33105
Primitive shell pairs kept                  ...     20273
          la=0 lb=0:   1567 shell pairs
          la=1 lb=0:   2294 shell pairs
          la=1 lb=1:    863 shell pairs
          la=2 lb=0:   1969 shell pairs
          la=2 lb=1:   1392 shell pairs
          la=2 lb=2:    576 shell pairs
          la=3 lb=0:    547 shell pairs
          la=3 lb=1:    408 shell pairs
          la=3 lb=2:    346 shell pairs
          la=3 lb=3:     61 shell pairs

Calculating one electron integrals          ... done (  0.1 sec)
Calculating ECP integrals                   ... done (  5.7 sec)
Calculating RI/J V-Matrix + Cholesky decomp.... done (  0.1 sec)
Calculating Nuclear repulsion               ... done (  0.0 sec) ENN=   3185.691378589884 Eh

SHARK setup successfully completed in   9.0 seconds

Maximum memory used throughout the entire GTOINT-calculation: 301.0 MB
-------------------------------------------------------------------------------
                                 ORCA SCF
-------------------------------------------------------------------------------

------------
SCF SETTINGS
------------
Hamiltonian:
 Density Functional     Method          .... DFT(GTOs)
 Exchange Functional    Exchange        .... PBE
   PBE kappa parameter   XKappa         ....  0.804000
   PBE mue parameter    XMuePBE         ....  0.219520
 Correlation Functional Correlation     .... PBE
   PBE beta parameter  CBetaPBE         ....  0.066725
 LDA part of GGA corr.  LDAOpt          .... PW91-LDA
 Gradients option       PostSCFGGA      .... off
   Density functional embedding theory  .... OFF
   NL short-range parameter             ....  6.400000
 RI-approximation to the Coulomb term is turned on
   Number of AuxJ basis functions       .... 979


General Settings:
 Integral files         IntName         .... pbe
 Hartree-Fock type      HFTyp           .... UHF
 Total Charge           Charge          ....    0
 Multiplicity           Mult            ....    4
 Number of Electrons    NEL             ....  215
 Basis Dimension        Dim             ....  445
 Nuclear Repulsion      ENuc            ....   3185.6913785899 Eh

Convergence Acceleration:
 DIIS                   CNVDIIS         .... off
 Trust-Rad. Augm. Hess. CNVTRAH         .... auto
   Auto Start mean grad. ratio tolernc. ....  1.125000
   Auto Start start iteration           ....    20
   Auto Start num. interpolation iter.  ....    10
   Max. Number of Micro iterations      ....    16
   Max. Number of Macro iterations      .... Maxiter - #DIIS iter
   Number of Davidson start vectors     ....     2
   Converg. threshold I  (grad. norm)   ....   1.000e-05
   Converg. threshold II (energy diff.) ....   1.000e-08
   Grad. Scal. Fac. for Micro threshold ....   0.100
   Minimum threshold for Micro iter.    ....   0.010
   NR start threshold (gradient norm)   ....   0.001
   Initial trust radius                 ....   0.400
   Minimum AH scaling param. (alpha)    ....   1.000
   Maximum AH scaling param. (alpha)    .... 1000.000
   Orbital update algorithm             .... Taylor
   White noise on init. David. guess    .... on
   Maximum white noise                  ....   0.010
   Quad. conv. algorithm                .... NR
 SOSCF                  CNVSOSCF        .... off
 Level Shifting         CNVShift        .... off
 Zerner damping         CNVZerner       .... off
 Static damping         CNVDamp         .... off
 Fernandez-Rico         CNVRico         .... off

SCF Procedure:
 Maximum # iterations   MaxIter         ....   125
 SCF integral mode      SCFMode         .... Direct
   Integral package                     .... SHARK and LIBINT hybrid scheme
 Reset frequency        DirectResetFreq ....    20
 Integral Threshold     Thresh          ....  2.500e-11 Eh
 Primitive CutOff       TCut            ....  2.500e-12 Eh

Convergence Tolerance:
 Convergence Check Mode ConvCheckMode   .... Total+1el-Energy
 Convergence forced     ConvForced      .... 0
 Energy Change          TolE            ....  1.000e-08 Eh
 1-El. energy change                    ....  1.000e-05 Eh


Diagonalization of the overlap matrix:
Smallest eigenvalue                        ... 3.981e-04
Time for diagonalization                   ...    0.050 sec
Threshold for overlap eigenvalues          ... 1.000e-08
Number of eigenvalues below threshold      ... 0
Time for construction of square roots      ...    0.019 sec
Total time needed                          ...    0.070 sec

Time for model grid setup =    1.248 sec

------------------------------
INITIAL GUESS: MODEL POTENTIAL
------------------------------
Loading Hartree-Fock densities                     ... done
  calling /home/ehlert/src/miniconda3/envs/orca500/Programs/ORCA501/orca pbe_atom79.inp > pbe_atom79.out in order to generate an atomic fitting density for atom 0 (Au with ECP) on-the-fly... 
    atom 0 (Au), assumed electronic state with S=2: 1s2 2s2 2p6 3s2 3p6 4s2 3d10 4p6 5s2 4d10 5p6 6s1 4f14 5d10           ... done
Calculating cut-offs                               ... done
Initializing the effective Hamiltonian             ... done
Setting up the integral package (SHARK)            ... done
Starting the Coulomb interaction                   ... done (   1.4 sec)
Reading the grid                                   ... done
Mapping shells                                     ... done
Starting the XC term evaluation                    ... done (   2.0 sec)
  promolecular density results
     # of electrons  =    815.011797784
     EX              =  -3708.825674214
     EC              =    -49.500574746
     EX+EC           =  -3758.326248960
Transforming the Hamiltonian                       ... done (   0.0 sec)
Diagonalizing the Hamiltonian                      ... done (   0.1 sec)
Back transforming the eigenvectors                 ... done (   0.0 sec)
Now organizing SCF variables                       ... done
                      ------------------
                      INITIAL GUESS DONE (   5.6 sec)
                      ------------------
-------------------
DFT GRID GENERATION
-------------------

General Integration Accuracy     IntAcc      ... 4.388
Radial Grid Type                 RadialGrid  ... OptM3 with GC (2021)
Angular Grid (max. ang.)         AngularGrid ... 4 (Lebedev-302)
Angular grid pruning method      GridPruning ... 4 (adaptive)
Weight generation scheme         WeightScheme... Becke
Basis function cutoff            BFCut       ... 1.0000e-11
Integration weight cutoff        WCut        ... 1.0000e-14
Angular grids for H and He will be reduced by one unit
Partially contracted basis set               ... off
Rotationally invariant grid construction     ... off

Total number of grid points                  ...   123360
Total number of batches                      ...     1933
Average number of points per batch           ...       63
Average number of grid points per atom       ...    11215
Time for grid setup =    2.952 sec

--------------
SCF ITERATIONS
--------------
ITER       Energy         Delta-E        Max-DP      RMS-DP      [F,P]   Gradient Norm
               ***  Starting incremental Fock matrix formation  ***
                             ****Resetting KDIIS****
                             ****Turning on KDIIS(Cayley)****
  0  -2507.0034680982   0.000000000000 0.23779436  0.00168979  0.3538369   0.230754676
  1  -2508.2060900211  -1.202621922890 0.50542133  0.00193222  0.3165153   0.165887052
  2  -2508.6518009020  -0.445710880921 0.14009376  0.00126044  0.2500479   0.122856123
  3  -2508.8336106585  -0.181809756411 0.13077367  0.00152166  0.1453818   0.070953999
  4  -2508.8976839369  -0.064073278471 0.02647358  0.00043828  0.0290339   0.017071945
  5  -2508.9208313853  -0.023147448360 0.20642077  0.00085186  0.0148061   0.009459651
  6  -2508.9360812022  -0.015249816940 0.03883429  0.00044657  0.0248937   0.009225649
  7  -2508.9481491799  -0.012067977657 0.02817685  0.00029632  0.0094708   0.005627119
  8  -2508.9495311557  -0.001381975823 0.03316872  0.00021650  0.0090607   0.008134362
  9  -2508.9567853947  -0.007254238985 0.01024204  0.00015361  0.0123563   0.002217153
 10  -2508.9604958668  -0.003710472150 0.00741445  0.00010230  0.0126001   0.002552285
 11  -2508.9632385659  -0.002742699069 0.01862661  0.00010787  0.0130711   0.001869680
 12  -2508.9658005002  -0.002561934245 0.01037215  0.00004187  0.0122570   0.002403713
 13  -2508.9666006871  -0.000800186950 0.00163760  0.00002613  0.0136276   0.001764999
 14  -2508.9658508296   0.000749857533 0.00460376  0.00007132  0.0136290   0.001777256
 15  -2508.9638928422   0.001957987397 0.00940865  0.00009909  0.0131235   0.001751164
 16  -2508.9615485360   0.002344306200 0.03383442  0.00054495  0.0117660   0.002307963
 17  -2508.9494836738   0.012064862184 0.00727714  0.00008888  0.0121416   0.004216066
 18  -2508.9482566701   0.001227003694 0.03592754  0.00054054  0.0126189   0.004118561
 19  -2508.9594627707  -0.011206100633 0.01354718  0.00023812  0.0098781   0.003220107
               *** Restarting incremental Fock matrix formation ***
                             ****Resetting KDIIS****

 WARNING: the maximum gradient error descreased on average only by a factor   1.0
          during the last 20 iterations

                      *** Initiating the TRAH-SCF procedure ***

                    *** KDIIS BlockDiag ( 0.109 sec) ***

TRAH GRID
---------

General Integration Accuracy     IntAcc      ... 3.467
Radial Grid Type                 RadialGrid  ... OptM3 with GC (2021)
Angular Grid (max. ang.)         AngularGrid ... 1 (Lebedev-50)
Angular grid pruning method      GridPruning ... 4 (adaptive)
Weight generation scheme         WeightScheme... Becke
Basis function cutoff            BFCut       ... 1.0000e-11
Integration weight cutoff        WCut        ... 1.0000e-14
Angular grids for H and He will be reduced by one unit
Partially contracted basis set               ... off
Rotationally invariant grid construction     ... off

Total number of grid points                  ...    53272
Total number of batches                      ...      838
Average number of points per batch           ...       63
Average number of grid points per atom       ...     4843

 --------------------------------------------------------------------------------------------
   Iter.        energy            ||Error||_2        Shift      TRadius  Mac/Mic        Rej.
 --------------------------------------------------------------------------------------------
WARNING: 1 diagonal Hessian elements are negative!
    0      -2508.964826708191     4.650735e-02                     0.400 (TRAH MAcro)   No
WARNING : small    HOMO - LUMO gap : (op = alpha) 0.013898
WARNING : negative HOMO - LUMO gap : (op =  beta) -0.028518
    0     dE    -4.768264e-04     8.444487e-02    -4.7678e-04      0.010 (TRAH MIcro)
    0     dE    -6.964179e-03     6.060021e-02    -1.0816e-02      0.400 (TRAH MIcro)
    0     dE    -8.497959e-03     1.039323e-01    -2.0703e-02      0.393 (TRAH MIcro)
    0     dE    -9.564589e-03     5.344769e-02    -2.3313e-02      0.392 (TRAH MIcro)
    0     dE    -1.101393e-02     5.368942e-02    -2.6992e-02      0.390 (TRAH MIcro)
    0     dE    -1.217466e-02     5.638900e-02    -2.9288e-02      0.399 (TRAH MIcro)
    0     dE    -1.395749e-02     6.590201e-02    -3.5513e-02      0.400 (TRAH MIcro)
    0     dE    -1.786011e-02     6.865649e-02    -5.6676e-02      0.400 (TRAH MIcro)
    0     dE    -1.879188e-02     3.691017e-02    -7.3399e-02      0.376 (TRAH MIcro)
    0     dE    -2.104693e-02     1.908665e-02    -7.7764e-02      0.395 (TRAH MIcro)
    0     dE    -2.141781e-02     1.028974e-02    -7.8739e-02      0.396 (TRAH MIcro)
    0     dE    -2.151628e-02     5.223045e-03    -7.8959e-02      0.397 (TRAH MIcro)
    0     dE    -2.153147e-02     2.150975e-03    -7.9010e-02      0.397 (TRAH MIcro)
    1      -2508.983726295458     3.967877e-02                     0.480 (TRAH MAcro)   No
WARNING : small    HOMO - LUMO gap : (op = alpha) 0.018252
WARNING : small    HOMO - LUMO gap : (op =  beta) 0.007808
    1     dE    -5.237803e-04     5.639307e-02    -5.2369e-04      0.013 (TRAH MIcro)
    1     dE    -1.277888e-02     1.849720e-01    -1.1853e-02      0.480 (TRAH MIcro)
    1     dE    -2.043136e-02     3.870343e-02    -4.2370e-02      0.475 (TRAH MIcro)
    1     dE    -2.191966e-02     2.461469e-02    -4.5344e-02      0.480 (TRAH MIcro)
    1     dE    -2.261884e-02     1.487064e-02    -4.7440e-02      0.480 (TRAH MIcro)
    1     dE    -2.272806e-02     7.405188e-03    -4.7812e-02      0.480 (TRAH MIcro)
    1     dE    -2.276087e-02     3.928408e-03    -4.7972e-02      0.480 (TRAH MIcro)
    2      -2509.003621175553     3.716495e-02                     0.576 (TRAH MAcro)   No
    2     dE    -3.455382e-04     3.211949e-02    -3.4551e-04      0.009 (TRAH MIcro)
    2     dE    -6.592805e-03     4.044757e-02    -5.8676e-03      0.352 (TRAH MIcro)
    2     dE    -7.585915e-03     2.097107e-02    -6.5159e-03      0.405 (TRAH MIcro)
    2     dE    -8.046124e-03     1.426527e-02    -6.8318e-03      0.422 (TRAH MIcro)
    2     dE    -8.255190e-03     9.522409e-03    -6.9542e-03      0.433 (TRAH MIcro)
    2     dE    -8.331946e-03     5.314263e-03    -6.9959e-03      0.437 (TRAH MIcro)
    2     dE    -8.355526e-03     2.959453e-03    -7.0066e-03      0.439 (TRAH MIcro)
    3      -2509.010544555280     2.578277e-02                     0.691 (TRAH MAcro)   No
    3     dE    -1.519079e-04     1.925017e-02    -1.5190e-04      0.006 (TRAH MIcro)
    3     dE    -3.222963e-04     9.031037e-03    -3.2208e-04      0.026 (TRAH MIcro)
    3     dE    -4.316734e-04     7.285136e-03    -4.3073e-04      0.047 (TRAH MIcro)
    3     dE    -4.609252e-04     3.565116e-03    -4.5951e-04      0.056 (TRAH MIcro)
    3     dE    -4.666335e-04     1.530680e-03    -4.6508e-04      0.058 (TRAH MIcro)
    4      -2509.010978094584     2.641267e-03                     0.829 (TRAH MAcro)   No
    4     dE    -1.737484e-06     3.965141e-03    -1.7375e-06      0.001 (TRAH MIcro)
    4     dE    -5.255302e-06     2.110912e-03    -5.2552e-06      0.004 (TRAH MIcro)
    4     dE    -8.539384e-06     1.047007e-03    -8.5389e-06      0.008 (TRAH MIcro)
    4     dE    -8.964917e-06     4.962705e-04    -8.9642e-06      0.009 (TRAH MIcro)
    4     dE    -9.052552e-06     2.570528e-04    -9.0518e-06      0.009 (TRAH MIcro)
    5      -2509.010987206341     2.637720e-04                           (NR   MAcro)
    5     dE    -2.248056e-08     1.559168e-04                           (NR   MIcro)
    5     dE    -3.191648e-08     1.331989e-04                           (NR   MIcro)
    5     dE    -3.961408e-08     5.818400e-05                           (NR   MIcro)
    5     dE    -4.123796e-08     3.521571e-05                           (NR   MIcro)
    5     dE    -4.198699e-08     1.810879e-05                           (NR   MIcro)
    5     dE    -4.215890e-08     8.127535e-06                           (NR   MIcro)
    5     dE    -4.219434e-08     3.383822e-06                           (NR   MIcro)
    5     dE    -4.220169e-08     2.042550e-06                           (NR   MIcro)
    5     dE    -4.220450e-08     8.938266e-07                           (NR   MIcro)
    6      -2509.010987248544     8.920697e-07                           (NR   MAcro)
    6     dE    -3.039973e-13     3.952558e-07                           (NR   MIcro)
    7      -2509.010987248549     3.952596e-07                           (NR   MAcro)

               *****************************************************
               *                     SUCCESS                       *
               *           SCF CONVERGED AFTER  75 CYCLES          *
               *****************************************************


----------------
TOTAL SCF ENERGY
----------------

Total Energy       :        -2509.01098725 Eh          -68273.65993 eV

Components:
Nuclear Repulsion  :         3185.69137859 Eh           86687.06950 eV
Electronic Energy  :        -5694.70236584 Eh         -154960.72943 eV
One Electron Energy:       -10336.53937272 Eh         -281271.53590 eV
Two Electron Energy:         4641.83700688 Eh          126310.80647 eV

Virial components:
Potential Energy   :        -4116.08095121 Eh         -112004.25687 eV
Kinetic Energy     :         1607.06996396 Eh           43730.59694 eV
Virial Ratio       :            2.56123320


DFT components:
N(Alpha)           :      108.999988267109 electrons
N(Beta)            :      105.999990291400 electrons
N(Total)           :      214.999978558509 electrons
E(X)               :     -171.339394527100 Eh       
E(C)               :       -9.338035714957 Eh       
E(XC)              :     -180.677430242057 Eh       
DFET-embed. en.    :        0.000000000000 Eh       

---------------
SCF CONVERGENCE
---------------

  Last Energy change         ...   -5.0022e-12  Tolerance :   1.0000e-08
  Last Orbital Gradient      ...    3.9526e-07  Tolerance :   1.0000e-05
  Last Orbital Rotation      ...    7.0724e-07

             **** THE GBW FILE WAS UPDATED (pbe.gbw) ****
             **** DENSITY pbe.scfp WAS UPDATED ****
             **** ENERGY FILE WAS UPDATED (pbe.en.tmp) ****
----------------------
UHF SPIN CONTAMINATION
----------------------

Warning: in a DFT calculation there is little theoretical justification to 
         calculate <S**2> as in Hartree-Fock theory. We will do it anyways
         but you should keep in mind that the values have only limited relevance

Expectation value of <S**2>     :     4.896119
Ideal value S*(S+1) for S=1.5   :     3.750000
Deviation                       :     1.146119

             **** THE GBW FILE WAS UPDATED (pbe.gbw) ****
             **** DENSITY pbe.scfp WAS UPDATED ****
----------------
ORBITAL ENERGIES
----------------
                 SPIN UP ORBITALS
  NO   OCC          E(Eh)            E(eV) 
   0   1.0000    -234.197322     -6372.8331 
   1   1.0000     -26.896821      -731.8997 
   2   1.0000     -23.046786      -627.1349 
   3   1.0000     -23.045458      -627.0988 
   4   1.0000     -23.044580      -627.0749 
   5   1.0000      -4.029950      -109.6605 
   6   1.0000      -4.029695      -109.6536 
   7   1.0000      -4.029289      -109.6425 
   8   1.0000      -4.027187      -109.5853 
   9   1.0000      -4.022452      -109.4565 
  10   1.0000      -4.022260      -109.4513 
  11   1.0000      -4.021870      -109.4406 
  12   1.0000      -4.015726      -109.2734 
  13   1.0000      -4.014907      -109.2512 
  14   1.0000      -4.013443      -109.2113 
  15   1.0000      -3.101457       -84.3949 
  16   1.0000      -2.251033       -61.2537 
  17   1.0000      -2.249397       -61.2092 
  18   1.0000      -2.247692       -61.1628 
  19   1.0000      -2.245849       -61.1127 
  20   1.0000      -2.244671       -61.0806 
  21   1.0000      -2.243267       -61.0424 
  22   1.0000      -2.242241       -61.0145 
  23   1.0000      -2.241738       -61.0008 
  24   1.0000      -2.240290       -60.9614 
  25   1.0000      -2.239704       -60.9454 
  26   1.0000      -2.238193       -60.9043 
  27   1.0000      -2.236565       -60.8600 
  28   1.0000      -2.236036       -60.8456 
  29   1.0000      -2.235530       -60.8319 
  30   1.0000      -2.235237       -60.8239 
  31   1.0000      -2.234875       -60.8140 
  32   1.0000      -2.233635       -60.7803 
  33   1.0000      -2.232892       -60.7601 
  34   1.0000      -2.232063       -60.7375 
  35   1.0000      -2.230866       -60.7050 
  36   1.0000      -2.229786       -60.6756 
  37   1.0000      -2.229491       -60.6675 
  38   1.0000      -2.229071       -60.6561 
  39   1.0000      -2.228889       -60.6512 
  40   1.0000      -2.228243       -60.6336 
  41   1.0000      -2.227709       -60.6190 
  42   1.0000      -2.226420       -60.5840 
  43   1.0000      -2.225913       -60.5702 
  44   1.0000      -2.225035       -60.5463 
  45   1.0000      -2.224172       -60.5228 
  46   1.0000      -2.006517       -54.6001 
  47   1.0000      -2.004490       -54.5449 
  48   1.0000      -2.001410       -54.4611 
  49   1.0000      -0.412310       -11.2195 
  50   1.0000      -0.378304       -10.2942 
  51   1.0000      -0.373902       -10.1744 
  52   1.0000      -0.367428        -9.9982 
  53   1.0000      -0.364658        -9.9229 
  54   1.0000      -0.362127        -9.8540 
  55   1.0000      -0.361298        -9.8314 
  56   1.0000      -0.347989        -9.4693 
  57   1.0000      -0.346991        -9.4421 
  58   1.0000      -0.342027        -9.3070 
  59   1.0000      -0.337100        -9.1729 
  60   1.0000      -0.333486        -9.0746 
  61   1.0000      -0.331890        -9.0312 
  62   1.0000      -0.327774        -8.9192 
  63   1.0000      -0.327444        -8.9102 
  64   1.0000      -0.325321        -8.8524 
  65   1.0000      -0.323631        -8.8065 
  66   1.0000      -0.321460        -8.7474 
  67   1.0000      -0.321018        -8.7353 
  68   1.0000      -0.310244        -8.4422 
  69   1.0000      -0.308833        -8.4038 
  70   1.0000      -0.307147        -8.3579 
  71   1.0000      -0.304282        -8.2799 
  72   1.0000      -0.301454        -8.2030 
  73   1.0000      -0.298028        -8.1098 
  74   1.0000      -0.294519        -8.0143 
  75   1.0000      -0.290656        -7.9092 
  76   1.0000      -0.288120        -7.8401 
  77   1.0000      -0.286584        -7.7983 
  78   1.0000      -0.285459        -7.7677 
  79   1.0000      -0.284993        -7.7550 
  80   1.0000      -0.279822        -7.6144 
  81   1.0000      -0.276563        -7.5257 
  82   1.0000      -0.275573        -7.4987 
  83   1.0000      -0.274328        -7.4648 
  84   1.0000      -0.271944        -7.4000 
  85   1.0000      -0.270962        -7.3733 
  86   1.0000      -0.269492        -7.3332 
  87   1.0000      -0.265848        -7.2341 
  88   1.0000      -0.264826        -7.2063 
  89   1.0000      -0.262716        -7.1489 
  90   1.0000      -0.261484        -7.1153 
  91   1.0000      -0.258203        -7.0260 
  92   1.0000      -0.257212        -6.9991 
  93   1.0000      -0.255905        -6.9635 
  94   1.0000      -0.251630        -6.8472 
  95   1.0000      -0.250254        -6.8098 
  96   1.0000      -0.249223        -6.7817 
  97   1.0000      -0.248437        -6.7603 
  98   1.0000      -0.246108        -6.6969 
  99   1.0000      -0.244494        -6.6530 
 100   1.0000      -0.242739        -6.6053 
 101   1.0000      -0.241839        -6.5808 
 102   1.0000      -0.239005        -6.5037 
 103   1.0000      -0.235957        -6.4207 
 104   1.0000      -0.232866        -6.3366 
 105   1.0000      -0.226401        -6.1607 
 106   1.0000      -0.219346        -5.9687 
 107   1.0000      -0.212054        -5.7703 
 108   1.0000      -0.208579        -5.6757 
 109   0.0000      -0.184122        -5.0102 
 110   0.0000      -0.164573        -4.4783 
 111   0.0000      -0.136900        -3.7252 
 112   0.0000      -0.128785        -3.5044 
 113   0.0000      -0.125612        -3.4181 
 114   0.0000      -0.099572        -2.7095 
 115   0.0000      -0.071261        -1.9391 
 116   0.0000      -0.067768        -1.8441 
 117   0.0000      -0.057846        -1.5741 
 118   0.0000      -0.046208        -1.2574 
 119   0.0000      -0.041028        -1.1164 
 120   0.0000      -0.036624        -0.9966 
 121   0.0000      -0.034126        -0.9286 
 122   0.0000      -0.012482        -0.3396 
 123   0.0000      -0.002003        -0.0545 
 124   0.0000       0.007451         0.2027 
 125   0.0000       0.023293         0.6338 
 126   0.0000       0.026112         0.7105 
 127   0.0000       0.028182         0.7669 
 128   0.0000       0.035730         0.9723 
 129   0.0000       0.049206         1.3390 
 130   0.0000       0.051622         1.4047 
 131   0.0000       0.054228         1.4756 
 132   0.0000       0.057312         1.5595 
 133   0.0000       0.062049         1.6884 
 134   0.0000       0.067523         1.8374 
 135   0.0000       0.071626         1.9490 
 136   0.0000       0.071792         1.9536 
 137   0.0000       0.079450         2.1619 
 138   0.0000       0.089570         2.4373 
 139   0.0000       0.093238         2.5371 
 140   0.0000       0.104978         2.8566 
 141   0.0000       0.115012         3.1296 
 142   0.0000       0.119692         3.2570 
 143   0.0000       0.129547         3.5251 
 144   0.0000       0.145931         3.9710 
 145   0.0000       0.147351         4.0096 
 146   0.0000       0.150551         4.0967 
 147   0.0000       0.156322         4.2537 
 148   0.0000       0.162508         4.4221 
 149   0.0000       0.170939         4.6515 
 150   0.0000       0.173691         4.7264 
 151   0.0000       0.182284         4.9602 
 152   0.0000       0.182987         4.9793 
 153   0.0000       0.187127         5.0920 
 154   0.0000       0.210105         5.7172 
 155   0.0000       0.219953         5.9852 
 156   0.0000       0.224559         6.1105 
 157   0.0000       0.229466         6.2441 
 158   0.0000       0.235281         6.4023 
 159   0.0000       0.241560         6.5732 
 160   0.0000       0.241938         6.5835 
 161   0.0000       0.248168         6.7530 
 162   0.0000       0.255218         6.9448 
 163   0.0000       0.257242         6.9999 
 164   0.0000       0.260005         7.0751 
 165   0.0000       0.263348         7.1661 
 166   0.0000       0.270778         7.3683 
 167   0.0000       0.277419         7.5490 
 168   0.0000       0.286163         7.7869 
 169   0.0000       0.291926         7.9437 
 170   0.0000       0.294083         8.0024 
 171   0.0000       0.298501         8.1226 
 172   0.0000       0.307124         8.3573 
 173   0.0000       0.309141         8.4122 
 174   0.0000       0.313857         8.5405 
 175   0.0000       0.318293         8.6612 
 176   0.0000       0.329561         8.9678 
 177   0.0000       0.330187         8.9848 
 178   0.0000       0.331833         9.0296 
 179   0.0000       0.341881         9.3030 
 180   0.0000       0.343923         9.3586 
 181   0.0000       0.348745         9.4898 
 182   0.0000       0.351657         9.5691 
 183   0.0000       0.360859         9.8195 
 184   0.0000       0.368542        10.0285 
 185   0.0000       0.373529        10.1642 
 186   0.0000       0.378821        10.3082 
 187   0.0000       0.390231        10.6187 
 188   0.0000       0.390648        10.6301 
 189   0.0000       0.400272        10.8919 
 190   0.0000       0.407472        11.0879 
 191   0.0000       0.417072        11.3491 
 192   0.0000       0.421743        11.4762 
 193   0.0000       0.423053        11.5119 
 194   0.0000       0.423727        11.5302 
 195   0.0000       0.430633        11.7181 
 196   0.0000       0.440526        11.9873 
 197   0.0000       0.446334        12.1454 
 198   0.0000       0.453068        12.3286 
 199   0.0000       0.458664        12.4809 
 200   0.0000       0.465605        12.6698 
 201   0.0000       0.472251        12.8506 
 202   0.0000       0.476640        12.9700 
 203   0.0000       0.480233        13.0678 
 204   0.0000       0.485531        13.2120 
 205   0.0000       0.495035        13.4706 
 206   0.0000       0.503548        13.7022 
 207   0.0000       0.509692        13.8694 
 208   0.0000       0.513633        13.9767 
 209   0.0000       0.516771        14.0620 
 210   0.0000       0.529359        14.4046 
 211   0.0000       0.533565        14.5191 
 212   0.0000       0.549751        14.9595 
 213   0.0000       0.562947        15.3186 
 214   0.0000       0.584716        15.9109 
 215   0.0000       0.609342        16.5810 
 216   0.0000       0.630253        17.1500 
 217   0.0000       0.649513        17.6742 
 218   0.0000       0.665149        18.0996 
 219   0.0000       0.672703        18.3052 
 220   0.0000       0.676471        18.4077 
 221   0.0000       0.711682        19.3658 
 222   0.0000       0.715379        19.4665 
 223   0.0000       0.724680        19.7195 
 224   0.0000       0.741389        20.1742 
 225   0.0000       0.750152        20.4127 
 226   0.0000       0.753606        20.5067 
 227   0.0000       0.762698        20.7541 
 228   0.0000       0.783554        21.3216 
 229   0.0000       0.785946        21.3867 
 230   0.0000       0.796093        21.6628 
 231   0.0000       0.805968        21.9315 
 232   0.0000       0.819637        22.3035 
 233   0.0000       0.828535        22.5456 
 234   0.0000       0.842887        22.9361 
 235   0.0000       0.858598        23.3637 
 236   0.0000       0.862592        23.4723 
 237   0.0000       0.869931        23.6720 
 238   0.0000       0.873748        23.7759 
 239   0.0000       0.891514        24.2593 
 240   0.0000       0.896792        24.4029 
 241   0.0000       0.911919        24.8146 
 242   0.0000       0.924337        25.1525 
 243   0.0000       0.973490        26.4900 
 244   0.0000       1.042509        28.3681 
 245   0.0000       1.060939        28.8696 
 246   0.0000       1.070511        29.1301 
 247   0.0000       1.079881        29.3851 
 248   0.0000       1.105455        30.0810 
 249   0.0000       1.201895        32.7052 
 250   0.0000       1.211133        32.9566 
 251   0.0000       1.248375        33.9700 
 252   0.0000       1.262265        34.3480 
 253   0.0000       1.281270        34.8651 
 254   0.0000       1.284534        34.9539 
 255   0.0000       1.287043        35.0222 
 256   0.0000       1.299630        35.3647 
 257   0.0000       1.312241        35.7079 
 258   0.0000       1.322904        35.9981 
 259   0.0000       1.340222        36.4693 
 260   0.0000       1.345168        36.6039 
 261   0.0000       1.354927        36.8694 
 262   0.0000       1.360334        37.0166 
 263   0.0000       1.367002        37.1980 
 264   0.0000       1.384725        37.6803 
 265   0.0000       1.393013        37.9058 
 266   0.0000       1.400861        38.1194 
 267   0.0000       1.405714        38.2514 
 268   0.0000       1.409184        38.3458 
 269   0.0000       1.414315        38.4855 
 270   0.0000       1.416118        38.5345 
 271   0.0000       1.420845        38.6632 
 272   0.0000       1.427413        38.8419 
 273   0.0000       1.430068        38.9141 
 274   0.0000       1.433409        39.0050 
 275   0.0000       1.439947        39.1829 
 276   0.0000       1.444177        39.2980 
 277   0.0000       1.447393        39.3856 
 278   0.0000       1.450251        39.4633 
 279   0.0000       1.453117        39.5413 
 280   0.0000       1.462682        39.8016 
 281   0.0000       1.463848        39.8333 
 282   0.0000       1.468691        39.9651 
 283   0.0000       1.470703        40.0199 
 284   0.0000       1.472824        40.0776 
 285   0.0000       1.475280        40.1444 
 286   0.0000       1.479837        40.2684 
 287   0.0000       1.481113        40.3031 
 288   0.0000       1.485883        40.4329 
 289   0.0000       1.486812        40.4582 
 290   0.0000       1.489227        40.5239 
 291   0.0000       1.490470        40.5578 
 292   0.0000       1.491693        40.5910 
 293   0.0000       1.493120        40.6299 
 294   0.0000       1.494935        40.6793 
 295   0.0000       1.497664        40.7535 
 296   0.0000       1.499113        40.7929 
 297   0.0000       1.500149        40.8211 
 298   0.0000       1.502643        40.8890 
 299   0.0000       1.503971        40.9251 
 300   0.0000       1.506293        40.9883 
 301   0.0000       1.508941        41.0604 
 302   0.0000       1.510006        41.0893 
 303   0.0000       1.512005        41.1437 
 304   0.0000       1.514368        41.2080 
 305   0.0000       1.515935        41.2507 
 306   0.0000       1.517141        41.2835 
 307   0.0000       1.518066        41.3087 
 308   0.0000       1.521206        41.3941 
 309   0.0000       1.523451        41.4552 
 310   0.0000       1.524194        41.4754 
 311   0.0000       1.524800        41.4919 
 312   0.0000       1.528840        41.6019 
 313   0.0000       1.531183        41.6656 
 314   0.0000       1.533646        41.7326 
 315   0.0000       1.535631        41.7866 
 316   0.0000       1.538477        41.8641 
 317   0.0000       1.539800        41.9001 
 318   0.0000       1.541145        41.9367 
 319   0.0000       1.541732        41.9527 
 320   0.0000       1.547666        42.1141 
 321   0.0000       1.549530        42.1649 
 322   0.0000       1.554398        42.2973 
 323   0.0000       1.557875        42.3919 
 324   0.0000       1.559750        42.4429 
 325   0.0000       1.561519        42.4911 
 326   0.0000       1.564825        42.5811 
 327   0.0000       1.566660        42.6310 
 328   0.0000       1.568954        42.6934 
 329   0.0000       1.574143        42.8346 
 330   0.0000       1.577510        42.9262 
 331   0.0000       1.581729        43.0410 
 332   0.0000       1.582218        43.0544 
 333   0.0000       1.585690        43.1488 
 334   0.0000       1.588091        43.2142 
 335   0.0000       1.592482        43.3336 
 336   0.0000       1.595095        43.4047 
 337   0.0000       1.598058        43.4854 
 338   0.0000       1.600776        43.5593 
 339   0.0000       1.602884        43.6167 
 340   0.0000       1.606745        43.7218 
 341   0.0000       1.610611        43.8270 
 342   0.0000       1.611930        43.8628 
 343   0.0000       1.625521        44.2327 
 344   0.0000       1.628927        44.3254 
 345   0.0000       1.632894        44.4333 
 346   0.0000       1.637335        44.5542 
 347   0.0000       1.646897        44.8143 
 348   0.0000       1.652659        44.9711 
 349   0.0000       1.657136        45.0930 
 350   0.0000       1.669483        45.4290 
 351   0.0000       1.686497        45.8919 
 352   0.0000       1.693408        46.0800 
 353   0.0000       1.702942        46.3394 
 354   0.0000       1.733390        47.1679 
 355   0.0000       1.766812        48.0774 
 356   0.0000       1.771318        48.2000 
 357   0.0000       1.780529        48.4507 
 358   0.0000       1.790086        48.7107 
 359   0.0000       1.797913        48.9237 
 360   0.0000       1.809542        49.2401 
 361   0.0000       1.820784        49.5460 
 362   0.0000       1.829713        49.7890 
 363   0.0000       1.836540        49.9748 
 364   0.0000       1.869238        50.8645 
 365   0.0000       1.884881        51.2902 
 366   0.0000       1.894047        51.5396 
 367   0.0000       1.914115        52.0857 
 368   0.0000       1.936380        52.6916 
 369   0.0000       1.985559        54.0298 
 370   0.0000       2.066259        56.2258 
 371   0.0000       2.115728        57.5719 
 372   0.0000       2.162777        58.8522 
 373   0.0000       2.211190        60.1696 
 374   0.0000       2.257859        61.4395 
 375   0.0000       2.307245        62.7833 
 376   0.0000       2.353654        64.0462 
 377   0.0000       2.366219        64.3881 
 378   0.0000       2.406122        65.4739 
 379   0.0000       2.453098        66.7522 
 380   0.0000       2.456738        66.8512 
 381   0.0000       2.494504        67.8789 
 382   0.0000       2.934775        79.8593 
 383   0.0000       3.176633        86.4406 
 384   0.0000       3.242401        88.2302 
 385   0.0000       3.243636        88.2638 
 386   0.0000       3.259058        88.6835 
 387   0.0000       3.265934        88.8706 
 388   0.0000       3.268416        88.9381 
 389   0.0000       3.272015        89.0361 
 390   0.0000       3.291683        89.5713 
 391   0.0000       3.350553        91.1732 
 392   0.0000       3.467600        94.3582 
 393   0.0000       3.522461        95.8510 
 394   0.0000       3.593508        97.7843 
 395   0.0000      23.482922       639.0028 
 396   0.0000      23.636602       643.1846 
 397   0.0000      23.868949       649.5071 
 398   0.0000      24.164802       657.5577 
 399   0.0000      24.211071       658.8167 
 400   0.0000      24.533093       667.5794 
 401   0.0000      24.745726       673.3654 
 402   0.0000      25.153390       684.4586 
 403   0.0000      25.251768       687.1355 
 404   0.0000      25.308056       688.6672 
 405   0.0000      25.509044       694.1364 
 406   0.0000      25.522415       694.5002 
 407   0.0000      25.797985       701.9989 
 408   0.0000      25.890419       704.5141 
 409   0.0000      25.961226       706.4409 
 410   0.0000      26.126373       710.9347 
 411   0.0000      26.352148       717.0784 
 412   0.0000      26.406865       718.5673 
 413   0.0000      26.450632       719.7583 
 414   0.0000      26.628375       724.5949 
 415   0.0000      26.666377       725.6290 
 416   0.0000      26.893320       731.8044 
 417   0.0000      26.999441       734.6921 
 418   0.0000      27.124648       738.0992 
 419   0.0000      27.492532       748.1098 
 420   0.0000      27.704453       753.8765 
 421   0.0000      27.848790       757.8041 
 422   0.0000      28.280150       769.5420 
 423   0.0000      28.534575       776.4653 
 424   0.0000      28.789589       783.4046 
 425   0.0000      43.871551      1193.8056 
 426   0.0000      43.919079      1195.0989 
 427   0.0000      43.954723      1196.0688 
 428   0.0000      44.006602      1197.4805 
 429   0.0000      44.046651      1198.5703 
 430   0.0000      44.065018      1199.0701 
 431   0.0000      44.122828      1200.6432 
 432   0.0000      44.135141      1200.9782 
 433   0.0000      44.150449      1201.3948 
 434   0.0000      44.205772      1202.9002 
 435   0.0000     205.080821      5580.5329 
 436   0.0000     205.100265      5581.0619 
 437   0.0000     205.111453      5581.3664 
 438   0.0000     205.136730      5582.0542 
 439   0.0000     205.154552      5582.5392 
 440   0.0000     205.162110      5582.7448 
 441   0.0000     205.181963      5583.2851 
 442   0.0000     205.184341      5583.3498 
 443   0.0000     205.192250      5583.5650 
 444   0.0000     205.219283      5584.3006 

                 SPIN DOWN ORBITALS
  NO   OCC          E(Eh)            E(eV) 
   0   1.0000    -234.196584     -6372.8130 
   1   1.0000     -26.835218      -730.2234 
   2   1.0000     -22.999954      -625.8606 
   3   1.0000     -22.999248      -625.8413 
   4   1.0000     -22.997202      -625.7857 
   5   1.0000      -4.028944      -109.6331 
   6   1.0000      -4.028619      -109.6243 
   7   1.0000      -4.028255      -109.6144 
   8   1.0000      -4.025855      -109.5491 
   9   1.0000      -4.021969      -109.4433 
  10   1.0000      -4.021854      -109.4402 
  11   1.0000      -4.021070      -109.4189 
  12   1.0000      -4.016738      -109.3010 
  13   1.0000      -4.015391      -109.2643 
  14   1.0000      -4.014462      -109.2391 
  15   1.0000      -2.950870       -80.2973 
  16   1.0000      -2.249166       -61.2029 
  17   1.0000      -2.247991       -61.1709 
  18   1.0000      -2.245432       -61.1013 
  19   1.0000      -2.243850       -61.0583 
  20   1.0000      -2.243469       -61.0479 
  21   1.0000      -2.242396       -61.0187 
  22   1.0000      -2.241304       -60.9890 
  23   1.0000      -2.240783       -60.9748 
  24   1.0000      -2.239333       -60.9354 
  25   1.0000      -2.238097       -60.9017 
  26   1.0000      -2.237081       -60.8741 
  27   1.0000      -2.235813       -60.8396 
  28   1.0000      -2.235506       -60.8312 
  29   1.0000      -2.235072       -60.8194 
  30   1.0000      -2.234165       -60.7947 
  31   1.0000      -2.233770       -60.7840 
  32   1.0000      -2.233628       -60.7801 
  33   1.0000      -2.232217       -60.7417 
  34   1.0000      -2.231932       -60.7340 
  35   1.0000      -2.231742       -60.7288 
  36   1.0000      -2.230273       -60.6888 
  37   1.0000      -2.229902       -60.6787 
  38   1.0000      -2.229786       -60.6756 
  39   1.0000      -2.229239       -60.6607 
  40   1.0000      -2.228804       -60.6488 
  41   1.0000      -2.228405       -60.6380 
  42   1.0000      -2.227453       -60.6121 
  43   1.0000      -2.227121       -60.6031 
  44   1.0000      -2.225413       -60.5566 
  45   1.0000      -2.224930       -60.5434 
  46   1.0000      -1.859990       -50.6129 
  47   1.0000      -1.858187       -50.5638 
  48   1.0000      -1.851184       -50.3733 
  49   1.0000      -0.404909       -11.0181 
  50   1.0000      -0.373639       -10.1672 
  51   1.0000      -0.368168       -10.0183 
  52   1.0000      -0.367033        -9.9875 
  53   1.0000      -0.359666        -9.7870 
  54   1.0000      -0.357444        -9.7266 
  55   1.0000      -0.353597        -9.6219 
  56   1.0000      -0.341090        -9.2815 
  57   1.0000      -0.340176        -9.2567 
  58   1.0000      -0.334376        -9.0988 
  59   1.0000      -0.333502        -9.0750 
  60   1.0000      -0.331584        -9.0229 
  61   1.0000      -0.329770        -8.9735 
  62   1.0000      -0.326109        -8.8739 
  63   1.0000      -0.325226        -8.8498 
  64   1.0000      -0.323477        -8.8023 
  65   1.0000      -0.320210        -8.7133 
  66   1.0000      -0.317637        -8.6433 
  67   1.0000      -0.313931        -8.5425 
  68   1.0000      -0.310162        -8.4399 
  69   1.0000      -0.308912        -8.4059 
  70   1.0000      -0.304979        -8.2989 
  71   1.0000      -0.303256        -8.2520 
  72   1.0000      -0.296975        -8.0811 
  73   1.0000      -0.295595        -8.0435 
  74   1.0000      -0.290914        -7.9162 
  75   1.0000      -0.288689        -7.8556 
  76   1.0000      -0.287550        -7.8246 
  77   1.0000      -0.285863        -7.7787 
  78   1.0000      -0.284497        -7.7416 
  79   1.0000      -0.281911        -7.6712 
  80   1.0000      -0.280303        -7.6274 
  81   1.0000      -0.276554        -7.5254 
  82   1.0000      -0.274029        -7.4567 
  83   1.0000      -0.273512        -7.4426 
  84   1.0000      -0.271737        -7.3943 
  85   1.0000      -0.270903        -7.3717 
  86   1.0000      -0.269378        -7.3302 
  87   1.0000      -0.266223        -7.2443 
  88   1.0000      -0.265530        -7.2254 
  89   1.0000      -0.263665        -7.1747 
  90   1.0000      -0.261093        -7.1047 
  91   1.0000      -0.258764        -7.0413 
  92   1.0000      -0.257604        -7.0098 
  93   1.0000      -0.256351        -6.9757 
  94   1.0000      -0.252517        -6.8713 
  95   1.0000      -0.249671        -6.7939 
  96   1.0000      -0.248678        -6.7669 
  97   1.0000      -0.248071        -6.7503 
  98   1.0000      -0.245525        -6.6811 
  99   1.0000      -0.243377        -6.6226 
 100   1.0000      -0.239989        -6.5304 
 101   1.0000      -0.238480        -6.4894 
 102   1.0000      -0.221907        -6.0384 
 103   1.0000      -0.215523        -5.8647 
 104   1.0000      -0.201264        -5.4767 
 105   1.0000      -0.186911        -5.0861 
 106   0.0000      -0.148170        -4.0319 
 107   0.0000      -0.142627        -3.8811 
 108   0.0000      -0.132744        -3.6121 
 109   0.0000      -0.130351        -3.5470 
 110   0.0000      -0.127722        -3.4755 
 111   0.0000      -0.122907        -3.3445 
 112   0.0000      -0.119619        -3.2550 
 113   0.0000      -0.116580        -3.1723 
 114   0.0000      -0.094547        -2.5727 
 115   0.0000      -0.065647        -1.7864 
 116   0.0000      -0.064546        -1.7564 
 117   0.0000      -0.057238        -1.5575 
 118   0.0000      -0.045033        -1.2254 
 119   0.0000      -0.040454        -1.1008 
 120   0.0000      -0.037627        -1.0239 
 121   0.0000      -0.032480        -0.8838 
 122   0.0000      -0.014565        -0.3963 
 123   0.0000      -0.003770        -0.1026 
 124   0.0000       0.009439         0.2569 
 125   0.0000       0.022994         0.6257 
 126   0.0000       0.025777         0.7014 
 127   0.0000       0.027684         0.7533 
 128   0.0000       0.034015         0.9256 
 129   0.0000       0.049292         1.3413 
 130   0.0000       0.051138         1.3915 
 131   0.0000       0.053343         1.4515 
 132   0.0000       0.054955         1.4954 
 133   0.0000       0.061370         1.6700 
 134   0.0000       0.065746         1.7890 
 135   0.0000       0.068210         1.8561 
 136   0.0000       0.069677         1.8960 
 137   0.0000       0.078964         2.1487 
 138   0.0000       0.089222         2.4279 
 139   0.0000       0.091323         2.4850 
 140   0.0000       0.103340         2.8120 
 141   0.0000       0.113639         3.0923 
 142   0.0000       0.116491         3.1699 
 143   0.0000       0.138375         3.7654 
 144   0.0000       0.147341         4.0093 
 145   0.0000       0.148884         4.0513 
 146   0.0000       0.153850         4.1865 
 147   0.0000       0.157429         4.2839 
 148   0.0000       0.163469         4.4482 
 149   0.0000       0.171545         4.6680 
 150   0.0000       0.178079         4.8458 
 151   0.0000       0.184684         5.0255 
 152   0.0000       0.186788         5.0828 
 153   0.0000       0.191874         5.2212 
 154   0.0000       0.209183         5.6922 
 155   0.0000       0.220170         5.9911 
 156   0.0000       0.225207         6.1282 
 157   0.0000       0.227672         6.1953 
 158   0.0000       0.234448         6.3797 
 159   0.0000       0.239418         6.5149 
 160   0.0000       0.240292         6.5387 
 161   0.0000       0.245849         6.6899 
 162   0.0000       0.251485         6.8432 
 163   0.0000       0.254372         6.9218 
 164   0.0000       0.257805         7.0152 
 165   0.0000       0.260642         7.0924 
 166   0.0000       0.267972         7.2919 
 167   0.0000       0.273854         7.4520 
 168   0.0000       0.283897         7.7252 
 169   0.0000       0.290231         7.8976 
 170   0.0000       0.295607         8.0439 
 171   0.0000       0.296526         8.0689 
 172   0.0000       0.304530         8.2867 
 173   0.0000       0.309827         8.4308 
 174   0.0000       0.310954         8.4615 
 175   0.0000       0.315506         8.5854 
 176   0.0000       0.327271         8.9055 
 177   0.0000       0.327932         8.9235 
 178   0.0000       0.329671         8.9708 
 179   0.0000       0.339675         9.2430 
 180   0.0000       0.342719         9.3258 
 181   0.0000       0.346893         9.4395 
 182   0.0000       0.349645         9.5143 
 183   0.0000       0.359415         9.7802 
 184   0.0000       0.366593         9.9755 
 185   0.0000       0.372355        10.1323 
 186   0.0000       0.377095        10.2613 
 187   0.0000       0.387476        10.5438 
 188   0.0000       0.388507        10.5718 
 189   0.0000       0.399390        10.8680 
 190   0.0000       0.405229        11.0268 
 191   0.0000       0.414673        11.2838 
 192   0.0000       0.419006        11.4017 
 193   0.0000       0.421276        11.4635 
 194   0.0000       0.423218        11.5164 
 195   0.0000       0.429449        11.6859 
 196   0.0000       0.439345        11.9552 
 197   0.0000       0.446657        12.1542 
 198   0.0000       0.450503        12.2588 
 199   0.0000       0.457251        12.4424 
 200   0.0000       0.466151        12.6846 
 201   0.0000       0.471706        12.8358 
 202   0.0000       0.474256        12.9052 
 203   0.0000       0.478680        13.0255 
 204   0.0000       0.484633        13.1875 
 205   0.0000       0.495261        13.4767 
 206   0.0000       0.502429        13.6718 
 207   0.0000       0.507536        13.8108 
 208   0.0000       0.512544        13.9470 
 209   0.0000       0.514878        14.0105 
 210   0.0000       0.527583        14.3563 
 211   0.0000       0.530850        14.4452 
 212   0.0000       0.548008        14.9121 
 213   0.0000       0.560406        15.2494 
 214   0.0000       0.601341        16.3633 
 215   0.0000       0.614518        16.7219 
[...]
  62( 2) :    -0.322369 a.u.    -8.772 eV
  63( 2) :    -0.319106 a.u.    -8.683 eV
  64( 2) :    -0.318917 a.u.    -8.678 eV
  65( 2) :    -0.315077 a.u.    -8.574 eV
  66( 2) :    -0.314902 a.u.    -8.569 eV
  67( 2) :    -0.314588 a.u.    -8.560 eV
  68( 2) :    -0.308847 a.u.    -8.404 eV
  69( 2) :    -0.307743 a.u.    -8.374 eV
  70( 2) :    -0.307361 a.u.    -8.364 eV
  71( 2) :    -0.300878 a.u.    -8.187 eV
  72( 2) :    -0.300516 a.u.    -8.177 eV
  73( 2) :    -0.299213 a.u.    -8.142 eV
  74( 2) :    -0.289087 a.u.    -7.866 eV
  75( 2) :    -0.287209 a.u.    -7.815 eV
  76( 2) :    -0.287087 a.u.    -7.812 eV
  77( 2) :    -0.280384 a.u.    -7.630 eV
  78( 2) :    -0.279494 a.u.    -7.605 eV
  79( 2) :    -0.279262 a.u.    -7.599 eV
  80( 2) :    -0.274542 a.u.    -7.471 eV
  81( 2) :    -0.274038 a.u.    -7.457 eV
  82( 2) :    -0.273465 a.u.    -7.441 eV
  83( 2) :    -0.270783 a.u.    -7.368 eV
  84( 2) :    -0.270428 a.u.    -7.359 eV
  85( 2) :    -0.268063 a.u.    -7.294 eV
  86( 2) :    -0.267899 a.u.    -7.290 eV
  87( 2) :    -0.267009 a.u.    -7.266 eV
  88( 2) :    -0.263508 a.u.    -7.170 eV
  89( 2) :    -0.259855 a.u.    -7.071 eV
  90( 2) :    -0.259568 a.u.    -7.063 eV
  91( 2) :    -0.255936 a.u.    -6.964 eV
  92( 2) :    -0.255825 a.u.    -6.961 eV
  93( 2) :    -0.255169 a.u.    -6.944 eV
  94( 2) :    -0.253318 a.u.    -6.893 eV
  95( 2) :    -0.252728 a.u.    -6.877 eV
  96( 2) :    -0.247934 a.u.    -6.747 eV
  97( 2) :    -0.247917 a.u.    -6.746 eV
  98( 2) :    -0.238110 a.u.    -6.479 eV
  99( 2) :    -0.237597 a.u.    -6.465 eV
 100( 2) :    -0.236516 a.u.    -6.436 eV
 101( 2) :    -0.235051 a.u.    -6.396 eV
 102( 2) :    -0.234421 a.u.    -6.379 eV
 103( 2) :    -0.209082 a.u.    -5.689 eV
 104( 2) :    -0.176408 a.u.    -4.800 eV
 105( 2) :    -0.176263 a.u.    -4.796 eV
 106( 1) :    -0.186703 a.u.    -5.080 eV alpha=   -6.835 beta=   -3.326
 107( 1) :    -0.186510 a.u.    -5.075 eV alpha=   -6.828 beta=   -3.322
 108( 1) :    -0.179863 a.u.    -4.894 eV alpha=   -6.584 beta=   -3.205
 109( 0) :    -0.184581 a.u.    -5.023 eV
 110( 0) :    -0.184347 a.u.    -5.016 eV
 111( 0) :    -0.132395 a.u.    -3.603 eV
 112( 0) :    -0.130801 a.u.    -3.559 eV
 113( 0) :    -0.130383 a.u.    -3.548 eV
 114( 0) :    -0.104911 a.u.    -2.855 eV
 115( 0) :    -0.063569 a.u.    -1.730 eV
 116( 0) :    -0.063256 a.u.    -1.721 eV
 117( 0) :    -0.050795 a.u.    -1.382 eV
 118( 0) :    -0.040577 a.u.    -1.104 eV
 119( 0) :    -0.040396 a.u.    -1.099 eV
 120( 0) :    -0.030747 a.u.    -0.837 eV
 121( 0) :    -0.029934 a.u.    -0.815 eV
 122( 0) :    -0.029183 a.u.    -0.794 eV
 123( 0) :    -0.011736 a.u.    -0.319 eV
 124( 0) :    -0.003341 a.u.    -0.091 eV
 125( 0) :     0.017913 a.u.     0.487 eV
 126( 0) :     0.018322 a.u.     0.499 eV
 127( 0) :     0.045490 a.u.     1.238 eV
 128( 0) :     0.045875 a.u.     1.248 eV
 129( 0) :     0.051697 a.u.     1.407 eV
 130( 0) :     0.054486 a.u.     1.483 eV
 131( 0) :     0.054869 a.u.     1.493 eV
 132( 0) :     0.058278 a.u.     1.586 eV
 133( 0) :     0.059968 a.u.     1.632 eV
 134( 0) :     0.063950 a.u.     1.740 eV
 135( 0) :     0.064199 a.u.     1.747 eV
 136( 0) :     0.080224 a.u.     2.183 eV
 137( 0) :     0.089183 a.u.     2.427 eV
 138( 0) :     0.089391 a.u.     2.432 eV
 139( 0) :     0.098388 a.u.     2.677 eV
 140( 0) :     0.098702 a.u.     2.686 eV
 141( 0) :     0.105119 a.u.     2.860 eV
 142( 0) :     0.132960 a.u.     3.618 eV
 143( 0) :     0.139043 a.u.     3.784 eV
 144( 0) :     0.139248 a.u.     3.789 eV
 145( 0) :     0.139377 a.u.     3.793 eV
 146( 0) :     0.149875 a.u.     4.078 eV
 147( 0) :     0.150637 a.u.     4.099 eV
 148( 0) :     0.156937 a.u.     4.270 eV
 149( 0) :     0.169304 a.u.     4.607 eV
 150( 0) :     0.170024 a.u.     4.627 eV
 151( 0) :     0.181360 a.u.     4.935 eV
 152( 0) :     0.181927 a.u.     4.950 eV
 153( 0) :     0.192625 a.u.     5.242 eV
 154( 0) :     0.218762 a.u.     5.953 eV
 155( 0) :     0.219660 a.u.     5.977 eV
 156( 0) :     0.219902 a.u.     5.984 eV
 157( 0) :     0.226140 a.u.     6.154 eV
 158( 0) :     0.236636 a.u.     6.439 eV
 159( 0) :     0.237604 a.u.     6.466 eV
 160( 0) :     0.250412 a.u.     6.814 eV
 161( 0) :     0.251075 a.u.     6.832 eV
 162( 0) :     0.252033 a.u.     6.858 eV
 163( 0) :     0.256022 a.u.     6.967 eV
 164( 0) :     0.256053 a.u.     6.968 eV
 165( 0) :     0.262554 a.u.     7.144 eV
 166( 0) :     0.267026 a.u.     7.266 eV
 167( 0) :     0.283401 a.u.     7.712 eV
 168( 0) :     0.285552 a.u.     7.770 eV
 169( 0) :     0.287891 a.u.     7.834 eV
 170( 0) :     0.288143 a.u.     7.841 eV
 171( 0) :     0.306843 a.u.     8.350 eV
 172( 0) :     0.307247 a.u.     8.361 eV
 173( 0) :     0.307703 a.u.     8.373 eV
 174( 0) :     0.308147 a.u.     8.385 eV
 175( 0) :     0.325732 a.u.     8.864 eV
 176( 0) :     0.327144 a.u.     8.902 eV
 177( 0) :     0.336003 a.u.     9.143 eV
 178( 0) :     0.342171 a.u.     9.311 eV
 179( 0) :     0.342330 a.u.     9.315 eV
 180( 0) :     0.342905 a.u.     9.331 eV
 181( 0) :     0.344608 a.u.     9.377 eV
 182( 0) :     0.345299 a.u.     9.396 eV
 183( 0) :     0.347262 a.u.     9.449 eV
 184( 0) :     0.371702 a.u.    10.115 eV
 185( 0) :     0.371851 a.u.    10.119 eV
 186( 0) :     0.385061 a.u.    10.478 eV
 187( 0) :     0.385442 a.u.    10.488 eV
 188( 0) :     0.386029 a.u.    10.504 eV
 189( 0) :     0.400002 a.u.    10.885 eV
 190( 0) :     0.410944 a.u.    11.182 eV
 191( 0) :     0.417449 a.u.    11.359 eV
 192( 0) :     0.417651 a.u.    11.365 eV
 193( 0) :     0.422289 a.u.    11.491 eV
 194( 0) :     0.436558 a.u.    11.879 eV
 195( 0) :     0.437066 a.u.    11.893 eV
 196( 0) :     0.447429 a.u.    12.175 eV
 197( 0) :     0.448401 a.u.    12.202 eV
 198( 0) :     0.449748 a.u.    12.238 eV
 199( 0) :     0.457054 a.u.    12.437 eV
 200( 0) :     0.457847 a.u.    12.459 eV
 201( 0) :     0.464833 a.u.    12.649 eV
 202( 0) :     0.491725 a.u.    13.381 eV
 203( 0) :     0.497333 a.u.    13.533 eV
 204( 0) :     0.498116 a.u.    13.554 eV
 205( 0) :     0.502355 a.u.    13.670 eV
 206( 0) :     0.502692 a.u.    13.679 eV
 207( 0) :     0.503153 a.u.    13.691 eV
 208( 0) :     0.518124 a.u.    14.099 eV
 209( 0) :     0.518933 a.u.    14.121 eV
 210( 0) :     0.523412 a.u.    14.243 eV
 211( 0) :     0.523627 a.u.    14.249 eV
 212( 0) :     0.528729 a.u.    14.387 eV
 213( 0) :     0.548500 a.u.    14.925 eV
 214( 0) :     0.600240 a.u.    16.333 eV
 215( 0) :     0.601198 a.u.    16.359 eV
 216( 0) :     0.627589 a.u.    17.078 eV
 217( 0) :     0.648662 a.u.    17.651 eV
 218( 0) :     0.648819 a.u.    17.655 eV
 219( 0) :     0.666240 a.u.    18.129 eV
 220( 0) :     0.682869 a.u.    18.582 eV
 221( 0) :     0.695829 a.u.    18.934 eV
 222( 0) :     0.696420 a.u.    18.951 eV
 223( 0) :     0.701126 a.u.    19.079 eV
 224( 0) :     0.710194 a.u.    19.325 eV
 225( 0) :     0.711365 a.u.    19.357 eV
 226( 0) :     0.723860 a.u.    19.697 eV
 227( 0) :     0.755597 a.u.    20.561 eV
 228( 0) :     0.756608 a.u.    20.588 eV
 229( 0) :     0.767092 a.u.    20.874 eV
 230( 0) :     0.770812 a.u.    20.975 eV
 231( 0) :     0.809296 a.u.    22.022 eV
 232( 0) :     0.819966 a.u.    22.312 eV
 233( 0) :     0.840376 a.u.    22.868 eV
 234( 0) :     0.842585 a.u.    22.928 eV
 235( 0) :     0.875407 a.u.    23.821 eV
 236( 0) :     0.876043 a.u.    23.838 eV
 237( 0) :     0.893002 a.u.    24.300 eV
 238( 0) :     0.918774 a.u.    25.001 eV
 239( 0) :     0.922902 a.u.    25.113 eV
 240( 0) :     0.923966 a.u.    25.142 eV
 241( 0) :     0.944662 a.u.    25.706 eV
 242( 0) :     0.947443 a.u.    25.781 eV
 243( 0) :     0.956791 a.u.    26.036 eV
 244( 0) :     0.957228 a.u.    26.048 eV
 245( 0) :     1.015730 a.u.    27.639 eV
 246( 0) :     1.083893 a.u.    29.494 eV
 247( 0) :     1.089322 a.u.    29.642 eV
 248( 0) :     1.122726 a.u.    30.551 eV
 249( 0) :     1.217463 a.u.    33.129 eV
 250( 0) :     1.220597 a.u.    33.214 eV
 251( 0) :     1.261728 a.u.    34.333 eV
 252( 0) :     1.270297 a.u.    34.567 eV
 253( 0) :     1.272196 a.u.    34.618 eV
 254( 0) :     1.274862 a.u.    34.691 eV
 255( 0) :     1.295500 a.u.    35.252 eV
 256( 0) :     1.297271 a.u.    35.301 eV
 257( 0) :     1.318825 a.u.    35.887 eV
 258( 0) :     1.325112 a.u.    36.058 eV
 259( 0) :     1.327413 a.u.    36.121 eV
 260( 0) :     1.335592 a.u.    36.343 eV
 261( 0) :     1.338163 a.u.    36.413 eV
 262( 0) :     1.378649 a.u.    37.515 eV
 263( 0) :     1.391709 a.u.    37.870 eV
 264( 0) :     1.393301 a.u.    37.914 eV
 265( 0) :     1.394058 a.u.    37.934 eV
 266( 0) :     1.399307 a.u.    38.077 eV
 267( 0) :     1.400642 a.u.    38.113 eV
 268( 0) :     1.402848 a.u.    38.173 eV
 269( 0) :     1.409852 a.u.    38.364 eV
 270( 0) :     1.411253 a.u.    38.402 eV
 271( 0) :     1.428094 a.u.    38.860 eV
 272( 0) :     1.438070 a.u.    39.132 eV
 273( 0) :     1.445043 a.u.    39.322 eV
 274( 0) :     1.445832 a.u.    39.343 eV
 275( 0) :     1.448552 a.u.    39.417 eV
 276( 0) :     1.452099 a.u.    39.514 eV
 277( 0) :     1.454513 a.u.    39.579 eV
 278( 0) :     1.461202 a.u.    39.761 eV
 279( 0) :     1.461779 a.u.    39.777 eV
 280( 0) :     1.470895 a.u.    40.025 eV
 281( 0) :     1.472201 a.u.    40.061 eV
 282( 0) :     1.473597 a.u.    40.099 eV
 283( 0) :     1.473843 a.u.    40.105 eV
 284( 0) :     1.477563 a.u.    40.207 eV
 285( 0) :     1.481208 a.u.    40.306 eV
 286( 0) :     1.482701 a.u.    40.346 eV
 287( 0) :     1.484410 a.u.    40.393 eV
 288( 0) :     1.484977 a.u.    40.408 eV
 289( 0) :     1.489383 a.u.    40.528 eV
 290( 0) :     1.491053 a.u.    40.574 eV
 291( 0) :     1.491919 a.u.    40.597 eV
 292( 0) :     1.495714 a.u.    40.700 eV
 293( 0) :     1.496505 a.u.    40.722 eV
 294( 0) :     1.499065 a.u.    40.792 eV
 295( 0) :     1.502542 a.u.    40.886 eV
 296( 0) :     1.502868 a.u.    40.895 eV
 297( 0) :     1.502971 a.u.    40.898 eV
 298( 0) :     1.506369 a.u.    40.990 eV
 299( 0) :     1.506875 a.u.    41.004 eV
 300( 0) :     1.507936 a.u.    41.033 eV
 301( 0) :     1.509741 a.u.    41.082 eV
 302( 0) :     1.510417 a.u.    41.101 eV
 303( 0) :     1.510777 a.u.    41.110 eV
 304( 0) :     1.510903 a.u.    41.114 eV
 305( 0) :     1.515090 a.u.    41.228 eV
 306( 0) :     1.515712 a.u.    41.245 eV
 307( 0) :     1.516280 a.u.    41.260 eV
 308( 0) :     1.519534 a.u.    41.349 eV
 309( 0) :     1.519756 a.u.    41.355 eV
 310( 0) :     1.525005 a.u.    41.498 eV
 311( 0) :     1.525508 a.u.    41.511 eV
 312( 0) :     1.528982 a.u.    41.606 eV
 313( 0) :     1.532833 a.u.    41.710 eV
 314( 0) :     1.533283 a.u.    41.723 eV
 315( 0) :     1.534092 a.u.    41.745 eV
 316( 0) :     1.534188 a.u.    41.747 eV
 317( 0) :     1.544847 a.u.    42.037 eV
 318( 0) :     1.545343 a.u.    42.051 eV
 319( 0) :     1.545738 a.u.    42.062 eV
 320( 0) :     1.546688 a.u.    42.088 eV
 321( 0) :     1.549304 a.u.    42.159 eV
 322( 0) :     1.549756 a.u.    42.171 eV
 323( 0) :     1.550493 a.u.    42.191 eV
 324( 0) :     1.555664 a.u.    42.332 eV
 325( 0) :     1.559920 a.u.    42.448 eV
 326( 0) :     1.560957 a.u.    42.476 eV
 327( 0) :     1.561923 a.u.    42.502 eV
 328( 0) :     1.567761 a.u.    42.661 eV
 329( 0) :     1.568159 a.u.    42.672 eV
 330( 0) :     1.574949 a.u.    42.857 eV
 331( 0) :     1.579744 a.u.    42.987 eV
 332( 0) :     1.581029 a.u.    43.022 eV
 333( 0) :     1.587696 a.u.    43.203 eV
 334( 0) :     1.588184 a.u.    43.217 eV
 335( 0) :     1.590271 a.u.    43.273 eV
 336( 0) :     1.596605 a.u.    43.446 eV
 337( 0) :     1.596989 a.u.    43.456 eV
 338( 0) :     1.597359 a.u.    43.466 eV
 339( 0) :     1.599329 a.u.    43.520 eV
 340( 0) :     1.606496 a.u.    43.715 eV
 341( 0) :     1.606678 a.u.    43.720 eV
 342( 0) :     1.615826 a.u.    43.969 eV
 343( 0) :     1.616747 a.u.    43.994 eV
 344( 0) :     1.617396 a.u.    44.012 eV
 345( 0) :     1.627580 a.u.    44.289 eV
 346( 0) :     1.628154 a.u.    44.304 eV
 347( 0) :     1.651283 a.u.    44.934 eV
 348( 0) :     1.653420 a.u.    44.992 eV
 349( 0) :     1.654447 a.u.    45.020 eV
 350( 0) :     1.658968 a.u.    45.143 eV
 351( 0) :     1.679969 a.u.    45.714 eV
 352( 0) :     1.690918 a.u.    46.012 eV
 353( 0) :     1.697907 a.u.    46.202 eV
 354( 0) :     1.729289 a.u.    47.056 eV
 355( 0) :     1.730854 a.u.    47.099 eV
 356( 0) :     1.737577 a.u.    47.282 eV
 357( 0) :     1.766528 a.u.    48.070 eV
 358( 0) :     1.769239 a.u.    48.143 eV
 359( 0) :     1.778070 a.u.    48.384 eV
 360( 0) :     1.784555 a.u.    48.560 eV
 361( 0) :     1.786123 a.u.    48.603 eV
 362( 0) :     1.807007 a.u.    49.171 eV
 363( 0) :     1.828866 a.u.    49.766 eV
 364( 0) :     1.829317 a.u.    49.778 eV
 365( 0) :     1.885443 a.u.    51.306 eV
 366( 0) :     1.931232 a.u.    52.552 eV
 367( 0) :     1.935187 a.u.    52.659 eV
 368( 0) :     1.983363 a.u.    53.970 eV
 369( 0) :     2.087397 a.u.    56.801 eV
 370( 0) :     2.105880 a.u.    57.304 eV
 371( 0) :     2.107903 a.u.    57.359 eV
 372( 0) :     2.214181 a.u.    60.251 eV
 373( 0) :     2.295505 a.u.    62.464 eV
 374( 0) :     2.297645 a.u.    62.522 eV
 375( 0) :     2.372671 a.u.    64.564 eV
 376( 0) :     2.412155 a.u.    65.638 eV
 377( 0) :     2.413941 a.u.    65.687 eV
 378( 0) :     2.437145 a.u.    66.318 eV
 379( 0) :     2.452730 a.u.    66.742 eV
 380( 0) :     2.456081 a.u.    66.833 eV
 381( 0) :     2.466663 a.u.    67.121 eV
 382( 0) :     2.918610 a.u.    79.419 eV
 383( 0) :     3.236591 a.u.    88.072 eV
 384( 0) :     3.251393 a.u.    88.475 eV
 385( 0) :     3.251570 a.u.    88.480 eV
 386( 0) :     3.255062 a.u.    88.575 eV
 387( 0) :     3.265479 a.u.    88.858 eV
 388( 0) :     3.268423 a.u.    88.938 eV
 389( 0) :     3.281176 a.u.    89.285 eV
 390( 0) :     3.318348 a.u.    90.297 eV
 391( 0) :     3.321924 a.u.    90.394 eV
 392( 0) :     3.393141 a.u.    92.332 eV
 393( 0) :     3.444556 a.u.    93.731 eV
 394( 0) :     3.448392 a.u.    93.836 eV
 395( 0) :    23.822349 a.u.   648.239 eV
 396( 0) :    23.837700 a.u.   648.657 eV
 397( 0) :    23.842382 a.u.   648.784 eV
 398( 0) :    24.113293 a.u.   656.156 eV
 399( 0) :    24.423967 a.u.   664.610 eV
 400( 0) :    24.438701 a.u.   665.011 eV
 401( 0) :    24.505309 a.u.   666.823 eV
 402( 0) :    24.734682 a.u.   673.065 eV
 403( 0) :    24.909095 a.u.   677.811 eV
 404( 0) :    24.945075 a.u.   678.790 eV
 405( 0) :    25.301052 a.u.   688.477 eV
 406( 0) :    25.314812 a.u.   688.851 eV
 407( 0) :    25.674769 a.u.   698.646 eV
 408( 0) :    25.678173 a.u.   698.739 eV
 409( 0) :    25.953833 a.u.   706.240 eV
 410( 0) :    26.317156 a.u.   716.126 eV
 411( 0) :    26.322559 a.u.   716.273 eV
 412( 0) :    26.365057 a.u.   717.430 eV
 413( 0) :    26.544453 a.u.   722.311 eV
 414( 0) :    26.572473 a.u.   723.074 eV
 415( 0) :    26.911495 a.u.   732.299 eV
 416( 0) :    27.042621 a.u.   735.867 eV
 417( 0) :    27.293205 a.u.   742.686 eV
 418( 0) :    27.319368 a.u.   743.398 eV
 419( 0) :    27.954476 a.u.   760.680 eV
 420( 0) :    27.972023 a.u.   761.157 eV
 421( 0) :    28.264421 a.u.   769.114 eV
 422( 0) :    28.308319 a.u.   770.309 eV
 423( 0) :    28.473367 a.u.   774.800 eV
 424( 0) :    29.538078 a.u.   803.772 eV
 425( 0) :    43.831375 a.u.  1192.712 eV
 426( 0) :    43.955459 a.u.  1196.089 eV
 427( 0) :    44.004562 a.u.  1197.425 eV
 428( 0) :    44.007064 a.u.  1197.493 eV
 429( 0) :    44.088281 a.u.  1199.703 eV
 430( 0) :    44.098204 a.u.  1199.973 eV
 431( 0) :    44.098623 a.u.  1199.985 eV
 432( 0) :    44.137907 a.u.  1201.054 eV
 433( 0) :    44.139304 a.u.  1201.092 eV
 434( 0) :    44.140184 a.u.  1201.115 eV
 435( 0) :   205.065004 a.u.  5580.102 eV
 436( 0) :   205.112963 a.u.  5581.407 eV
 437( 0) :   205.132204 a.u.  5581.931 eV
 438( 0) :   205.133041 a.u.  5581.954 eV
 439( 0) :   205.168955 a.u.  5582.931 eV
 440( 0) :   205.176978 a.u.  5583.149 eV
 441( 0) :   205.177196 a.u.  5583.155 eV
 442( 0) :   205.189913 a.u.  5583.501 eV
 443( 0) :   205.190686 a.u.  5583.522 eV
 444( 0) :   205.193022 a.u.  5583.586 eV
-------
TIMINGS
-------

Total SCF time: 0 days 0 hours 2 min 34 sec 

Total time                  ....     154.780 sec
Sum of individual times     ....     153.124 sec  ( 98.9%)

Fock matrix formation       ....     146.841 sec  ( 94.9%)
  Split-RI-J                ....      48.256 sec  ( 32.9% of F)
  XC integration            ....      98.315 sec  ( 67.0% of F)
    Basis function eval.    ....      20.169 sec  ( 20.5% of XC)
    Density eval.           ....      48.568 sec  ( 49.4% of XC)
    XC-Functional eval.     ....       3.379 sec  (  3.4% of XC)
    XC-Potential eval.      ....      24.457 sec  ( 24.9% of XC)
Diagonalization             ....       2.018 sec  (  1.3%)
Density matrix formation    ....       0.292 sec  (  0.2%)
Population analysis         ....       0.807 sec  (  0.5%)
Initial guess               ....       0.169 sec  (  0.1%)
Orbital Transformation      ....       0.000 sec  (  0.0%)
Orbital Orthonormalization  ....       0.144 sec  (  0.1%)
DIIS solution               ....       0.000 sec  (  0.0%)
Grid generation             ....       2.997 sec  (  1.9%)

Maximum memory used throughout the entire SCF-calculation: 348.3 MB

-------------------------   --------------------
FINAL SINGLE POINT ENERGY     -2509.031350324149
-------------------------   --------------------

                                *** OPTIMIZATION RUN DONE ***

                            ***************************************
                            *     ORCA property calculations      *
                            ***************************************

                                    ---------------------
                                    Active property flags
                                    ---------------------
   (+) Dipole Moment


------------------------------------------------------------------------------
                       ORCA ELECTRIC PROPERTIES CALCULATION
------------------------------------------------------------------------------

Dipole Moment Calculation                       ... on
Quadrupole Moment Calculation                   ... off
Polarizability Calculation                      ... off
GBWName                                         ... pbe.gbw
Electron density                                ... pbe.scfp
The origin for moment calculation is the CENTER OF MASS  = (14.688096, 14.201244 13.776764)

-------------
DIPOLE MOMENT
-------------
                                X             Y             Z
Electronic contribution:      3.81903      -5.82709       4.64689
Nuclear contribution   :     -3.81599       5.82184      -4.64956
                        -----------------------------------------
Total Dipole Moment    :      0.00305      -0.00525      -0.00267
                        -----------------------------------------
Magnitude (a.u.)       :      0.00663
Magnitude (Debye)      :      0.01686



--------------------
Rotational spectrum 
--------------------
 
Rotational constants in cm-1:     0.002287     0.001363     0.001357 
Rotational constants in MHz :    68.567373    40.851324    40.678706 

 Dipole components along the rotational axes: 
x,y,z [a.u.] :    -0.003912    -0.005162     0.001439 
x,y,z [Debye]:    -0.009944    -0.013120     0.003657 

 

Timings for individual modules:

Sum of individual times         ...    13801.645 sec (= 230.027 min)
GTO integral calculation        ...      239.675 sec (=   3.995 min)   1.7 %
SCF iterations                  ...    10835.204 sec (= 180.587 min)  78.5 %
SCF Gradient evaluation         ...     2725.050 sec (=  45.418 min)  19.7 %
Geometry relaxation             ...        1.715 sec (=   0.029 min)   0.0 %
                             ****ORCA TERMINATED NORMALLY****
TOTAL RUN TIME: 0 days 3 hours 50 minutes 4 seconds 503 msec
