
                                 *****************
                                 * O   R   C   A *
                                 *****************

                                            #,                                       
                                            ###                                      
                                            ####                                     
                                            #####                                    
                                            ######                                   
                                           ########,                                 
                                     ,,################,,,,,                         
                               ,,#################################,,                 
                          ,,##########################################,,             
                       ,#########################################, ''#####,          
                    ,#############################################,,   '####,        
                  ,##################################################,,,,####,       
                ,###########''''           ''''###############################       
              ,#####''   ,,,,##########,,,,          '''####'''          '####       
            ,##' ,,,,###########################,,,                        '##       
           ' ,,###''''                  '''############,,,                           
         ,,##''                                '''############,,,,        ,,,,,,###''
      ,#''                                            '''#######################'''  
     '                                                          ''''####''''         
             ,#######,   #######,   ,#######,      ##                                
            ,#'     '#,  ##    ##  ,#'     '#,    #''#        ######   ,####,        
            ##       ##  ##   ,#'  ##            #'  '#       #        #'  '#        
            ##       ##  #######   ##           ,######,      #####,   #    #        
            '#,     ,#'  ##    ##  '#,     ,#' ,#      #,         ##   #,  ,#        
             '#######'   ##     ##  '#######'  #'      '#     #####' # '####'        



                  #######################################################
                  #                        -***-                        #
                  #          Department of theory and spectroscopy      #
                  #    Directorship and core code : Frank Neese         #
                  #        Max Planck Institute fuer Kohlenforschung    #
                  #                Kaiser Wilhelm Platz 1               #
                  #                 D-45470 Muelheim/Ruhr               #
                  #                      Germany                        #
                  #                                                     #
                  #                  All rights reserved                #
                  #                        -***-                        #
                  #######################################################


                         Program Version 5.0.3 -  RELEASE  -


 With contributions from (in alphabetic order):
   Daniel Aravena         : Magnetic Suceptibility
   Michael Atanasov       : Ab Initio Ligand Field Theory (pilot matlab implementation)
   Alexander A. Auer      : GIAO ZORA, VPT2 properties, NMR spectrum
   Ute Becker             : Parallelization
   Giovanni Bistoni       : ED, misc. LED, open-shell LED, HFLD
   Martin Brehm           : Molecular dynamics
   Dmytro Bykov           : SCF Hessian
   Vijay G. Chilkuri      : MRCI spin determinant printing, contributions to CSF-ICE
   Dipayan Datta          : RHF DLPNO-CCSD density
   Achintya Kumar Dutta   : EOM-CC, STEOM-CC
   Dmitry Ganyushin       : Spin-Orbit,Spin-Spin,Magnetic field MRCI
   Miquel Garcia          : C-PCM and meta-GGA Hessian, CC/C-PCM, Gaussian charge scheme
   Yang Guo               : DLPNO-NEVPT2, F12-NEVPT2, CIM, IAO-localization
   Andreas Hansen         : Spin unrestricted coupled pair/coupled cluster methods
   Benjamin Helmich-Paris : MC-RPA, TRAH-SCF, COSX integrals
   Lee Huntington         : MR-EOM, pCC
   Robert Izsak           : Overlap fitted RIJCOSX, COSX-SCS-MP3, EOM
   Marcus Kettner         : VPT2
   Christian Kollmar      : KDIIS, OOCD, Brueckner-CCSD(T), CCSD density, CASPT2, CASPT2-K
   Simone Kossmann        : Meta GGA functionals, TD-DFT gradient, OOMP2, MP2 Hessian
   Martin Krupicka        : Initial AUTO-CI
   Lucas Lang             : DCDCAS
   Marvin Lechner         : AUTO-CI (C++ implementation), FIC-MRCC
   Dagmar Lenk            : GEPOL surface, SMD
   Dimitrios Liakos       : Extrapolation schemes; Compound Job, initial MDCI parallelization
   Dimitrios Manganas     : Further ROCIS development; embedding schemes
   Dimitrios Pantazis     : SARC Basis sets
   Anastasios Papadopoulos: AUTO-CI, single reference methods and gradients
   Taras Petrenko         : DFT Hessian,TD-DFT gradient, ASA, ECA, R-Raman, ABS, FL, XAS/XES, NRVS
   Peter Pinski           : DLPNO-MP2, DLPNO-MP2 Gradient
   Christoph Reimann      : Effective Core Potentials
   Marius Retegan         : Local ZFS, SOC
   Christoph Riplinger    : Optimizer, TS searches, QM/MM, DLPNO-CCSD(T), (RO)-DLPNO pert. Triples
   Tobias Risthaus        : Range-separated hybrids, TD-DFT gradient, RPA, STAB
   Michael Roemelt        : Original ROCIS implementation
   Masaaki Saitow         : Open-shell DLPNO-CCSD energy and density
   Barbara Sandhoefer     : DKH picture change effects
   Avijit Sen             : IP-ROCIS
   Kantharuban Sivalingam : CASSCF convergence, NEVPT2, FIC-MRCI
   Bernardo de Souza      : ESD, SOC TD-DFT
   Georgi Stoychev        : AutoAux, RI-MP2 NMR, DLPNO-MP2 response
   Willem Van den Heuvel  : Paramagnetic NMR
   Boris Wezisla          : Elementary symmetry handling
   Frank Wennmohs         : Technical directorship


 We gratefully acknowledge several colleagues who have allowed us to
 interface, adapt or use parts of their codes:
   Stefan Grimme, W. Hujo, H. Kruse, P. Pracht,  : VdW corrections, initial TS optimization,
                  C. Bannwarth, S. Ehlert          DFT functionals, gCP, sTDA/sTD-DF
   Ed Valeev, F. Pavosevic, A. Kumar             : LibInt (2-el integral package), F12 methods
   Garnet Chan, S. Sharma, J. Yang, R. Olivares  : DMRG
   Ulf Ekstrom                                   : XCFun DFT Library
   Mihaly Kallay                                 : mrcc  (arbitrary order and MRCC methods)
   Jiri Pittner, Ondrej Demel                    : Mk-CCSD
   Frank Weinhold                                : gennbo (NPA and NBO analysis)
   Christopher J. Cramer and Donald G. Truhlar   : smd solvation model
   Lars Goerigk                                  : TD-DFT with DH, B97 family of functionals
   V. Asgeirsson, H. Jonsson                     : NEB implementation
   FAccTs GmbH                                   : IRC, NEB, NEB-TS, DLPNO-Multilevel, CI-OPT
                                                   MM, QMMM, 2- and 3-layer-ONIOM, Crystal-QMMM,
                                                   LR-CPCM, SF, NACMEs, symmetry and pop. for TD-DFT,
                                                   nearIR, NL-DFT gradient (VV10), updates on ESD,
                                                   ML-optimized integration grids
   S Lehtola, MJT Oliveira, MAL Marques          : LibXC Library
   Liviu Ungur et al                             : ANISO software


 Your calculation uses the libint2 library for the computation of 2-el integrals
 For citations please refer to: http://libint.valeyev.net

 Your ORCA version has been built with support for libXC version: 5.1.0
 For citations please refer to: https://tddft.org/programs/libxc/

 This ORCA versions uses:
   CBLAS   interface :  Fast vector & matrix operations
   LAPACKE interface :  Fast linear algebra routines
   SCALAPACK package :  Parallel linear algebra routines
   Shared memory     :  Shared parallel matrices
   BLAS/LAPACK       :  OpenBLAS 0.3.15  USE64BITINT DYNAMIC_ARCH NO_AFFINITY Haswell SINGLE_THREADED
        Core in use  :  Haswell
   Copyright (c) 2011-2014, The OpenBLAS Project




***************************************
The coordinates will be read from file: 9.xyz
***************************************


================================================================================

cite the ECPs for Au [Def2-ECP] as follows:
Ce-Yb(ecp-28): M. Dolg, H. Stoll, H.Preuss, J. Chem. Phys., 1989, 90, 1730-1734.
Y-Cd(ecp-28), Hf-Hg(ecp-46): D. Andrae,U. Haeussermann, M. Dolg, H. Stoll, H. Preuss, Theor. Chim. Acta, 1990, 77, 123-141.
In-Sb(ecp-28), Tl-Bi(ecp-46): B. Metz, H. Stoll, M. Dolg, J. Chem. Phys., 2000, 113, 2563-2569.
Te-Xe(ecp-28), Po-Rn(ecp-46): K. A. Peterson, D. Figgen, E. Goll, H. Stoll, M. Dolg, J. Chem. Phys., 2003, 119, 11113-11123.
Rb(ecp-28), Cs(ecp-46): T. Leininger, A. Nicklass, W. Kuechle, H. Stoll, M. Dolg, A. Bergner, Chem. Phys. Lett., 1996, 255, 274-280.
Sr(ecp-28), Ba(ecp-46): M. Kaupp, P. V. Schleyer, H. Stoll and H. Preuss, J. Chem. Phys., 1991, 94, 1360-1366.
La(ecp-46): M. Dolg, H. Stoll, A. Savin, H. Preuss, Theor. Chim. Acta, 1989, 75, 173-194.
Lu(ecp-28): X. Cao, M. Dolg, J. Chem. Phys., 2001, 115, 7348-7355.

ECP parameters for Au [Def2-ECP] have been obtained from:
TURBOMOLE (7.0.2)

----- Orbital basis set information -----
Your calculation utilizes the basis: def2-TZVP
   F. Weigend and R. Ahlrichs, Phys. Chem. Chem. Phys. 7, 3297 (2005).

----- AuxJ basis set information -----
Your calculation utilizes the auxiliary basis: def2/J
   F. Weigend, Phys. Chem. Chem. Phys. 8, 1057 (2006).

================================================================================
                                        WARNINGS
                       Please study these warnings very carefully!
================================================================================


WARNING: your system is open-shell and RHF/RKS was chosen
  ===> : WILL SWITCH to UHF/UKS


WARNING: Geometry Optimization
  ===> : Switching off AutoStart
         For restart on a previous wavefunction, please use MOREAD

INFO   : the flag for use of the SHARK integral package has been found!

================================================================================
                                       INPUT FILE
================================================================================
NAME = pbe.inp
|  1> %pal nprocs 1 end 
|  2> 
|  3> !PBE def2-TZVP OPT UNO
|  4> !SLOWCONV KDIIS 
|  5> 
|  6> %geom maxiter 300 end
|  7> 
|  8> *xyzfile 0 3 9.xyz                           ****END OF INPUT****
================================================================================

                       *****************************
                       * Geometry Optimization Run *
                       *****************************

Geometry optimization settings:
Update method            Update   .... BFGS
Choice of coordinates    CoordSys .... Z-matrix Internals
Initial Hessian          InHess   .... Almoef's Model

Convergence Tolerances:
Energy Change            TolE     ....  5.0000e-06 Eh
Max. Gradient            TolMAXG  ....  3.0000e-04 Eh/bohr
RMS Gradient             TolRMSG  ....  1.0000e-04 Eh/bohr
Max. Displacement        TolMAXD  ....  4.0000e-03 bohr
RMS Displacement         TolRMSD  ....  2.0000e-03 bohr
Strict Convergence                ....  False
------------------------------------------------------------------------------
                        ORCA OPTIMIZATION COORDINATE SETUP
------------------------------------------------------------------------------

The optimization will be done in new redundant internal coordinates
Making redundant internal coordinates   ...  (new redundants) done
Evaluating the initial hessian          ...  (Almloef) done
Evaluating the coordinates              ...  done
Calculating the B-matrix                .... done
Calculating the G-matrix                .... done
Diagonalizing the G-matrix              .... done
The first mode is                       ....   52
The number of degrees of freedom        ....   27

    -----------------------------------------------------------------
                    Redundant Internal Coordinates


    -----------------------------------------------------------------
         Definition                    Initial Value    Approx d2E/dq
    -----------------------------------------------------------------
      1. B(Au  2,Au  0)                  2.7393         0.008514   
      2. B(Au  3,Au  2)                  2.7586         0.007933   
      3. B(Au  6,Au  2)                  2.7628         0.007810   
      4. B(Fe 10,Au  3)                  2.7384         0.062106   
      5. B(Fe 10,Au  6)                  2.8227         0.045567   
      6. B(Fe 10,Au  7)                  2.6595         0.082982   
      7. B(Fe 10,Au  5)                  2.6351         0.090790   
      8. B(Fe 10,Au  9)                  2.6613         0.082456   
      9. B(Fe 10,Au  8)                  2.6259         0.093888   
     10. B(Fe 10,Au  4)                  2.6051         0.101343   
     11. B(Fe 10,Au  1)                  2.5433         0.127179   
     12. B(Fe 10,Au  0)                  2.6352         0.090757   
     13. A(Au  2,Au  0,Fe 10)          106.1616         0.193148   
     14. A(Au  0,Au  2,Au  6)           64.0775         0.142302   
     15. A(Au  3,Au  2,Au  6)           67.1991         0.141456   
     16. A(Au  0,Au  2,Au  3)           63.2592         0.142491   
     17. A(Au  2,Au  3,Fe 10)          102.8418         0.183063   
     18. A(Au  2,Au  6,Fe 10)          100.5867         0.176385   
     19. A(Au  0,Fe 10,Au  5)          111.4048         0.288576   
     20. A(Au  3,Fe 10,Au  4)           60.7256         0.276772   
     21. A(Au  1,Fe 10,Au  3)          113.6341         0.286675   
     22. A(Au  0,Fe 10,Au  6)           64.5552         0.259744   
     23. A(Au  1,Fe 10,Au  6)          116.1036         0.273294   
     24. A(Au  3,Fe 10,Au  6)           66.6362         0.245696   
     25. A(Au  4,Fe 10,Au  6)          118.1738         0.264061   
     26. A(Au  5,Fe 10,Au  6)           60.0448         0.259758   
     27. A(Au  4,Fe 10,Au  5)          125.4257         0.293622   
     28. A(Au  1,Fe 10,Au  4)          113.0805         0.309843   
     29. A(Au  5,Fe 10,Au  7)           64.2779         0.284571   
     30. A(Au  4,Fe 10,Au  7)          117.0194         0.289500   
     31. A(Au  6,Fe 10,Au  7)          116.8824         0.256318   
     32. A(Au  1,Fe 10,Au  8)          115.6615         0.306057   
     33. A(Au  3,Fe 10,Au  8)          116.6894         0.273552   
     34. A(Au  4,Fe 10,Au  8)           64.9066         0.295182   
     35. A(Au  5,Fe 10,Au  8)           70.9731         0.290114   
     36. A(Au  6,Fe 10,Au  8)          119.0115         0.261060   
     37. A(Au  7,Fe 10,Au  8)           63.2574         0.286062   
     38. A(Au  0,Fe 10,Au  9)          117.6493         0.284274   
     39. A(Au  3,Fe 10,Au  9)           65.4253         0.268208   
     40. A(Au  4,Fe 10,Au  9)           67.4459         0.289212   
     41. A(Au  5,Fe 10,Au  9)           66.0829         0.284290   
     42. A(Au  6,Fe 10,Au  9)           62.7101         0.256077   
     43. A(Au  3,Fe 10,Au  5)          119.4288         0.272156   
     44. A(Au  1,Fe 10,Au  7)           63.9980         0.300075   
     45. A(Au  8,Fe 10,Au  9)           65.6883         0.285779   
     46. A(Au  7,Fe 10,Au  9)          116.9956         0.280356   
     47. A(Au  0,Fe 10,Au  7)          114.9508         0.284555   
     48. A(Au  1,Fe 10,Au  5)          114.0590         0.304415   
     49. A(Au  0,Fe 10,Au  4)          114.5142         0.293606   
     50. A(Au  0,Fe 10,Au  3)           64.8674         0.272141   
     51. A(Au  0,Fe 10,Au  1)           61.0046         0.304397   
     52. D(Au  3,Au  2,Au  0,Fe 10)    -37.0246         0.001502   
     53. D(Au  6,Au  2,Au  0,Fe 10)     39.2312         0.001502   
     54. D(Fe 10,Au  3,Au  2,Au  6)    -36.5774         0.001502   
     55. D(Fe 10,Au  3,Au  2,Au  0)     34.8082         0.001502   
     56. D(Fe 10,Au  6,Au  2,Au  0)    -35.2338         0.001502   
     57. D(Fe 10,Au  6,Au  2,Au  3)     34.9886         0.001502   
     58. D(Au  1,Fe 10,Au  0,Au  2)    176.7726         0.001536   
     59. D(Au  4,Fe 10,Au  6,Au  2)    -68.7723         0.001510   
     60. D(Au  7,Fe 10,Au  0,Au  2)   -147.3890         0.001536   
     61. D(Au  6,Fe 10,Au  0,Au  2)    -38.0652         0.001536   
     62. D(Au  5,Fe 10,Au  6,Au  2)    174.4673         0.001510   
     63. D(Au  9,Fe 10,Au  0,Au  2)     -3.3973         0.001536   
     64. D(Au  0,Fe 10,Au  3,Au  2)    -35.8279         0.001518   
     65. D(Au  1,Fe 10,Au  3,Au  2)    -73.6666         0.001518   
     66. D(Au  9,Fe 10,Au  3,Au  2)    105.2658         0.001518   
     67. D(Au  5,Fe 10,Au  0,Au  2)    -76.7650         0.001536   
     68. D(Au  8,Fe 10,Au  3,Au  2)    147.8245         0.001518   
     69. D(Au  6,Fe 10,Au  3,Au  2)     35.8536         0.001518   
     70. D(Au  4,Fe 10,Au  0,Au  2)     72.8934         0.001536   
     71. D(Au  0,Fe 10,Au  6,Au  2)     36.6784         0.001510   
     72. D(Au  1,Fe 10,Au  6,Au  2)     70.4861         0.001510   
     73. D(Au  3,Fe 10,Au  6,Au  2)    -35.4545         0.001510   
     74. D(Au  5,Fe 10,Au  3,Au  2)     65.6032         0.001518   
     75. D(Au  4,Fe 10,Au  3,Au  2)   -177.8636         0.001518   
     76. D(Au  7,Fe 10,Au  6,Au  2)    143.0910         0.001510   
     77. D(Au  8,Fe 10,Au  6,Au  2)   -144.1117         0.001510   
     78. D(Au  9,Fe 10,Au  6,Au  2)   -108.7826         0.001510   
     79. D(Au  3,Fe 10,Au  0,Au  2)     36.7529         0.001536   
    -----------------------------------------------------------------

Number of atoms                         .... 11
Number of degrees of freedom            .... 79

         *************************************************************
         *                GEOMETRY OPTIMIZATION CYCLE   1            *
         *************************************************************
---------------------------------
CARTESIAN COORDINATES (ANGSTROEM)
---------------------------------
  Au     7.610449    6.682483    6.456072
  Au     8.819819    8.851072    7.321905
  Au     5.913043    4.549564    6.185032
  Au     6.334492    5.482807    8.746508
  Au     6.866716    7.194507   10.770260
  Au     4.541659    9.582720    7.517728
  Au     4.714510    6.996248    6.643878
  Au     7.018938   10.794053    8.091639
  Au     5.753536    9.731302   10.317129
  Au     4.277822    7.437081    9.432540
  Fe     6.603045    8.182475    8.374203

----------------------------
CARTESIAN COORDINATES (A.U.)
----------------------------
  NO LB      ZA    FRAG     MASS         X           Y           Z
   0 Au   19.0000*   0   196.966   14.381665   12.628063   12.200207
   1 Au   19.0000*   0   196.966   16.667043   16.726102   13.836395
   2 Au   19.0000*   0   196.966   11.174033    8.597429   11.688017
   3 Au   19.0000*   0   196.966   11.970455   10.361004   16.528504
   4 Au   19.0000*   0   196.966   12.976212   13.595649   20.352843
   5 Au   19.0000*   0   196.966    8.582491   18.108716   14.206446
   6 Au   19.0000*   0   196.966    8.909133   13.220993   12.555110
   7 Au   19.0000*   0   196.966   13.263870   20.397804   15.290981
   8 Au   19.0000*   0   196.966   10.872606   18.389495   19.496547
   9 Au   19.0000*   0   196.966    8.083912   14.054046   17.824918
  10 Fe   26.0000    0    55.850   12.477947   15.462637   15.824950
* core charge reduced due to ECP

--------------------------------
INTERNAL COORDINATES (ANGSTROEM)
--------------------------------
 Au     0   0   0     0.000000000000     0.00000000     0.00000000
 Au     1   0   0     2.629642479856     0.00000000     0.00000000
 Au     1   2   0     2.739342077352   163.67009532     0.00000000
 Au     3   1   2     2.758572316465    63.25918888   332.72745690
 Au     4   3   1     2.703470729006   159.94543446    29.56541908
 Au     2   1   3     4.344687755772    72.59394496   314.33519969
 Au     6   2   1     2.735566920582    76.35891035     2.52496027
 Au     2   1   3     2.758775247261   111.86750561   315.44608963
 Au     8   2   1     2.771910552661   104.59515161    66.67287824
 Au     7   6   2     2.856863334948    62.13633729    97.37449742
 Fe     2   1   3     2.543312535217    61.22222252   348.91180835

---------------------------
INTERNAL COORDINATES (A.U.)
---------------------------
 Au     0   0   0     0.000000000000     0.00000000     0.00000000
 Au     1   0   0     4.969304117053     0.00000000     0.00000000
 Au     1   2   0     5.176606313321   163.67009532     0.00000000
 Au     3   1   2     5.212946198735    63.25918888   332.72745690
 Au     4   3   1     5.108819288894   159.94543446    29.56541908
 Au     2   1   3     8.210269995810    72.59394496   314.33519969
 Au     6   2   1     5.169472300914    76.35891035     2.52496027
 Au     2   1   3     5.213329682364   111.86750561   315.44608963
 Au     8   2   1     5.238151812255   104.59515161    66.67287824
 Au     7   6   2     5.398689305092    62.13633729    97.37449742
 Fe     2   1   3     4.806164164529    61.22222252   348.91180835

---------------------
BASIS SET INFORMATION
---------------------
There are 2 groups of distinct atoms

 Group   1 Type Au  : 8s7p6d1f contracted to 6s4p3d1f pattern {311111/4111/411/1}
 Group   2 Type Fe  : 17s11p7d1f contracted to 6s4p4d1f pattern {842111/6311/4111/1}

Atom   0Au   basis set group =>   1
Atom   1Au   basis set group =>   1
Atom   2Au   basis set group =>   1
Atom   3Au   basis set group =>   1
Atom   4Au   basis set group =>   1
Atom   5Au   basis set group =>   1
Atom   6Au   basis set group =>   1
Atom   7Au   basis set group =>   1
Atom   8Au   basis set group =>   1
Atom   9Au   basis set group =>   1
Atom  10Fe   basis set group =>   2
---------------------------------
AUXILIARY/J BASIS SET INFORMATION
---------------------------------
There are 2 groups of distinct atoms

 Group   1 Type Au  : 11s5p5d3f3g contracted to 8s5p5d2f3g pattern {41111111/11111/11111/21/111}
 Group   2 Type Fe  : 19s5p5d3f3g contracted to 8s5p5d2f3g pattern {121111111/11111/11111/21/111}

Atom   0Au   basis set group =>   1
Atom   1Au   basis set group =>   1
Atom   2Au   basis set group =>   1
Atom   3Au   basis set group =>   1
Atom   4Au   basis set group =>   1
Atom   5Au   basis set group =>   1
Atom   6Au   basis set group =>   1
Atom   7Au   basis set group =>   1
Atom   8Au   basis set group =>   1
Atom   9Au   basis set group =>   1
Atom  10Fe   basis set group =>   2
-------------------------
ECP PARAMETER INFORMATION
-------------------------

 Group 1, Type Au ECP Def2-ECP (replacing 60 core electrons, lmax=3)

Atom   0Au   ECP group =>   1
Atom   1Au   ECP group =>   1
Atom   2Au   ECP group =>   1
Atom   3Au   ECP group =>   1
Atom   4Au   ECP group =>   1
Atom   5Au   ECP group =>   1
Atom   6Au   ECP group =>   1
Atom   7Au   ECP group =>   1
Atom   8Au   ECP group =>   1
Atom   9Au   ECP group =>   1

------------------------------------------------------------------------------
                           ORCA GTO INTEGRAL CALCULATION
                           -- RI-GTO INTEGRALS CHOSEN --
------------------------------------------------------------------------------
------------------------------------------------------------------------------
                   ___                                                        
                  /   \      - P O W E R E D   B Y -                         
                 /     \                                                     
                 |  |  |   _    _      __       _____    __    __             
                 |  |  |  | |  | |    /  \     |  _  \  |  |  /  |          
                  \  \/   | |  | |   /    \    | | | |  |  | /  /          
                 / \  \   | |__| |  /  /\  \   | |_| |  |  |/  /          
                |  |  |   |  __  | /  /__\  \  |    /   |      \           
                |  |  |   | |  | | |   __   |  |    \   |  |\   \          
                \     /   | |  | | |  |  |  |  | |\  \  |  | \   \       
                 \___/    |_|  |_| |__|  |__|  |_| \__\ |__|  \__/        
                                                                              
                      - O R C A' S   B I G   F R I E N D -                    
                                      &                                       
                       - I N T E G R A L  F E E D E R -                       
                                                                              
 v1 FN, 2020, v2 2021                                                         
------------------------------------------------------------------------------


Reading SHARK input file pbe.SHARKINP.tmp ... ok
----------------------
SHARK INTEGRAL PACKAGE
----------------------

Number of atoms                             ...     11
Number of basis functions                   ...    445
Number of shells                            ...    155
Maximum angular momentum                    ...      3
Integral batch strategy                     ... SHARK/LIBINT Hybrid
RI-J (if used) integral strategy            ... SPLIT-RIJ (Revised 2003 algorithm where possible)
Printlevel                                  ...      1
Contraction scheme used                     ... SEGMENTED contraction
Coulomb Range Separation                    ... NOT USED
Exchange Range Separation                   ... NOT USED
Finite Nucleus Model                        ... NOT USED
Auxiliary Coulomb fitting basis             ... AVAILABLE
   # of basis functions in Aux-J            ...    979
   # of shells in Aux-J                     ...    253
   Maximum angular momentum in Aux-J        ...      4
Auxiliary J/K fitting basis                 ... NOT available
Auxiliary Correlation fitting basis         ... NOT available
Auxiliary 'external' fitting basis          ... NOT available
Integral threshold                          ...     2.500000e-11
Primitive cut-off                           ...     2.500000e-12
Primitive pair pre-selection threshold      ...     2.500000e-12

Calculating pre-screening integrals         ... done (  0.2 sec) Dimension = 155
Organizing shell pair data                  ... done (  0.2 sec)
Shell pair information
Total number of shell pairs                 ...     12090
Shell pairs after pre-screening             ...     10133
Total number of primitive shell pairs       ...     33105
Primitive shell pairs kept                  ...     20515
          la=0 lb=0:   1574 shell pairs
          la=1 lb=0:   2323 shell pairs
          la=1 lb=1:    878 shell pairs
          la=2 lb=0:   2004 shell pairs
          la=2 lb=1:   1411 shell pairs
          la=2 lb=2:    582 shell pairs
          la=3 lb=0:    539 shell pairs
          la=3 lb=1:    411 shell pairs
          la=3 lb=2:    352 shell pairs
          la=3 lb=3:     59 shell pairs

Calculating one electron integrals          ... done (  0.0 sec)
Calculating ECP integrals                   ... done (  4.2 sec)
Calculating RI/J V-Matrix + Cholesky decomp.... done (  0.0 sec)
Calculating Nuclear repulsion               ... done (  0.0 sec) ENN=   3263.864148855266 Eh

SHARK setup successfully completed in   5.0 seconds

Maximum memory used throughout the entire GTOINT-calculation: 306.4 MB
-------------------------------------------------------------------------------
                                 ORCA SCF
-------------------------------------------------------------------------------

------------
SCF SETTINGS
------------
Hamiltonian:
 Density Functional     Method          .... DFT(GTOs)
 Exchange Functional    Exchange        .... PBE
   PBE kappa parameter   XKappa         ....  0.804000
   PBE mue parameter    XMuePBE         ....  0.219520
 Correlation Functional Correlation     .... PBE
   PBE beta parameter  CBetaPBE         ....  0.066725
 LDA part of GGA corr.  LDAOpt          .... PW91-LDA
 Gradients option       PostSCFGGA      .... off
   Density functional embedding theory  .... OFF
   NL short-range parameter             ....  6.400000
 RI-approximation to the Coulomb term is turned on
   Number of AuxJ basis functions       .... 979


General Settings:
 Integral files         IntName         .... pbe
 Hartree-Fock type      HFTyp           .... UHF
 Total Charge           Charge          ....    0
 Multiplicity           Mult            ....    3
 Number of Electrons    NEL             ....  216
 Basis Dimension        Dim             ....  445
 Nuclear Repulsion      ENuc            ....   3263.8641488553 Eh

Convergence Acceleration:
 DIIS                   CNVDIIS         .... off
 Trust-Rad. Augm. Hess. CNVTRAH         .... auto
   Auto Start mean grad. ratio tolernc. ....  1.125000
   Auto Start start iteration           ....    20
   Auto Start num. interpolation iter.  ....    10
   Max. Number of Micro iterations      ....    16
   Max. Number of Macro iterations      .... Maxiter - #DIIS iter
   Number of Davidson start vectors     ....     2
   Converg. threshold I  (grad. norm)   ....   1.000e-05
   Converg. threshold II (energy diff.) ....   1.000e-08
   Grad. Scal. Fac. for Micro threshold ....   0.100
   Minimum threshold for Micro iter.    ....   0.010
   NR start threshold (gradient norm)   ....   0.001
   Initial trust radius                 ....   0.400
   Minimum AH scaling param. (alpha)    ....   1.000
   Maximum AH scaling param. (alpha)    .... 1000.000
   Orbital update algorithm             .... Taylor
   White noise on init. David. guess    .... on
   Maximum white noise                  ....   0.010
   Quad. conv. algorithm                .... NR
 SOSCF                  CNVSOSCF        .... off
 Level Shifting         CNVShift        .... off
 Zerner damping         CNVZerner       .... off
 Static damping         CNVDamp         .... off
 Fernandez-Rico         CNVRico         .... off

SCF Procedure:
 Maximum # iterations   MaxIter         ....   125
 SCF integral mode      SCFMode         .... Direct
   Integral package                     .... SHARK and LIBINT hybrid scheme
 Reset frequency        DirectResetFreq ....    20
 Integral Threshold     Thresh          ....  2.500e-11 Eh
 Primitive CutOff       TCut            ....  2.500e-12 Eh

Convergence Tolerance:
 Convergence Check Mode ConvCheckMode   .... Total+1el-Energy
 Convergence forced     ConvForced      .... 0
 Energy Change          TolE            ....  1.000e-08 Eh
 1-El. energy change                    ....  1.000e-05 Eh


Diagonalization of the overlap matrix:
Smallest eigenvalue                        ... 5.585e-04
Time for diagonalization                   ...    0.020 sec
Threshold for overlap eigenvalues          ... 1.000e-08
Number of eigenvalues below threshold      ... 0
Time for construction of square roots      ...    0.009 sec
Total time needed                          ...    0.030 sec

Time for model grid setup =    0.678 sec

------------------------------
INITIAL GUESS: MODEL POTENTIAL
------------------------------
Loading Hartree-Fock densities                     ... done
  calling /media/Programs/ORCA501/orca pbe_atom79.inp > pbe_atom79.out in order to generate an atomic fitting density for atom 0 (Au with ECP) on-the-fly... 
    atom 0 (Au), assumed electronic state with S=2: 1s2 2s2 2p6 3s2 3p6 4s2 3d10 4p6 5s2 4d10 5p6 6s1 4f14 5d10           ... done
Calculating cut-offs                               ... done
Initializing the effective Hamiltonian             ... done
Setting up the integral package (SHARK)            ... done
Starting the Coulomb interaction                   ... done (   0.9 sec)
Reading the grid                                   ... done
Mapping shells                                     ... done
Starting the XC term evaluation                    ... done (   1.2 sec)
  promolecular density results
     # of electrons  =    816.012040992
     EX              =  -3712.311577227
     EC              =    -49.569869678
     EX+EC           =  -3761.881446905
Transforming the Hamiltonian                       ... done (   0.0 sec)
Diagonalizing the Hamiltonian                      ... done (   0.0 sec)
Back transforming the eigenvectors                 ... done (   0.0 sec)
Now organizing SCF variables                       ... done
                      ------------------
                      INITIAL GUESS DONE (   3.3 sec)
                      ------------------
-------------------
DFT GRID GENERATION
-------------------

General Integration Accuracy     IntAcc      ... 4.388
Radial Grid Type                 RadialGrid  ... OptM3 with GC (2021)
Angular Grid (max. ang.)         AngularGrid ... 4 (Lebedev-302)
Angular grid pruning method      GridPruning ... 4 (adaptive)
Weight generation scheme         WeightScheme... Becke
Basis function cutoff            BFCut       ... 1.0000e-11
Integration weight cutoff        WCut        ... 1.0000e-14
Angular grids for H and He will be reduced by one unit
Partially contracted basis set               ... off
Rotationally invariant grid construction     ... off

Total number of grid points                  ...   123268
Total number of batches                      ...     1932
Average number of points per batch           ...       63
Average number of grid points per atom       ...    11206
Time for grid setup =    1.719 sec

--------------
SCF ITERATIONS
--------------
ITER       Energy         Delta-E        Max-DP      RMS-DP      [F,P]   Gradient Norm
               ***  Starting incremental Fock matrix formation  ***
                             ****Resetting KDIIS****
                             ****Turning on KDIIS(Cayley)****
  0  -2618.8239994220   0.000000000000 0.36133689  0.00240597  0.2966535   0.259237139
  1  -2620.7794190507  -1.955419628699 0.55386230  0.00231487  0.2653221   0.167304565
  2  -2621.3366466131  -0.557227562411 0.10683763  0.00142203  0.2094658   0.122861209
  3  -2621.5391504118  -0.202503798646 0.13159454  0.00163117  0.1222758   0.072768689
  4  -2621.5942001897  -0.055049777973 0.05015044  0.00057947  0.0316095   0.025434362
  5  -2621.6409983874  -0.046798197620 0.20483337  0.00100489  0.0175935   0.011605030
  6  -2621.6643715127  -0.023373125319 0.04900803  0.00069862  0.0304281   0.013458361
  7  -2621.6804863281  -0.016114815459 0.02837097  0.00028428  0.0105724   0.008125372
  8  -2621.6859848763  -0.005498548208 0.01617331  0.00017117  0.0095769   0.005832233
  9  -2621.6909924290  -0.005007552711 0.01143989  0.00019378  0.0090512   0.002516675
 10  -2621.6957768719  -0.004784442823 0.01375726  0.00020515  0.0082309   0.003442306
 11  -2621.7007195568  -0.004942684900 0.02872494  0.00027499  0.0050400   0.002118962
 12  -2621.7049843212  -0.004264764450 0.01869362  0.00011474  0.0067277   0.004576745
 13  -2621.7068451441  -0.001860822872 0.01057029  0.00009844  0.0071604   0.003350059
 14  -2621.7083581461  -0.001513001956 0.01356899  0.00013145  0.0044188   0.002238651
 15  -2621.7101305296  -0.001772383518 0.01308852  0.00012303  0.0045381   0.002421461
 16  -2621.7118882121  -0.001757682580 0.00601068  0.00005546  0.0046143   0.001963663
 17  -2621.7118933924  -0.000005180240 0.01124603  0.00013376  0.0041754   0.001540809
 18  -2621.7138143822  -0.001920989860 0.00626399  0.00005019  0.0043582   0.001574227
 19  -2621.7141913629  -0.000376980653 0.00616098  0.00005305  0.0052516   0.002183852
               *** Restarting incremental Fock matrix formation ***
                             ****Resetting KDIIS****

 WARNING: the maximum gradient error descreased on average only by a factor   1.0
          during the last 20 iterations

                      *** Initiating the TRAH-SCF procedure ***

                    *** KDIIS BlockDiag ( 0.047 sec) ***

TRAH GRID
---------

General Integration Accuracy     IntAcc      ... 3.467
Radial Grid Type                 RadialGrid  ... OptM3 with GC (2021)
Angular Grid (max. ang.)         AngularGrid ... 1 (Lebedev-50)
Angular grid pruning method      GridPruning ... 4 (adaptive)
Weight generation scheme         WeightScheme... Becke
Basis function cutoff            BFCut       ... 1.0000e-11
Integration weight cutoff        WCut        ... 1.0000e-14
Angular grids for H and He will be reduced by one unit
Partially contracted basis set               ... off
Rotationally invariant grid construction     ... off

Total number of grid points                  ...    53230
Total number of batches                      ...      836
Average number of points per batch           ...       63
Average number of grid points per atom       ...     4839

 --------------------------------------------------------------------------------------------
   Iter.        energy            ||Error||_2        Shift      TRadius  Mac/Mic        Rej.
 --------------------------------------------------------------------------------------------
    0      -2621.714853874412     2.170325e-02                     0.400 (TRAH MAcro)   No
WARNING : small    HOMO - LUMO gap : (op =  beta) 0.003685
    0     dE    -1.075094e-04     4.969663e-02    -1.0751e-04      0.005 (TRAH MIcro)
    0     dE    -1.129543e-03     5.898198e-02    -1.1152e-03      0.113 (TRAH MIcro)
    0     dE    -7.114511e-03     3.451638e-02    -2.0757e-02      0.400 (TRAH MIcro)
    0     dE    -8.274869e-03     2.521071e-02    -2.4486e-02      0.400 (TRAH MIcro)
    0     dE    -8.912831e-03     1.505635e-02    -2.6435e-02      0.400 (TRAH MIcro)
    0     dE    -9.033550e-03     7.867448e-03    -2.6655e-02      0.400 (TRAH MIcro)
    0     dE    -9.066339e-03     3.630642e-03    -2.6669e-02      0.400 (TRAH MIcro)
    0     dE    -9.073417e-03     1.564674e-03    -2.6671e-02      0.400 (TRAH MIcro)
    1      -2621.722852524418     2.229628e-02                     0.480 (TRAH MAcro)   No
WARNING : small    HOMO - LUMO gap : (op =  beta) 0.014595
    1     dE    -1.048829e-04     1.729537e-02    -1.0488e-04      0.005 (TRAH MIcro)
    1     dE    -4.122190e-03     4.843061e-02    -3.3843e-03      0.467 (TRAH MIcro)
    1     dE    -4.713843e-03     2.621812e-02    -4.9164e-03      0.480 (TRAH MIcro)
    1     dE    -5.099999e-03     1.726052e-02    -6.6542e-03      0.480 (TRAH MIcro)
    1     dE    -5.275702e-03     8.938417e-03    -7.4732e-03      0.480 (TRAH MIcro)
    1     dE    -5.282053e-03     4.657519e-03    -7.7866e-03      0.476 (TRAH MIcro)
    1     dE    -5.304848e-03     2.171368e-03    -7.8003e-03      0.478 (TRAH MIcro)
    2      -2621.725689882168     6.987079e-02                     0.480 (TRAH MAcro)   No
WARNING : small    HOMO - LUMO gap : (op =  beta) 0.016143
    2     dE    -9.004497e-04     4.192125e-02    -9.0030e-04      0.013 (TRAH MIcro)
    2     dE    -1.343997e-03     1.289974e-02    -1.3424e-03      0.034 (TRAH MIcro)
    2     dE    -1.445211e-03     8.449539e-03    -1.4424e-03      0.044 (TRAH MIcro)
    2     dE    -1.506561e-03     4.963206e-03    -1.5010e-03      0.061 (TRAH MIcro)
    3      -2621.727182605677     5.085279e-03                     0.576 (TRAH MAcro)   No
    3     dE    -4.924520e-06     7.460899e-03    -4.9245e-06      0.001 (TRAH MIcro)
    3     dE    -2.672494e-05     4.969501e-03    -2.6719e-05      0.015 (TRAH MIcro)
    3     dE    -3.829454e-05     4.846026e-03    -3.8273e-05      0.024 (TRAH MIcro)
    3     dE    -5.544718e-05     4.228983e-03    -5.5357e-05      0.040 (TRAH MIcro)
    3     dE    -6.457014e-05     2.279750e-03    -6.4393e-05      0.052 (TRAH MIcro)
    3     dE    -6.815035e-05     1.265238e-03    -6.7917e-05      0.059 (TRAH MIcro)
    3     dE    -6.918024e-05     7.033800e-04    -6.8925e-05      0.061 (TRAH MIcro)
    3     dE    -6.952219e-05     3.632078e-04    -6.9257e-05      0.062 (TRAH MIcro)
    4      -2621.727249461955     1.448490e-03                     0.691 (TRAH MAcro)   No
    4     dE    -3.515586e-07     2.238791e-03    -3.5156e-07      0.000 (TRAH MIcro)
    4     dE    -5.217347e-07     5.508144e-04    -5.2173e-07      0.001 (TRAH MIcro)
    4     dE    -6.039065e-07     2.414568e-04    -6.0391e-07      0.001 (TRAH MIcro)
    4     dE    -6.546735e-07     1.982501e-04    -6.5467e-07      0.002 (TRAH MIcro)
    4     dE    -6.744752e-07     1.470978e-04    -6.7447e-07      0.002 (TRAH MIcro)
    4     dE    -6.801850e-07     8.294048e-05    -6.8018e-07      0.002 (TRAH MIcro)
    5      -2621.727250142284     8.270202e-05                           (NR   MAcro)
    5     dE    -1.849198e-09     5.480354e-05                           (NR   MIcro)
    5     dE    -2.289492e-09     4.595174e-05                           (NR   MIcro)
    5     dE    -3.315205e-09     2.506589e-05                           (NR   MIcro)
    5     dE    -3.749807e-09     1.849066e-05                           (NR   MIcro)
    5     dE    -3.929256e-09     1.552769e-05                           (NR   MIcro)
    5     dE    -4.047806e-09     9.348920e-06                           (NR   MIcro)
    5     dE    -4.081054e-09     4.004740e-06                           (NR   MIcro)
    5     dE    -4.089287e-09     2.086150e-06                           (NR   MIcro)
    5     dE    -4.092169e-09     1.338786e-06                           (NR   MIcro)
    5     dE    -4.093103e-09     1.051712e-06                           (NR   MIcro)
    5     dE    -4.093712e-09     6.265288e-07                           (NR   MIcro)
    6      -2621.727250146354     6.652253e-07                           (NR   MAcro)

               *****************************************************
               *                     SUCCESS                       *
               *           SCF CONVERGED AFTER  71 CYCLES          *
               *****************************************************


----------------
TOTAL SCF ENERGY
----------------

Total Energy       :        -2621.72725015 Eh          -71340.82537 eV

Components:
Nuclear Repulsion  :         3263.86414886 Eh           88814.25872 eV
Electronic Energy  :        -5885.59139900 Eh         -160155.08409 eV
One Electron Energy:       -10653.26232779 Eh         -289890.00566 eV
Two Electron Energy:         4767.67092879 Eh          129734.92157 eV

Virial components:
Potential Energy   :        -4341.32229408 Eh         -118133.38541 eV
Kinetic Energy     :         1719.59504393 Eh           46792.56003 eV
Virial Ratio       :            2.52461898


DFT components:
N(Alpha)           :      108.999985726810 electrons
N(Beta)            :      106.999979627429 electrons
N(Total)           :      215.999965354240 electrons
E(X)               :     -174.813092164414 Eh       
E(C)               :       -9.414558061894 Eh       
E(XC)              :     -184.227650226308 Eh       
DFET-embed. en.    :        0.000000000000 Eh       

---------------
SCF CONVERGENCE
---------------

  Last Energy change         ...   -4.0695e-09  Tolerance :   1.0000e-08
  Last Orbital Gradient      ...    6.6523e-07  Tolerance :   1.0000e-05
  Last Orbital Rotation      ...    3.4906e-04

             **** THE GBW FILE WAS UPDATED (pbe.gbw) ****
             **** DENSITY pbe.scfp WAS UPDATED ****
             **** ENERGY FILE WAS UPDATED (pbe.en.tmp) ****
----------------------
UHF SPIN CONTAMINATION
----------------------

Warning: in a DFT calculation there is little theoretical justification to 
         calculate <S**2> as in Hartree-Fock theory. We will do it anyways
         but you should keep in mind that the values have only limited relevance

Expectation value of <S**2>     :     3.090038
Ideal value S*(S+1) for S=1.0   :     2.000000
Deviation                       :     1.090038

             **** THE GBW FILE WAS UPDATED (pbe.gbw) ****
             **** DENSITY pbe.scfp WAS UPDATED ****
----------------
ORBITAL ENERGIES
----------------
                 SPIN UP ORBITALS
  NO   OCC          E(Eh)            E(eV) 
   0   1.0000    -254.745249     -6931.9706 
   1   1.0000     -29.583703      -805.0135 
   2   1.0000     -25.523557      -694.5313 
   3   1.0000     -25.518632      -694.3973 
   4   1.0000     -25.515783      -694.3198 
   5   1.0000      -4.024778      -109.5198 
   6   1.0000      -4.024546      -109.5135 
   7   1.0000      -4.021524      -109.4312 
   8   1.0000      -4.021125      -109.4204 
   9   1.0000      -4.017803      -109.3300 
  10   1.0000      -4.017447      -109.3203 
  11   1.0000      -4.016821      -109.3033 
  12   1.0000      -4.015900      -109.2782 
  13   1.0000      -4.015075      -109.2557 
  14   1.0000      -4.014331      -109.2355 
  15   1.0000      -3.359336       -91.4122 
  16   1.0000      -2.243794       -61.0567 
  17   1.0000      -2.242497       -61.0215 
  18   1.0000      -2.239898       -60.9507 
  19   1.0000      -2.239131       -60.9298 
  20   1.0000      -2.237842       -60.8948 
  21   1.0000      -2.237427       -60.8835 
  22   1.0000      -2.234964       -60.8165 
  23   1.0000      -2.234682       -60.8088 
  24   1.0000      -2.234150       -60.7943 
  25   1.0000      -2.233493       -60.7764 
  26   1.0000      -2.233379       -60.7733 
  27   1.0000      -2.233084       -60.7653 
  28   1.0000      -2.232885       -60.7599 
  29   1.0000      -2.232291       -60.7437 
  30   1.0000      -2.232001       -60.7358 
  31   1.0000      -2.231444       -60.7207 
  32   1.0000      -2.231363       -60.7185 
  33   1.0000      -2.230587       -60.6974 
  34   1.0000      -2.230389       -60.6920 
  35   1.0000      -2.230240       -60.6879 
  36   1.0000      -2.229234       -60.6605 
  37   1.0000      -2.228358       -60.6367 
  38   1.0000      -2.227777       -60.6209 
  39   1.0000      -2.227603       -60.6162 
  40   1.0000      -2.226595       -60.5887 
  41   1.0000      -2.226295       -60.5806 
  42   1.0000      -2.225925       -60.5705 
  43   1.0000      -2.224336       -60.5273 
  44   1.0000      -2.223493       -60.5043 
  45   1.0000      -2.222927       -60.4889 
  46   1.0000      -2.181886       -59.3721 
  47   1.0000      -2.171609       -59.0925 
  48   1.0000      -2.165727       -58.9324 
  49   1.0000      -0.416873       -11.3437 
  50   1.0000      -0.382945       -10.4205 
  51   1.0000      -0.372063       -10.1244 
  52   1.0000      -0.367339        -9.9958 
  53   1.0000      -0.362889        -9.8747 
  54   1.0000      -0.355751        -9.6805 
  55   1.0000      -0.353025        -9.6063 
  56   1.0000      -0.344521        -9.3749 
  57   1.0000      -0.341111        -9.2821 
  58   1.0000      -0.337412        -9.1814 
  59   1.0000      -0.332864        -9.0577 
  60   1.0000      -0.331214        -9.0128 
  61   1.0000      -0.327383        -8.9086 
  62   1.0000      -0.326343        -8.8802 
  63   1.0000      -0.323831        -8.8119 
  64   1.0000      -0.321594        -8.7510 
  65   1.0000      -0.319219        -8.6864 
  66   1.0000      -0.317498        -8.6396 
  67   1.0000      -0.316119        -8.6020 
  68   1.0000      -0.310482        -8.4486 
  69   1.0000      -0.305831        -8.3221 
  70   1.0000      -0.304027        -8.2730 
  71   1.0000      -0.301997        -8.2178 
  72   1.0000      -0.300046        -8.1647 
  73   1.0000      -0.293663        -7.9910 
  74   1.0000      -0.289743        -7.8843 
  75   1.0000      -0.287241        -7.8162 
  76   1.0000      -0.285206        -7.7609 
  77   1.0000      -0.283485        -7.7140 
  78   1.0000      -0.280097        -7.6218 
  79   1.0000      -0.278896        -7.5892 
  80   1.0000      -0.276081        -7.5125 
  81   1.0000      -0.274758        -7.4766 
  82   1.0000      -0.272588        -7.4175 
  83   1.0000      -0.269449        -7.3321 
  84   1.0000      -0.268752        -7.3131 
  85   1.0000      -0.266916        -7.2632 
  86   1.0000      -0.265539        -7.2257 
  87   1.0000      -0.262752        -7.1498 
  88   1.0000      -0.262163        -7.1338 
  89   1.0000      -0.261424        -7.1137 
  90   1.0000      -0.258668        -7.0387 
  91   1.0000      -0.256324        -6.9749 
  92   1.0000      -0.255167        -6.9435 
  93   1.0000      -0.254194        -6.9170 
  94   1.0000      -0.252859        -6.8807 
  95   1.0000      -0.250540        -6.8175 
  96   1.0000      -0.249351        -6.7852 
  97   1.0000      -0.246742        -6.7142 
  98   1.0000      -0.243248        -6.6191 
  99   1.0000      -0.240369        -6.5408 
 100   1.0000      -0.239188        -6.5086 
 101   1.0000      -0.237180        -6.4540 
 102   1.0000      -0.236426        -6.4335 
 103   1.0000      -0.234247        -6.3742 
 104   1.0000      -0.233011        -6.3406 
 105   1.0000      -0.229358        -6.2411 
 106   1.0000      -0.227477        -6.1900 
 107   1.0000      -0.224663        -6.1134 
 108   1.0000      -0.197549        -5.3756 
 109   0.0000      -0.169407        -4.6098 
 110   0.0000      -0.156436        -4.2569 
 111   0.0000      -0.150466        -4.0944 
 112   0.0000      -0.130943        -3.5632 
 113   0.0000      -0.113012        -3.0752 
 114   0.0000      -0.104255        -2.8369 
 115   0.0000      -0.072857        -1.9825 
 116   0.0000      -0.055120        -1.4999 
 117   0.0000      -0.053123        -1.4455 
 118   0.0000      -0.046459        -1.2642 
 119   0.0000      -0.038969        -1.0604 
 120   0.0000      -0.033052        -0.8994 
 121   0.0000      -0.030102        -0.8191 
 122   0.0000      -0.018680        -0.5083 
 123   0.0000      -0.007037        -0.1915 
 124   0.0000       0.005877         0.1599 
 125   0.0000       0.009807         0.2669 
 126   0.0000       0.030508         0.8302 
 127   0.0000       0.036527         0.9939 
 128   0.0000       0.047384         1.2894 
 129   0.0000       0.051074         1.3898 
 130   0.0000       0.052465         1.4276 
 131   0.0000       0.056358         1.5336 
 132   0.0000       0.058304         1.5865 
 133   0.0000       0.060535         1.6472 
 134   0.0000       0.063153         1.7185 
 135   0.0000       0.074541         2.0284 
 136   0.0000       0.080960         2.2030 
 137   0.0000       0.086357         2.3499 
 138   0.0000       0.092795         2.5251 
 139   0.0000       0.095090         2.5875 
 140   0.0000       0.100944         2.7468 
 141   0.0000       0.109888         2.9902 
 142   0.0000       0.117148         3.1878 
 143   0.0000       0.133680         3.6376 
 144   0.0000       0.135798         3.6953 
 145   0.0000       0.144180         3.9233 
 146   0.0000       0.151735         4.1289 
 147   0.0000       0.156322         4.2537 
 148   0.0000       0.172524         4.6946 
 149   0.0000       0.184396         5.0177 
 150   0.0000       0.185764         5.0549 
 151   0.0000       0.188319         5.1244 
 152   0.0000       0.189134         5.1466 
 153   0.0000       0.196631         5.3506 
 154   0.0000       0.209284         5.6949 
 155   0.0000       0.214876         5.8471 
 156   0.0000       0.221525         6.0280 
 157   0.0000       0.225942         6.1482 
 158   0.0000       0.232670         6.3313 
 159   0.0000       0.242768         6.6061 
 160   0.0000       0.246481         6.7071 
 161   0.0000       0.250511         6.8167 
 162   0.0000       0.253808         6.9065 
 163   0.0000       0.254658         6.9296 
 164   0.0000       0.268055         7.2942 
 165   0.0000       0.270871         7.3708 
 166   0.0000       0.277866         7.5611 
 167   0.0000       0.278943         7.5904 
 168   0.0000       0.280527         7.6335 
 169   0.0000       0.291237         7.9250 
 170   0.0000       0.300527         8.1778 
 171   0.0000       0.301062         8.1923 
 172   0.0000       0.306096         8.3293 
 173   0.0000       0.310668         8.4537 
 174   0.0000       0.312794         8.5115 
 175   0.0000       0.320227         8.7138 
 176   0.0000       0.322167         8.7666 
 177   0.0000       0.327620         8.9150 
 178   0.0000       0.336273         9.1505 
 179   0.0000       0.337231         9.1765 
 180   0.0000       0.346398         9.4260 
 181   0.0000       0.350522         9.5382 
 182   0.0000       0.353459         9.6181 
 183   0.0000       0.362427         9.8621 
 184   0.0000       0.368070        10.0157 
 185   0.0000       0.376615        10.2482 
 186   0.0000       0.381536        10.3821 
 187   0.0000       0.388888        10.5822 
 188   0.0000       0.399145        10.8613 
 189   0.0000       0.406912        11.0726 
 190   0.0000       0.414670        11.2837 
 191   0.0000       0.418344        11.3837 
 192   0.0000       0.424540        11.5523 
 193   0.0000       0.431666        11.7462 
 194   0.0000       0.438372        11.9287 
 195   0.0000       0.440572        11.9886 
 196   0.0000       0.449123        12.2213 
 197   0.0000       0.454554        12.3690 
 198   0.0000       0.462409        12.5828 
 199   0.0000       0.473056        12.8725 
 200   0.0000       0.478911        13.0318 
 201   0.0000       0.487331        13.2609 
 202   0.0000       0.487960        13.2781 
 203   0.0000       0.492574        13.4036 
 204   0.0000       0.499390        13.5891 
 205   0.0000       0.500975        13.6322 
 206   0.0000       0.506535        13.7835 
 207   0.0000       0.511832        13.9276 
 208   0.0000       0.513050        13.9608 
 209   0.0000       0.518603        14.1119 
 210   0.0000       0.522486        14.2176 
 211   0.0000       0.530060        14.4237 
 212   0.0000       0.535952        14.5840 
 213   0.0000       0.544749        14.8234 
 214   0.0000       0.610566        16.6144 
 215   0.0000       0.615860        16.7584 
 216   0.0000       0.629395        17.1267 
 217   0.0000       0.657833        17.9005 
 218   0.0000       0.668269        18.1845 
 219   0.0000       0.677552        18.4371 
 220   0.0000       0.688770        18.7424 
 221   0.0000       0.690359        18.7856 
 222   0.0000       0.697604        18.9828 
 223   0.0000       0.712920        19.3995 
 224   0.0000       0.722237        19.6531 
 225   0.0000       0.729450        19.8493 
 226   0.0000       0.746572        20.3153 
 227   0.0000       0.755385        20.5551 
 228   0.0000       0.762546        20.7499 
 229   0.0000       0.768210        20.9040 
 230   0.0000       0.784913        21.3586 
 231   0.0000       0.801757        21.8169 
 232   0.0000       0.813937        22.1483 
 233   0.0000       0.843338        22.9484 
 234   0.0000       0.853118        23.2145 
 235   0.0000       0.886854        24.1325 
 236   0.0000       0.908786        24.7293 
 237   0.0000       0.911222        24.7956 
 238   0.0000       0.923390        25.1267 
 239   0.0000       0.930588        25.3226 
 240   0.0000       0.953249        25.9392 
 241   0.0000       0.966189        26.2914 
 242   0.0000       0.979216        26.6458 
 243   0.0000       0.988736        26.9049 
 244   0.0000       1.021000        27.7828 
 245   0.0000       1.038220        28.2514 
 246   0.0000       1.088478        29.6190 
 247   0.0000       1.102530        30.0014 
 248   0.0000       1.138469        30.9793 
 249   0.0000       1.207452        32.8564 
 250   0.0000       1.238206        33.6933 
 251   0.0000       1.265814        34.4446 
 252   0.0000       1.271986        34.6125 
 253   0.0000       1.285642        34.9841 
 254   0.0000       1.292642        35.1746 
 255   0.0000       1.296716        35.2854 
 256   0.0000       1.299750        35.3680 
 257   0.0000       1.316669        35.8284 
 258   0.0000       1.328607        36.1532 
 259   0.0000       1.340839        36.4861 
 260   0.0000       1.356404        36.9096 
 261   0.0000       1.361279        37.0423 
 262   0.0000       1.367629        37.2151 
 263   0.0000       1.387028        37.7429 
 264   0.0000       1.388261        37.7765 
 265   0.0000       1.397146        38.0183 
 266   0.0000       1.405004        38.2321 
 267   0.0000       1.409596        38.3571 
 268   0.0000       1.411506        38.4090 
 269   0.0000       1.415798        38.5258 
 270   0.0000       1.421359        38.6771 
 271   0.0000       1.431381        38.9499 
 272   0.0000       1.434301        39.0293 
 273   0.0000       1.446107        39.3506 
 274   0.0000       1.447100        39.3776 
 275   0.0000       1.448460        39.4146 
 276   0.0000       1.453040        39.5392 
 277   0.0000       1.456678        39.6382 
 278   0.0000       1.458644        39.6917 
 279   0.0000       1.466340        39.9011 
 280   0.0000       1.467645        39.9366 
 281   0.0000       1.471166        40.0325 
 282   0.0000       1.473297        40.0904 
 283   0.0000       1.474665        40.1277 
 284   0.0000       1.478722        40.2381 
 285   0.0000       1.481900        40.3245 
 286   0.0000       1.484352        40.3913 
 287   0.0000       1.486674        40.4544 
 288   0.0000       1.488568        40.5060 
 289   0.0000       1.490835        40.5677 
 290   0.0000       1.495066        40.6828 
 291   0.0000       1.496829        40.7308 
 292   0.0000       1.497002        40.7355 
 293   0.0000       1.498475        40.7756 
 294   0.0000       1.500608        40.8336 
 295   0.0000       1.502182        40.8765 
 296   0.0000       1.505034        40.9541 
 297   0.0000       1.507561        41.0228 
 298   0.0000       1.508464        41.0474 
 299   0.0000       1.510574        41.1048 
 300   0.0000       1.511605        41.1329 
 301   0.0000       1.513071        41.1728 
 302   0.0000       1.515800        41.2470 
 303   0.0000       1.517057        41.2812 
 304   0.0000       1.519804        41.3560 
 305   0.0000       1.521209        41.3942 
 306   0.0000       1.522349        41.4252 
 307   0.0000       1.523488        41.4562 
 308   0.0000       1.525126        41.5008 
 309   0.0000       1.527287        41.5596 
 310   0.0000       1.529675        41.6246 
 311   0.0000       1.531972        41.6871 
 312   0.0000       1.533396        41.7258 
 313   0.0000       1.534372        41.7524 
 314   0.0000       1.535606        41.7860 
 315   0.0000       1.538604        41.8676 
 316   0.0000       1.540484        41.9187 
 317   0.0000       1.542876        41.9838 
 318   0.0000       1.545042        42.0427 
 319   0.0000       1.547511        42.1099 
 320   0.0000       1.551088        42.2072 
 321   0.0000       1.554118        42.2897 
 322   0.0000       1.555300        42.3219 
 323   0.0000       1.559698        42.4415 
 324   0.0000       1.563293        42.5394 
 325   0.0000       1.563887        42.5555 
 326   0.0000       1.566761        42.6337 
 327   0.0000       1.569807        42.7166 
 328   0.0000       1.572007        42.7765 
 329   0.0000       1.578885        42.9636 
 330   0.0000       1.581469        43.0340 
 331   0.0000       1.584667        43.1210 
 332   0.0000       1.586326        43.1661 
 333   0.0000       1.587996        43.2116 
 334   0.0000       1.591906        43.3180 
 335   0.0000       1.595015        43.4026 
 336   0.0000       1.597169        43.4612 
 337   0.0000       1.601194        43.5707 
 338   0.0000       1.610851        43.8335 
 339   0.0000       1.612243        43.8714 
 340   0.0000       1.614244        43.9258 
 341   0.0000       1.616581        43.9894 
 342   0.0000       1.624814        44.2134 
 343   0.0000       1.627404        44.2839 
 344   0.0000       1.638745        44.5925 
 345   0.0000       1.643621        44.7252 
 346   0.0000       1.649508        44.8854 
 347   0.0000       1.655232        45.0411 
 348   0.0000       1.671439        45.4822 
 349   0.0000       1.673579        45.5404 
 350   0.0000       1.689439        45.9720 
 351   0.0000       1.705399        46.4063 
 352   0.0000       1.715770        46.6885 
 353   0.0000       1.724271        46.9198 
 354   0.0000       1.740438        47.3597 
 355   0.0000       1.755898        47.7804 
 356   0.0000       1.760531        47.9065 
 357   0.0000       1.764478        48.0139 
 358   0.0000       1.785452        48.5846 
 359   0.0000       1.793109        48.7930 
 360   0.0000       1.812500        49.3206 
 361   0.0000       1.818497        49.4838 
 362   0.0000       1.823097        49.6090 
 363   0.0000       1.840770        50.0899 
 364   0.0000       1.872326        50.9486 
 365   0.0000       1.878366        51.1129 
 366   0.0000       1.901965        51.7551 
 367   0.0000       1.955913        53.2231 
 368   0.0000       1.969563        53.5945 
 369   0.0000       2.092176        56.9310 
 370   0.0000       2.238459        60.9116 
 371   0.0000       2.248065        61.1730 
 372   0.0000       2.268041        61.7165 
 373   0.0000       2.316260        63.0286 
 374   0.0000       2.370644        64.5085 
 375   0.0000       2.413051        65.6625 
 376   0.0000       2.421618        65.8956 
 377   0.0000       2.448878        66.6373 
 378   0.0000       2.463923        67.0468 
 379   0.0000       2.472448        67.2787 
 380   0.0000       2.477673        67.4209 
 381   0.0000       2.506103        68.1945 
 382   0.0000       3.242236        88.2257 
 383   0.0000       3.508742        95.4777 
 384   0.0000       3.534086        96.1674 
 385   0.0000       3.646501        99.2263 
 386   0.0000       3.709833       100.9497 
 387   0.0000       3.727236       101.4233 
 388   0.0000       3.910880       106.4205 
 389   0.0000       3.913021       106.4787 
 390   0.0000       3.922161       106.7274 
 391   0.0000       3.925018       106.8052 
 392   0.0000       3.930917       106.9657 
 393   0.0000       3.939580       107.2014 
 394   0.0000       3.944693       107.3406 
 395   0.0000      23.648121       643.4981 
 396   0.0000      23.785198       647.2281 
 397   0.0000      23.998166       653.0233 
 398   0.0000      24.085378       655.3965 
 399   0.0000      24.432447       664.8407 
 400   0.0000      24.550831       668.0621 
 401   0.0000      24.699637       672.1113 
 402   0.0000      25.012080       680.6133 
 403   0.0000      25.135952       683.9840 
 404   0.0000      25.210382       686.0094 
 405   0.0000      25.456808       692.7150 
 406   0.0000      25.554067       695.3615 
 407   0.0000      25.800663       702.0717 
 408   0.0000      25.853038       703.4969 
 409   0.0000      25.943299       705.9531 
 410   0.0000      26.164160       711.9630 
 411   0.0000      26.276345       715.0157 
 412   0.0000      26.338580       716.7092 
 413   0.0000      26.398974       718.3526 
 414   0.0000      26.542522       722.2587 
 415   0.0000      26.921086       732.5600 
 416   0.0000      27.086417       737.0589 
 417   0.0000      27.340246       743.9659 
 418   0.0000      27.588892       750.7319 
 419   0.0000      27.752018       755.1708 
 420   0.0000      28.176089       766.7103 
 421   0.0000      28.400652       772.8210 
 422   0.0000      28.540654       776.6307 
 423   0.0000      28.847515       784.9808 
 424   0.0000      29.071344       791.0715 
 425   0.0000      43.846939      1193.1359 
 426   0.0000      43.967774      1196.4240 
 427   0.0000      44.012223      1197.6335 
 428   0.0000      44.032565      1198.1870 
 429   0.0000      44.072432      1199.2718 
 430   0.0000      44.111360      1200.3311 
 431   0.0000      44.117651      1200.5023 
 432   0.0000      44.126425      1200.7411 
 433   0.0000      44.161964      1201.7081 
 434   0.0000      44.167686      1201.8638 
 435   0.0000     205.072616      5580.3096 
 436   0.0000     205.119793      5581.5933 
 437   0.0000     205.136464      5582.0470 
 438   0.0000     205.145935      5582.3047 
 439   0.0000     205.164873      5582.8200 
 440   0.0000     205.182055      5583.2876 
 441   0.0000     205.184451      5583.3528 
 442   0.0000     205.188489      5583.4626 
 443   0.0000     205.199206      5583.7543 
 444   0.0000     205.202629      5583.8474 

                 SPIN DOWN ORBITALS
  NO   OCC          E(Eh)            E(eV) 
   0   1.0000    -254.744574     -6931.9523 
   1   1.0000     -29.528348      -803.5072 
   2   1.0000     -25.480272      -693.3534 
   3   1.0000     -25.477053      -693.2659 
   4   1.0000     -25.475209      -693.2157 
   5   1.0000      -4.024720      -109.5182 
   6   1.0000      -4.024636      -109.5159 
   7   1.0000      -4.021691      -109.4358 
   8   1.0000      -4.021602      -109.4334 
   9   1.0000      -4.018346      -109.3448 
  10   1.0000      -4.017947      -109.3339 
  11   1.0000      -4.016913      -109.3058 
  12   1.0000      -4.015294      -109.2617 
  13   1.0000      -4.015248      -109.2604 
  14   1.0000      -4.014400      -109.2374 
  15   1.0000      -3.234331       -88.0106 
  16   1.0000      -2.243650       -61.0528 
  17   1.0000      -2.242335       -61.0171 
  18   1.0000      -2.239546       -60.9411 
  19   1.0000      -2.238989       -60.9260 
  20   1.0000      -2.237647       -60.8895 
  21   1.0000      -2.237217       -60.8778 
  22   1.0000      -2.235158       -60.8217 
  23   1.0000      -2.234745       -60.8105 
  24   1.0000      -2.234185       -60.7953 
  25   1.0000      -2.233887       -60.7871 
  26   1.0000      -2.233781       -60.7843 
  27   1.0000      -2.233009       -60.7633 
  28   1.0000      -2.232684       -60.7544 
  29   1.0000      -2.232261       -60.7429 
  30   1.0000      -2.232018       -60.7363 
  31   1.0000      -2.231812       -60.7307 
  32   1.0000      -2.231658       -60.7265 
  33   1.0000      -2.230941       -60.7070 
  34   1.0000      -2.230387       -60.6919 
  35   1.0000      -2.230058       -60.6830 
  36   1.0000      -2.229342       -60.6635 
  37   1.0000      -2.229119       -60.6574 
  38   1.0000      -2.228523       -60.6412 
  39   1.0000      -2.227998       -60.6269 
  40   1.0000      -2.226813       -60.5947 
  41   1.0000      -2.226659       -60.5905 
  42   1.0000      -2.226256       -60.5795 
  43   1.0000      -2.225009       -60.5456 
  44   1.0000      -2.223694       -60.5098 
  45   1.0000      -2.222188       -60.4688 
  46   1.0000      -2.054773       -55.9132 
  47   1.0000      -2.050562       -55.7986 
  48   1.0000      -2.046894       -55.6988 
  49   1.0000      -0.413525       -11.2526 
  50   1.0000      -0.382681       -10.4133 
  51   1.0000      -0.368136       -10.0175 
  52   1.0000      -0.363726        -9.8975 
  53   1.0000      -0.355909        -9.6848 
  54   1.0000      -0.353761        -9.6263 
  55   1.0000      -0.349747        -9.5171 
  56   1.0000      -0.341064        -9.2808 
  57   1.0000      -0.338949        -9.2233 
  58   1.0000      -0.335022        -9.1164 
  59   1.0000      -0.332619        -9.0510 
  60   1.0000      -0.329316        -8.9611 
  61   1.0000      -0.327145        -8.9021 
  62   1.0000      -0.324513        -8.8305 
  63   1.0000      -0.322247        -8.7688 
  64   1.0000      -0.320141        -8.7115 
  65   1.0000      -0.319030        -8.6812 
  66   1.0000      -0.316152        -8.6029 
  67   1.0000      -0.312813        -8.5121 
  68   1.0000      -0.306873        -8.3505 
  69   1.0000      -0.304257        -8.2792 
  70   1.0000      -0.300060        -8.1650 
  71   1.0000      -0.298879        -8.1329 
  72   1.0000      -0.296385        -8.0651 
  73   1.0000      -0.292487        -7.9590 
  74   1.0000      -0.289851        -7.8872 
  75   1.0000      -0.286136        -7.7861 
  76   1.0000      -0.284262        -7.7352 
  77   1.0000      -0.282538        -7.6883 
  78   1.0000      -0.279734        -7.6119 
  79   1.0000      -0.277617        -7.5543 
  80   1.0000      -0.274279        -7.4635 
  81   1.0000      -0.273313        -7.4372 
  82   1.0000      -0.271506        -7.3880 
  83   1.0000      -0.270073        -7.3491 
  84   1.0000      -0.268559        -7.3079 
  85   1.0000      -0.265041        -7.2121 
  86   1.0000      -0.264792        -7.2053 
  87   1.0000      -0.263094        -7.1591 
  88   1.0000      -0.262919        -7.1544 
  89   1.0000      -0.262192        -7.1346 
  90   1.0000      -0.258744        -7.0408 
  91   1.0000      -0.256458        -6.9786 
  92   1.0000      -0.255357        -6.9486 
  93   1.0000      -0.254387        -6.9222 
  94   1.0000      -0.251034        -6.8310 
  95   1.0000      -0.250436        -6.8147 
  96   1.0000      -0.247270        -6.7286 
  97   1.0000      -0.244047        -6.6409 
  98   1.0000      -0.241471        -6.5708 
  99   1.0000      -0.238473        -6.4892 
 100   1.0000      -0.235896        -6.4191 
 101   1.0000      -0.234605        -6.3839 
 102   1.0000      -0.230464        -6.2712 
 103   1.0000      -0.206622        -5.6225 
 104   1.0000      -0.191874        -5.2212 
 105   1.0000      -0.181782        -4.9466 
 106   1.0000      -0.176457        -4.8016 
 107   0.0000      -0.153670        -4.1816 
 108   0.0000      -0.147605        -4.0165 
 109   0.0000      -0.145362        -3.9555 
 110   0.0000      -0.143534        -3.9058 
 111   0.0000      -0.141122        -3.8401 
 112   0.0000      -0.122523        -3.3340 
 113   0.0000      -0.112728        -3.0675 
 114   0.0000      -0.101234        -2.7547 
 115   0.0000      -0.072425        -1.9708 
 116   0.0000      -0.054871        -1.4931 
 117   0.0000      -0.054053        -1.4709 
 118   0.0000      -0.047555        -1.2940 
 119   0.0000      -0.041363        -1.1255 
 120   0.0000      -0.034636        -0.9425 
 121   0.0000      -0.029688        -0.8079 
 122   0.0000      -0.019545        -0.5318 
 123   0.0000      -0.008417        -0.2290 
 124   0.0000       0.005085         0.1384 
 125   0.0000       0.009805         0.2668 
 126   0.0000       0.030546         0.8312 
 127   0.0000       0.035670         0.9706 
 128   0.0000       0.046106         1.2546 
 129   0.0000       0.048613         1.3228 
 130   0.0000       0.050698         1.3796 
 131   0.0000       0.055117         1.4998 
 132   0.0000       0.056778         1.5450 
 133   0.0000       0.060128         1.6362 
 134   0.0000       0.063589         1.7304 
 135   0.0000       0.072561         1.9745 
 136   0.0000       0.078098         2.1251 
 137   0.0000       0.083738         2.2786 
 138   0.0000       0.090956         2.4751 
 139   0.0000       0.092872         2.5272 
 140   0.0000       0.099145         2.6979 
 141   0.0000       0.107538         2.9262 
 142   0.0000       0.114849         3.1252 
 143   0.0000       0.133782         3.6404 
 144   0.0000       0.137097         3.7306 
 145   0.0000       0.145566         3.9611 
 146   0.0000       0.154059         4.1922 
 147   0.0000       0.157474         4.2851 
 148   0.0000       0.174202         4.7403 
 149   0.0000       0.184594         5.0230 
 150   0.0000       0.186817         5.0836 
 151   0.0000       0.188926         5.1409 
 152   0.0000       0.190159         5.1745 
 153   0.0000       0.198061         5.3895 
 154   0.0000       0.208949         5.6858 
 155   0.0000       0.216424         5.8892 
 156   0.0000       0.220806         6.0084 
 157   0.0000       0.226883         6.1738 
 158   0.0000       0.235146         6.3987 
 159   0.0000       0.240306         6.5390 
 160   0.0000       0.246100         6.6967 
 161   0.0000       0.248707         6.7677 
 162   0.0000       0.250888         6.8270 
 163   0.0000       0.252116         6.8604 
 164   0.0000       0.265138         7.2148 
 165   0.0000       0.268131         7.2962 
 166   0.0000       0.274834         7.4786 
 167   0.0000       0.276204         7.5159 
 168   0.0000       0.278135         7.5684 
 169   0.0000       0.287979         7.8363 
 170   0.0000       0.297829         8.1043 
 171   0.0000       0.298257         8.1160 
 172   0.0000       0.303089         8.2475 
 173   0.0000       0.308062         8.3828 
 174   0.0000       0.309584         8.4242 
 175   0.0000       0.317538         8.6407 
 176   0.0000       0.319038         8.6815 
 177   0.0000       0.325560         8.8589 
 178   0.0000       0.332817         9.0564 
 179   0.0000       0.334470         9.1014 
 180   0.0000       0.344078         9.3628 
 181   0.0000       0.347652         9.4601 
 182   0.0000       0.350574         9.5396 
 183   0.0000       0.360402         9.8070 
 184   0.0000       0.365577         9.9479 
 185   0.0000       0.374146        10.1810 
 186   0.0000       0.379974        10.3396 
 187   0.0000       0.387234        10.5372 
 188   0.0000       0.397902        10.8275 
 189   0.0000       0.405604        11.0371 
 190   0.0000       0.413381        11.2487 
 191   0.0000       0.416037        11.3209 
 192   0.0000       0.422847        11.5063 
 193   0.0000       0.429473        11.6865 
 194   0.0000       0.436200        11.8696 
 195   0.0000       0.437988        11.9183 
 196   0.0000       0.447157        12.1678 
 197   0.0000       0.451987        12.2992 
 198   0.0000       0.460837        12.5400 
 199   0.0000       0.470330        12.7983 
 200   0.0000       0.477778        13.0010 
 201   0.0000       0.484247        13.1770 
 202   0.0000       0.485567        13.2129 
 203   0.0000       0.491292        13.3687 
 204   0.0000       0.496462        13.5094 
 205   0.0000       0.499211        13.5842 
 206   0.0000       0.505389        13.7523 
 207   0.0000       0.509673        13.8689 
 208   0.0000       0.511225        13.9111 
 209   0.0000       0.517393        14.0790 
 210   0.0000       0.521023        14.1777 
 211   0.0000       0.528226        14.3738 
 212   0.0000       0.534141        14.5347 
 213   0.0000       0.545720        14.8498 
 214   0.0000       0.614718        16.7273 
 215   0.0000       0.619000        16.8438 
 216   0.0000       0.631724        17.1901 
 217   0.0000       0.660514        17.9735 
 218   0.0000       0.671976        18.2854 
 219   0.0000       0.677279        18.4297 
 220   0.0000       0.689879        18.7726 
 221   0.0000       0.691640        18.8205 
 222   0.0000       0.701511        19.0891 
 223   0.0000       0.712777        19.3957 
 224   0.0000       0.722571        19.6622 
 225   0.0000       0.729412        19.8483 
 226   0.0000       0.746029        20.3005 
 227   0.0000       0.754297        20.5255 
 228   0.0000       0.761960        20.7340 
 229   0.0000       0.766288        20.8518 
 230   0.0000       0.782969        21.3057 
 231   0.0000       0.801144        21.8002 
 232   0.0000       0.814296        22.1581 
 233   0.0000       0.843285        22.9469 
 234   0.0000       0.852166        23.1886 
 235   0.0000       0.888025        24.1644 
 236   0.0000       0.913559        24.8592 
 237   0.0000       0.918724        24.9998 
 238   0.0000       0.933482        25.4013 
 239   0.0000       0.938014        25.5247 
 240   0.0000       0.958265        26.0757 
 241   0.0000       0.979604        26.6564 
 242   0.0000       0.992240        27.0002 
 243   0.0000       0.998761        27.1777 
 244   0.0000       1.026960        27.9450 
 245   0.0000       1.042110        28.3573 
 246   0.0000       1.087514        29.5928 
 247   0.0000       1.101032        29.9606 
 248   0.0000       1.136836        30.9349 
 249   0.0000       1.206165        32.8214 
 250   0.0000       1.237165        33.6650 
 251   0.0000       1.263989        34.3949 
 252   0.0000       1.270664        34.5765 
 253   0.0000       1.284367        34.9494 
 254   0.0000       1.291627        35.1470 
 255   0.0000       1.296574        35.2816 
 256   0.0000       1.298352        35.3300 
 257   0.0000       1.315587        35.7989 
 258   0.0000       1.327232        36.1158 
 259   0.0000       1.339485        36.4492 
 260   0.0000       1.355180        36.8763 
 261   0.0000       1.360178        37.0123 
 262   0.0000       1.366366        37.1807 
 263   0.0000       1.385546        37.7026 
 264   0.0000       1.387669        37.7604 
 265   0.0000       1.396102        37.9899 
 266   0.0000       1.404007        38.2050 
 267   0.0000       1.408987        38.3405 
 268   0.0000       1.410520        38.3822 
 269   0.0000       1.415139        38.5079 
 270   0.0000       1.420651        38.6579 
 271   0.0000       1.429887        38.9092 
 272   0.0000       1.433730        39.0138 
 273   0.0000       1.444606        39.3097 
 274   0.0000       1.446512        39.3616 
 275   0.0000       1.448316        39.4107 
 276   0.0000       1.451556        39.4988 
 277   0.0000       1.455258        39.5996 
 278   0.0000       1.458372        39.6843 
 279   0.0000       1.465532        39.8791 
 280   0.0000       1.466710        39.9112 
 281   0.0000       1.469669        39.9917 
 282   0.0000       1.471855        40.0512 
 283   0.0000       1.473402        40.0933 
 284   0.0000       1.477319        40.1999 
 285   0.0000       1.480912        40.2977 
 286   0.0000       1.483400        40.3654 
 287   0.0000       1.485403        40.4199 
 288   0.0000       1.486641        40.4536 
 289   0.0000       1.490643        40.5625 
 290   0.0000       1.493941        40.6522 
 291   0.0000       1.494694        40.6727 
 292   0.0000       1.495354        40.6906 
 293   0.0000       1.497291        40.7434 
 294   0.0000       1.499157        40.7941 
 295   0.0000       1.500472        40.8299 
 296   0.0000       1.504270        40.9333 
 297   0.0000       1.506213        40.9861 
 298   0.0000       1.506746        41.0006 
 299   0.0000       1.509708        41.0813 
 300   0.0000       1.511367        41.1264 
 301   0.0000       1.511941        41.1420 
 302   0.0000       1.514786        41.2194 
 303   0.0000       1.516876        41.2763 
 304   0.0000       1.519190        41.3393 
 305   0.0000       1.520464        41.3739 
 306   0.0000       1.521491        41.4019 
 307   0.0000       1.521846        41.4115 
 308   0.0000       1.523432        41.4547 
 309   0.0000       1.526126        41.5280 
 310   0.0000       1.528576        41.5947 
 311   0.0000       1.530904        41.6580 
 312   0.0000       1.532423        41.6993 
 313   0.0000       1.533069        41.7169 
 314   0.0000       1.535695        41.7884 
 315   0.0000       1.538129        41.8546 
 316   0.0000       1.539246        41.8850 
 317   0.0000       1.541785        41.9541 
 318   0.0000       1.544355        42.0240 
 319   0.0000       1.546869        42.0925 
 320   0.0000       1.549525        42.1647 
 321   0.0000       1.553386        42.2698 
 322   0.0000       1.554567        42.3019 
 323   0.0000       1.559098        42.4252 
 324   0.0000       1.561252        42.4838 
 325   0.0000       1.562232        42.5105 
 326   0.0000       1.565406        42.5969 
 327   0.0000       1.568162        42.6719 
 328   0.0000       1.570863        42.7453 
 329   0.0000       1.577071        42.9143 
 330   0.0000       1.580789        43.0155 
 331   0.0000       1.583269        43.0830 
 332   0.0000       1.584980        43.1295 
 333   0.0000       1.588397        43.2225 
 334   0.0000       1.590815        43.2883 
 335   0.0000       1.594397        43.3857 
 336   0.0000       1.596848        43.4525 
 337   0.0000       1.600477        43.5512 
 338   0.0000       1.609134        43.7868 
 339   0.0000       1.611241        43.8441 
 340   0.0000       1.612999        43.8919 
 341   0.0000       1.616694        43.9925 
 342   0.0000       1.623409        44.1752 
 343   0.0000       1.627016        44.2734 
 344   0.0000       1.637862        44.5685 
[...]
  61( 2) :    -0.328909 a.u.    -8.950 eV
  62( 2) :    -0.326104 a.u.    -8.874 eV
  63( 2) :    -0.324513 a.u.    -8.830 eV
  64( 2) :    -0.321361 a.u.    -8.745 eV
  65( 2) :    -0.319050 a.u.    -8.682 eV
  66( 2) :    -0.317204 a.u.    -8.632 eV
  67( 2) :    -0.311661 a.u.    -8.481 eV
  68( 2) :    -0.308542 a.u.    -8.396 eV
  69( 2) :    -0.304538 a.u.    -8.287 eV
  70( 2) :    -0.300240 a.u.    -8.170 eV
  71( 2) :    -0.297337 a.u.    -8.091 eV
  72( 2) :    -0.296034 a.u.    -8.056 eV
  73( 2) :    -0.292310 a.u.    -7.954 eV
  74( 2) :    -0.291981 a.u.    -7.945 eV
  75( 2) :    -0.286145 a.u.    -7.786 eV
  76( 2) :    -0.283635 a.u.    -7.718 eV
  77( 2) :    -0.282243 a.u.    -7.680 eV
  78( 2) :    -0.280448 a.u.    -7.631 eV
  79( 2) :    -0.277613 a.u.    -7.554 eV
  80( 2) :    -0.275329 a.u.    -7.492 eV
  81( 2) :    -0.272469 a.u.    -7.414 eV
  82( 2) :    -0.271693 a.u.    -7.393 eV
  83( 2) :    -0.271038 a.u.    -7.375 eV
  84( 2) :    -0.268560 a.u.    -7.308 eV
  85( 2) :    -0.265624 a.u.    -7.228 eV
  86( 2) :    -0.264914 a.u.    -7.209 eV
  87( 2) :    -0.262321 a.u.    -7.138 eV
  88( 2) :    -0.261547 a.u.    -7.117 eV
  89( 2) :    -0.261247 a.u.    -7.109 eV
  90( 2) :    -0.258589 a.u.    -7.037 eV
  91( 2) :    -0.257886 a.u.    -7.017 eV
  92( 2) :    -0.256245 a.u.    -6.973 eV
  93( 2) :    -0.253908 a.u.    -6.909 eV
  94( 2) :    -0.249777 a.u.    -6.797 eV
  95( 2) :    -0.249144 a.u.    -6.780 eV
  96( 2) :    -0.247890 a.u.    -6.745 eV
  97( 2) :    -0.243813 a.u.    -6.634 eV
  98( 2) :    -0.241183 a.u.    -6.563 eV
  99( 2) :    -0.237186 a.u.    -6.454 eV
 100( 2) :    -0.236708 a.u.    -6.441 eV
 101( 2) :    -0.235773 a.u.    -6.416 eV
 102( 2) :    -0.230539 a.u.    -6.273 eV
 103( 2) :    -0.209067 a.u.    -5.689 eV
 104( 2) :    -0.184876 a.u.    -5.031 eV
 105( 2) :    -0.178112 a.u.    -4.847 eV
 106( 2) :    -0.174954 a.u.    -4.761 eV
 107( 1) :    -0.202726 a.u.    -5.516 eV alpha=   -7.154 beta=   -3.879
 108( 1) :    -0.193281 a.u.    -5.259 eV alpha=   -6.767 beta=   -3.751
 109( 0) :    -0.184252 a.u.    -5.014 eV
 110( 0) :    -0.165453 a.u.    -4.502 eV
 111( 0) :    -0.156151 a.u.    -4.249 eV
 112( 0) :    -0.132015 a.u.    -3.592 eV
 113( 0) :    -0.107179 a.u.    -2.916 eV
 114( 0) :    -0.104509 a.u.    -2.844 eV
 115( 0) :    -0.076702 a.u.    -2.087 eV
 116( 0) :    -0.056005 a.u.    -1.524 eV
 117( 0) :    -0.055435 a.u.    -1.508 eV
 118( 0) :    -0.048552 a.u.    -1.321 eV
 119( 0) :    -0.040270 a.u.    -1.096 eV
 120( 0) :    -0.032315 a.u.    -0.879 eV
 121( 0) :    -0.029497 a.u.    -0.803 eV
 122( 0) :    -0.012604 a.u.    -0.343 eV
 123( 0) :    -0.004840 a.u.    -0.132 eV
 124( 0) :     0.001481 a.u.     0.040 eV
 125( 0) :     0.009926 a.u.     0.270 eV
 126( 0) :     0.029470 a.u.     0.802 eV
 127( 0) :     0.036618 a.u.     0.996 eV
 128( 0) :     0.045852 a.u.     1.248 eV
 129( 0) :     0.050895 a.u.     1.385 eV
 130( 0) :     0.051456 a.u.     1.400 eV
 131( 0) :     0.056261 a.u.     1.531 eV
 132( 0) :     0.058037 a.u.     1.579 eV
 133( 0) :     0.060913 a.u.     1.658 eV
 134( 0) :     0.063381 a.u.     1.725 eV
 135( 0) :     0.076481 a.u.     2.081 eV
 136( 0) :     0.081332 a.u.     2.213 eV
 137( 0) :     0.087144 a.u.     2.371 eV
 138( 0) :     0.094061 a.u.     2.560 eV
 139( 0) :     0.096321 a.u.     2.621 eV
 140( 0) :     0.102766 a.u.     2.796 eV
 141( 0) :     0.109133 a.u.     2.970 eV
 142( 0) :     0.117814 a.u.     3.206 eV
 143( 0) :     0.131298 a.u.     3.573 eV
 144( 0) :     0.142218 a.u.     3.870 eV
 145( 0) :     0.148408 a.u.     4.038 eV
 146( 0) :     0.152450 a.u.     4.148 eV
 147( 0) :     0.155643 a.u.     4.235 eV
 148( 0) :     0.168845 a.u.     4.594 eV
 149( 0) :     0.182817 a.u.     4.975 eV
 150( 0) :     0.183279 a.u.     4.987 eV
 151( 0) :     0.184917 a.u.     5.032 eV
 152( 0) :     0.188305 a.u.     5.124 eV
 153( 0) :     0.194319 a.u.     5.288 eV
 154( 0) :     0.207543 a.u.     5.648 eV
 155( 0) :     0.212099 a.u.     5.772 eV
 156( 0) :     0.221322 a.u.     6.022 eV
 157( 0) :     0.223405 a.u.     6.079 eV
 158( 0) :     0.231764 a.u.     6.307 eV
 159( 0) :     0.243216 a.u.     6.618 eV
 160( 0) :     0.248149 a.u.     6.752 eV
 161( 0) :     0.251190 a.u.     6.835 eV
 162( 0) :     0.253969 a.u.     6.911 eV
 163( 0) :     0.258914 a.u.     7.045 eV
 164( 0) :     0.262497 a.u.     7.143 eV
 165( 0) :     0.274088 a.u.     7.458 eV
 166( 0) :     0.275006 a.u.     7.483 eV
 167( 0) :     0.282110 a.u.     7.677 eV
 168( 0) :     0.287848 a.u.     7.833 eV
 169( 0) :     0.293073 a.u.     7.975 eV
 170( 0) :     0.295232 a.u.     8.034 eV
 171( 0) :     0.300771 a.u.     8.184 eV
 172( 0) :     0.305011 a.u.     8.300 eV
 173( 0) :     0.309190 a.u.     8.413 eV
 174( 0) :     0.314788 a.u.     8.566 eV
 175( 0) :     0.319733 a.u.     8.700 eV
 176( 0) :     0.321742 a.u.     8.755 eV
 177( 0) :     0.324316 a.u.     8.825 eV
 178( 0) :     0.334496 a.u.     9.102 eV
 179( 0) :     0.337664 a.u.     9.188 eV
 180( 0) :     0.344118 a.u.     9.364 eV
 181( 0) :     0.347012 a.u.     9.443 eV
 182( 0) :     0.363022 a.u.     9.878 eV
 183( 0) :     0.367391 a.u.     9.997 eV
 184( 0) :     0.371414 a.u.    10.107 eV
 185( 0) :     0.380136 a.u.    10.344 eV
 186( 0) :     0.385148 a.u.    10.480 eV
 187( 0) :     0.387856 a.u.    10.554 eV
 188( 0) :     0.396566 a.u.    10.791 eV
 189( 0) :     0.407244 a.u.    11.082 eV
 190( 0) :     0.411422 a.u.    11.195 eV
 191( 0) :     0.415062 a.u.    11.294 eV
 192( 0) :     0.425519 a.u.    11.579 eV
 193( 0) :     0.430266 a.u.    11.708 eV
 194( 0) :     0.436642 a.u.    11.882 eV
 195( 0) :     0.445888 a.u.    12.133 eV
 196( 0) :     0.450292 a.u.    12.253 eV
 197( 0) :     0.453208 a.u.    12.332 eV
 198( 0) :     0.459300 a.u.    12.498 eV
 199( 0) :     0.471316 a.u.    12.825 eV
 200( 0) :     0.478454 a.u.    13.019 eV
 201( 0) :     0.484684 a.u.    13.189 eV
 202( 0) :     0.488048 a.u.    13.280 eV
 203( 0) :     0.495000 a.u.    13.470 eV
 204( 0) :     0.501340 a.u.    13.642 eV
 205( 0) :     0.505244 a.u.    13.748 eV
 206( 0) :     0.506296 a.u.    13.777 eV
 207( 0) :     0.508021 a.u.    13.824 eV
 208( 0) :     0.514891 a.u.    14.011 eV
 209( 0) :     0.517855 a.u.    14.092 eV
 210( 0) :     0.524275 a.u.    14.266 eV
 211( 0) :     0.535400 a.u.    14.569 eV
 212( 0) :     0.543168 a.u.    14.780 eV
 213( 0) :     0.549424 a.u.    14.951 eV
 214( 0) :     0.603074 a.u.    16.410 eV
 215( 0) :     0.614450 a.u.    16.720 eV
 216( 0) :     0.634563 a.u.    17.267 eV
 217( 0) :     0.643645 a.u.    17.514 eV
 218( 0) :     0.659829 a.u.    17.955 eV
 219( 0) :     0.673867 a.u.    18.337 eV
 220( 0) :     0.682493 a.u.    18.572 eV
 221( 0) :     0.687051 a.u.    18.696 eV
 222( 0) :     0.697233 a.u.    18.973 eV
 223( 0) :     0.708995 a.u.    19.293 eV
 224( 0) :     0.718522 a.u.    19.552 eV
 225( 0) :     0.720375 a.u.    19.602 eV
 226( 0) :     0.735755 a.u.    20.021 eV
 227( 0) :     0.751227 a.u.    20.442 eV
 228( 0) :     0.763039 a.u.    20.763 eV
 229( 0) :     0.768266 a.u.    20.906 eV
 230( 0) :     0.783946 a.u.    21.332 eV
 231( 0) :     0.803453 a.u.    21.863 eV
 232( 0) :     0.816878 a.u.    22.228 eV
 233( 0) :     0.850463 a.u.    23.142 eV
 234( 0) :     0.857037 a.u.    23.321 eV
 235( 0) :     0.884638 a.u.    24.072 eV
 236( 0) :     0.904654 a.u.    24.617 eV
 237( 0) :     0.915219 a.u.    24.904 eV
 238( 0) :     0.922791 a.u.    25.110 eV
 239( 0) :     0.932451 a.u.    25.373 eV
 240( 0) :     0.947703 a.u.    25.788 eV
 241( 0) :     0.953739 a.u.    25.953 eV
 242( 0) :     0.973637 a.u.    26.494 eV
 243( 0) :     0.977107 a.u.    26.588 eV
 244( 0) :     1.007505 a.u.    27.416 eV
 245( 0) :     1.032055 a.u.    28.084 eV
 246( 0) :     1.067947 a.u.    29.060 eV
 247( 0) :     1.099934 a.u.    29.931 eV
 248( 0) :     1.119789 a.u.    30.471 eV
 249( 0) :     1.204378 a.u.    32.773 eV
 250( 0) :     1.234288 a.u.    33.587 eV
 251( 0) :     1.265928 a.u.    34.448 eV
 252( 0) :     1.269669 a.u.    34.549 eV
 253( 0) :     1.275649 a.u.    34.712 eV
 254( 0) :     1.292400 a.u.    35.168 eV
 255( 0) :     1.295532 a.u.    35.253 eV
 256( 0) :     1.304631 a.u.    35.501 eV
 257( 0) :     1.313664 a.u.    35.747 eV
 258( 0) :     1.325913 a.u.    36.080 eV
 259( 0) :     1.343427 a.u.    36.557 eV
 260( 0) :     1.352076 a.u.    36.792 eV
 261( 0) :     1.358536 a.u.    36.968 eV
 262( 0) :     1.373218 a.u.    37.367 eV
 263( 0) :     1.381628 a.u.    37.596 eV
 264( 0) :     1.383846 a.u.    37.656 eV
 265( 0) :     1.392856 a.u.    37.902 eV
 266( 0) :     1.397843 a.u.    38.037 eV
 267( 0) :     1.405029 a.u.    38.233 eV
 268( 0) :     1.412270 a.u.    38.430 eV
 269( 0) :     1.418484 a.u.    38.599 eV
 270( 0) :     1.420195 a.u.    38.645 eV
 271( 0) :     1.426799 a.u.    38.825 eV
 272( 0) :     1.428504 a.u.    38.872 eV
 273( 0) :     1.440275 a.u.    39.192 eV
 274( 0) :     1.445238 a.u.    39.327 eV
 275( 0) :     1.448516 a.u.    39.416 eV
 276( 0) :     1.452590 a.u.    39.527 eV
 277( 0) :     1.453430 a.u.    39.550 eV
 278( 0) :     1.457856 a.u.    39.670 eV
 279( 0) :     1.463339 a.u.    39.819 eV
 280( 0) :     1.466523 a.u.    39.906 eV
 281( 0) :     1.470824 a.u.    40.023 eV
 282( 0) :     1.472182 a.u.    40.060 eV
 283( 0) :     1.475386 a.u.    40.147 eV
 284( 0) :     1.479259 a.u.    40.253 eV
 285( 0) :     1.481089 a.u.    40.302 eV
 286( 0) :     1.483793 a.u.    40.376 eV
 287( 0) :     1.486538 a.u.    40.451 eV
 288( 0) :     1.486953 a.u.    40.462 eV
 289( 0) :     1.491758 a.u.    40.593 eV
 290( 0) :     1.493110 a.u.    40.630 eV
 291( 0) :     1.495954 a.u.    40.707 eV
 292( 0) :     1.496716 a.u.    40.728 eV
 293( 0) :     1.497611 a.u.    40.752 eV
 294( 0) :     1.499594 a.u.    40.806 eV
 295( 0) :     1.502862 a.u.    40.895 eV
 296( 0) :     1.503658 a.u.    40.917 eV
 297( 0) :     1.505792 a.u.    40.975 eV
 298( 0) :     1.506671 a.u.    40.999 eV
 299( 0) :     1.508293 a.u.    41.043 eV
 300( 0) :     1.509841 a.u.    41.085 eV
 301( 0) :     1.513921 a.u.    41.196 eV
 302( 0) :     1.515479 a.u.    41.238 eV
 303( 0) :     1.518674 a.u.    41.325 eV
 304( 0) :     1.520602 a.u.    41.378 eV
 305( 0) :     1.523132 a.u.    41.447 eV
 306( 0) :     1.524638 a.u.    41.488 eV
 307( 0) :     1.526318 a.u.    41.533 eV
 308( 0) :     1.527787 a.u.    41.573 eV
 309( 0) :     1.530249 a.u.    41.640 eV
 310( 0) :     1.531859 a.u.    41.684 eV
 311( 0) :     1.533261 a.u.    41.722 eV
 312( 0) :     1.534126 a.u.    41.746 eV
 313( 0) :     1.535523 a.u.    41.784 eV
 314( 0) :     1.536902 a.u.    41.821 eV
 315( 0) :     1.538625 a.u.    41.868 eV
 316( 0) :     1.542303 a.u.    41.968 eV
 317( 0) :     1.544257 a.u.    42.021 eV
 318( 0) :     1.549028 a.u.    42.151 eV
 319( 0) :     1.549480 a.u.    42.164 eV
 320( 0) :     1.552405 a.u.    42.243 eV
 321( 0) :     1.553025 a.u.    42.260 eV
 322( 0) :     1.555947 a.u.    42.339 eV
 323( 0) :     1.558383 a.u.    42.406 eV
 324( 0) :     1.560163 a.u.    42.454 eV
 325( 0) :     1.562062 a.u.    42.506 eV
 326( 0) :     1.564630 a.u.    42.576 eV
 327( 0) :     1.566067 a.u.    42.615 eV
 328( 0) :     1.573586 a.u.    42.819 eV
 329( 0) :     1.577334 a.u.    42.921 eV
 330( 0) :     1.580327 a.u.    43.003 eV
 331( 0) :     1.581322 a.u.    43.030 eV
 332( 0) :     1.584489 a.u.    43.116 eV
 333( 0) :     1.588383 a.u.    43.222 eV
 334( 0) :     1.591469 a.u.    43.306 eV
 335( 0) :     1.593266 a.u.    43.355 eV
 336( 0) :     1.598563 a.u.    43.499 eV
 337( 0) :     1.600610 a.u.    43.555 eV
 338( 0) :     1.606175 a.u.    43.706 eV
 339( 0) :     1.608544 a.u.    43.771 eV
 340( 0) :     1.609782 a.u.    43.804 eV
 341( 0) :     1.615798 a.u.    43.968 eV
 342( 0) :     1.623668 a.u.    44.182 eV
 343( 0) :     1.624029 a.u.    44.192 eV
 344( 0) :     1.633051 a.u.    44.438 eV
 345( 0) :     1.634229 a.u.    44.470 eV
 346( 0) :     1.642329 a.u.    44.690 eV
 347( 0) :     1.658643 a.u.    45.134 eV
 348( 0) :     1.670867 a.u.    45.467 eV
 349( 0) :     1.679100 a.u.    45.691 eV
 350( 0) :     1.687567 a.u.    45.921 eV
 351( 0) :     1.700378 a.u.    46.270 eV
 352( 0) :     1.712403 a.u.    46.597 eV
 353( 0) :     1.722111 a.u.    46.861 eV
 354( 0) :     1.732250 a.u.    47.137 eV
 355( 0) :     1.743694 a.u.    47.448 eV
 356( 0) :     1.745731 a.u.    47.504 eV
 357( 0) :     1.758904 a.u.    47.862 eV
 358( 0) :     1.775017 a.u.    48.301 eV
 359( 0) :     1.793127 a.u.    48.793 eV
 360( 0) :     1.798526 a.u.    48.940 eV
 361( 0) :     1.812949 a.u.    49.333 eV
 362( 0) :     1.817717 a.u.    49.463 eV
 363( 0) :     1.856249 a.u.    50.511 eV
 364( 0) :     1.877728 a.u.    51.096 eV
 365( 0) :     1.887795 a.u.    51.370 eV
 366( 0) :     1.908658 a.u.    51.937 eV
 367( 0) :     1.943050 a.u.    52.873 eV
 368( 0) :     1.962787 a.u.    53.410 eV
 369( 0) :     2.094943 a.u.    57.006 eV
 370( 0) :     2.231699 a.u.    60.728 eV
 371( 0) :     2.242527 a.u.    61.022 eV
 372( 0) :     2.267523 a.u.    61.702 eV
 373( 0) :     2.327245 a.u.    63.328 eV
 374( 0) :     2.369296 a.u.    64.472 eV
 375( 0) :     2.419268 a.u.    65.832 eV
 376( 0) :     2.427386 a.u.    66.053 eV
 377( 0) :     2.451483 a.u.    66.708 eV
 378( 0) :     2.466874 a.u.    67.127 eV
 379( 0) :     2.468335 a.u.    67.167 eV
 380( 0) :     2.477770 a.u.    67.424 eV
 381( 0) :     2.496747 a.u.    67.940 eV
 382( 0) :     3.219055 a.u.    87.595 eV
 383( 0) :     3.506069 a.u.    95.405 eV
 384( 0) :     3.532578 a.u.    96.126 eV
 385( 0) :     3.641772 a.u.    99.098 eV
 386( 0) :     3.661616 a.u.    99.638 eV
 387( 0) :     3.691935 a.u.   100.463 eV
 388( 0) :     3.910482 a.u.   106.410 eV
 389( 0) :     3.914528 a.u.   106.520 eV
 390( 0) :     3.918797 a.u.   106.636 eV
 391( 0) :     3.922109 a.u.   106.726 eV
 392( 0) :     3.927166 a.u.   106.864 eV
 393( 0) :     3.933889 a.u.   107.047 eV
 394( 0) :     3.936853 a.u.   107.127 eV
 395( 0) :    23.583904 a.u.   641.751 eV
 396( 0) :    23.735516 a.u.   645.876 eV
 397( 0) :    23.910926 a.u.   650.649 eV
 398( 0) :    24.073055 a.u.   655.061 eV
 399( 0) :    24.467144 a.u.   665.785 eV
 400( 0) :    24.530270 a.u.   667.503 eV
 401( 0) :    24.598204 a.u.   669.351 eV
 402( 0) :    24.711761 a.u.   672.441 eV
 403( 0) :    25.110704 a.u.   683.297 eV
 404( 0) :    25.204417 a.u.   685.847 eV
 405( 0) :    25.448253 a.u.   692.482 eV
 406( 0) :    25.488674 a.u.   693.582 eV
 407( 0) :    25.734416 a.u.   700.269 eV
 408( 0) :    25.871836 a.u.   704.008 eV
 409( 0) :    25.958613 a.u.   706.370 eV
 410( 0) :    26.157503 a.u.   711.782 eV
 411( 0) :    26.237843 a.u.   713.968 eV
 412( 0) :    26.354410 a.u.   717.140 eV
 413( 0) :    26.511789 a.u.   721.422 eV
 414( 0) :    26.530417 a.u.   721.929 eV
 415( 0) :    26.948720 a.u.   733.312 eV
 416( 0) :    27.124043 a.u.   738.083 eV
 417( 0) :    27.350865 a.u.   744.255 eV
 418( 0) :    27.507292 a.u.   748.511 eV
 419( 0) :    27.757592 a.u.   755.322 eV
 420( 0) :    28.065000 a.u.   763.687 eV
 421( 0) :    28.208646 a.u.   767.596 eV
 422( 0) :    28.304012 a.u.   770.191 eV
 423( 0) :    28.511114 a.u.   775.827 eV
 424( 0) :    28.985673 a.u.   788.740 eV
 425( 0) :    43.848182 a.u.  1193.170 eV
 426( 0) :    43.965532 a.u.  1196.363 eV
 427( 0) :    44.002725 a.u.  1197.375 eV
 428( 0) :    44.036830 a.u.  1198.303 eV
 429( 0) :    44.075173 a.u.  1199.346 eV
 430( 0) :    44.105087 a.u.  1200.160 eV
 431( 0) :    44.120399 a.u.  1200.577 eV
 432( 0) :    44.126118 a.u.  1200.733 eV
 433( 0) :    44.153478 a.u.  1201.477 eV
 434( 0) :    44.179696 a.u.  1202.191 eV
 435( 0) :   205.073166 a.u.  5580.325 eV
 436( 0) :   205.118535 a.u.  5581.559 eV
 437( 0) :   205.134232 a.u.  5581.986 eV
 438( 0) :   205.147199 a.u.  5582.339 eV
 439( 0) :   205.164924 a.u.  5582.821 eV
 440( 0) :   205.180703 a.u.  5583.251 eV
 441( 0) :   205.183272 a.u.  5583.321 eV
 442( 0) :   205.186968 a.u.  5583.421 eV
 443( 0) :   205.196920 a.u.  5583.692 eV
 444( 0) :   205.206286 a.u.  5583.947 eV
-------
TIMINGS
-------

Total SCF time: 0 days 0 hours 2 min 53 sec 

Total time                  ....     173.118 sec
Sum of individual times     ....     171.482 sec  ( 99.1%)

Fock matrix formation       ....     167.648 sec  ( 96.8%)
  Split-RI-J                ....      57.300 sec  ( 34.2% of F)
  XC integration            ....     110.219 sec  ( 65.7% of F)
    Basis function eval.    ....      18.735 sec  ( 17.0% of XC)
    Density eval.           ....      43.738 sec  ( 39.7% of XC)
    XC-Functional eval.     ....       2.844 sec  (  2.6% of XC)
    XC-Potential eval.      ....      40.498 sec  ( 36.7% of XC)
Diagonalization             ....       1.078 sec  (  0.6%)
Density matrix formation    ....       0.231 sec  (  0.1%)
Population analysis         ....       0.329 sec  (  0.2%)
Initial guess               ....       0.084 sec  (  0.0%)
Orbital Transformation      ....       0.315 sec  (  0.2%)
Orbital Orthonormalization  ....       0.068 sec  (  0.0%)
DIIS solution               ....       0.000 sec  (  0.0%)
Grid generation             ....       1.796 sec  (  1.0%)

Maximum memory used throughout the entire SCF-calculation: 364.3 MB

-------------------------   --------------------
FINAL SINGLE POINT ENERGY     -2621.730190037991
-------------------------   --------------------

                                *** OPTIMIZATION RUN DONE ***

                            ***************************************
                            *     ORCA property calculations      *
                            ***************************************

                                    ---------------------
                                    Active property flags
                                    ---------------------
   (+) Dipole Moment


------------------------------------------------------------------------------
                       ORCA ELECTRIC PROPERTIES CALCULATION
------------------------------------------------------------------------------

Dipole Moment Calculation                       ... on
Quadrupole Moment Calculation                   ... off
Polarizability Calculation                      ... off
GBWName                                         ... pbe.gbw
Electron density                                ... pbe.scfp
The origin for moment calculation is the CENTER OF MASS  = (11.707240, 14.638050 15.412897)

-------------
DIPOLE MOMENT
-------------
                                X             Y             Z
Electronic contribution:    -16.87595     -15.24567      -7.59308
Nuclear contribution   :     16.67903      15.05797       7.56802
                        -----------------------------------------
Total Dipole Moment    :     -0.19692      -0.18770      -0.02506
                        -----------------------------------------
Magnitude (a.u.)       :      0.27320
Magnitude (Debye)      :      0.69441



--------------------
Rotational spectrum 
--------------------
 
Rotational constants in cm-1:     0.002224     0.001550     0.001351 
Rotational constants in MHz :    66.686243    46.481277    40.503451 

 Dipole components along the rotational axes: 
x,y,z [a.u.] :    -0.181367     0.169375    -0.114253 
x,y,z [Debye]:    -0.460999     0.430518    -0.290407 

 

Timings for individual modules:

Sum of individual times         ...     4884.621 sec (=  81.410 min)
GTO integral calculation        ...      105.315 sec (=   1.755 min)   2.2 %
SCF iterations                  ...     3924.442 sec (=  65.407 min)  80.3 %
SCF Gradient evaluation         ...      854.680 sec (=  14.245 min)  17.5 %
Geometry relaxation             ...        0.185 sec (=   0.003 min)   0.0 %
                             ****ORCA TERMINATED NORMALLY****
TOTAL RUN TIME: 0 days 1 hours 21 minutes 25 seconds 260 msec
