
                                 *****************
                                 * O   R   C   A *
                                 *****************

                                            #,                                       
                                            ###                                      
                                            ####                                     
                                            #####                                    
                                            ######                                   
                                           ########,                                 
                                     ,,################,,,,,                         
                               ,,#################################,,                 
                          ,,##########################################,,             
                       ,#########################################, ''#####,          
                    ,#############################################,,   '####,        
                  ,##################################################,,,,####,       
                ,###########''''           ''''###############################       
              ,#####''   ,,,,##########,,,,          '''####'''          '####       
            ,##' ,,,,###########################,,,                        '##       
           ' ,,###''''                  '''############,,,                           
         ,,##''                                '''############,,,,        ,,,,,,###''
      ,#''                                            '''#######################'''  
     '                                                          ''''####''''         
             ,#######,   #######,   ,#######,      ##                                
            ,#'     '#,  ##    ##  ,#'     '#,    #''#        ######   ,####,        
            ##       ##  ##   ,#'  ##            #'  '#       #        #'  '#        
            ##       ##  #######   ##           ,######,      #####,   #    #        
            '#,     ,#'  ##    ##  '#,     ,#' ,#      #,         ##   #,  ,#        
             '#######'   ##     ##  '#######'  #'      '#     #####' # '####'        



                  #######################################################
                  #                        -***-                        #
                  #          Department of theory and spectroscopy      #
                  #    Directorship and core code : Frank Neese         #
                  #        Max Planck Institute fuer Kohlenforschung    #
                  #                Kaiser Wilhelm Platz 1               #
                  #                 D-45470 Muelheim/Ruhr               #
                  #                      Germany                        #
                  #                                                     #
                  #                  All rights reserved                #
                  #                        -***-                        #
                  #######################################################


                         Program Version 5.0.3 -  RELEASE  -


 With contributions from (in alphabetic order):
   Daniel Aravena         : Magnetic Suceptibility
   Michael Atanasov       : Ab Initio Ligand Field Theory (pilot matlab implementation)
   Alexander A. Auer      : GIAO ZORA, VPT2 properties, NMR spectrum
   Ute Becker             : Parallelization
   Giovanni Bistoni       : ED, misc. LED, open-shell LED, HFLD
   Martin Brehm           : Molecular dynamics
   Dmytro Bykov           : SCF Hessian
   Vijay G. Chilkuri      : MRCI spin determinant printing, contributions to CSF-ICE
   Dipayan Datta          : RHF DLPNO-CCSD density
   Achintya Kumar Dutta   : EOM-CC, STEOM-CC
   Dmitry Ganyushin       : Spin-Orbit,Spin-Spin,Magnetic field MRCI
   Miquel Garcia          : C-PCM and meta-GGA Hessian, CC/C-PCM, Gaussian charge scheme
   Yang Guo               : DLPNO-NEVPT2, F12-NEVPT2, CIM, IAO-localization
   Andreas Hansen         : Spin unrestricted coupled pair/coupled cluster methods
   Benjamin Helmich-Paris : MC-RPA, TRAH-SCF, COSX integrals
   Lee Huntington         : MR-EOM, pCC
   Robert Izsak           : Overlap fitted RIJCOSX, COSX-SCS-MP3, EOM
   Marcus Kettner         : VPT2
   Christian Kollmar      : KDIIS, OOCD, Brueckner-CCSD(T), CCSD density, CASPT2, CASPT2-K
   Simone Kossmann        : Meta GGA functionals, TD-DFT gradient, OOMP2, MP2 Hessian
   Martin Krupicka        : Initial AUTO-CI
   Lucas Lang             : DCDCAS
   Marvin Lechner         : AUTO-CI (C++ implementation), FIC-MRCC
   Dagmar Lenk            : GEPOL surface, SMD
   Dimitrios Liakos       : Extrapolation schemes; Compound Job, initial MDCI parallelization
   Dimitrios Manganas     : Further ROCIS development; embedding schemes
   Dimitrios Pantazis     : SARC Basis sets
   Anastasios Papadopoulos: AUTO-CI, single reference methods and gradients
   Taras Petrenko         : DFT Hessian,TD-DFT gradient, ASA, ECA, R-Raman, ABS, FL, XAS/XES, NRVS
   Peter Pinski           : DLPNO-MP2, DLPNO-MP2 Gradient
   Christoph Reimann      : Effective Core Potentials
   Marius Retegan         : Local ZFS, SOC
   Christoph Riplinger    : Optimizer, TS searches, QM/MM, DLPNO-CCSD(T), (RO)-DLPNO pert. Triples
   Tobias Risthaus        : Range-separated hybrids, TD-DFT gradient, RPA, STAB
   Michael Roemelt        : Original ROCIS implementation
   Masaaki Saitow         : Open-shell DLPNO-CCSD energy and density
   Barbara Sandhoefer     : DKH picture change effects
   Avijit Sen             : IP-ROCIS
   Kantharuban Sivalingam : CASSCF convergence, NEVPT2, FIC-MRCI
   Bernardo de Souza      : ESD, SOC TD-DFT
   Georgi Stoychev        : AutoAux, RI-MP2 NMR, DLPNO-MP2 response
   Willem Van den Heuvel  : Paramagnetic NMR
   Boris Wezisla          : Elementary symmetry handling
   Frank Wennmohs         : Technical directorship


 We gratefully acknowledge several colleagues who have allowed us to
 interface, adapt or use parts of their codes:
   Stefan Grimme, W. Hujo, H. Kruse, P. Pracht,  : VdW corrections, initial TS optimization,
                  C. Bannwarth, S. Ehlert          DFT functionals, gCP, sTDA/sTD-DF
   Ed Valeev, F. Pavosevic, A. Kumar             : LibInt (2-el integral package), F12 methods
   Garnet Chan, S. Sharma, J. Yang, R. Olivares  : DMRG
   Ulf Ekstrom                                   : XCFun DFT Library
   Mihaly Kallay                                 : mrcc  (arbitrary order and MRCC methods)
   Jiri Pittner, Ondrej Demel                    : Mk-CCSD
   Frank Weinhold                                : gennbo (NPA and NBO analysis)
   Christopher J. Cramer and Donald G. Truhlar   : smd solvation model
   Lars Goerigk                                  : TD-DFT with DH, B97 family of functionals
   V. Asgeirsson, H. Jonsson                     : NEB implementation
   FAccTs GmbH                                   : IRC, NEB, NEB-TS, DLPNO-Multilevel, CI-OPT
                                                   MM, QMMM, 2- and 3-layer-ONIOM, Crystal-QMMM,
                                                   LR-CPCM, SF, NACMEs, symmetry and pop. for TD-DFT,
                                                   nearIR, NL-DFT gradient (VV10), updates on ESD,
                                                   ML-optimized integration grids
   S Lehtola, MJT Oliveira, MAL Marques          : LibXC Library
   Liviu Ungur et al                             : ANISO software


 Your calculation uses the libint2 library for the computation of 2-el integrals
 For citations please refer to: http://libint.valeyev.net

 Your ORCA version has been built with support for libXC version: 5.1.0
 For citations please refer to: https://tddft.org/programs/libxc/

 This ORCA versions uses:
   CBLAS   interface :  Fast vector & matrix operations
   LAPACKE interface :  Fast linear algebra routines
   SCALAPACK package :  Parallel linear algebra routines
   Shared memory     :  Shared parallel matrices
   BLAS/LAPACK       :  OpenBLAS 0.3.15  USE64BITINT DYNAMIC_ARCH NO_AFFINITY Sandybridge SINGLE_THREADED
        Core in use  :  Sandybridge
   Copyright (c) 2011-2014, The OpenBLAS Project




***************************************
The coordinates will be read from file: pbe.xyz
***************************************


================================================================================

cite the ECPs for Au [Def2-ECP] as follows:
Ce-Yb(ecp-28): M. Dolg, H. Stoll, H.Preuss, J. Chem. Phys., 1989, 90, 1730-1734.
Y-Cd(ecp-28), Hf-Hg(ecp-46): D. Andrae,U. Haeussermann, M. Dolg, H. Stoll, H. Preuss, Theor. Chim. Acta, 1990, 77, 123-141.
In-Sb(ecp-28), Tl-Bi(ecp-46): B. Metz, H. Stoll, M. Dolg, J. Chem. Phys., 2000, 113, 2563-2569.
Te-Xe(ecp-28), Po-Rn(ecp-46): K. A. Peterson, D. Figgen, E. Goll, H. Stoll, M. Dolg, J. Chem. Phys., 2003, 119, 11113-11123.
Rb(ecp-28), Cs(ecp-46): T. Leininger, A. Nicklass, W. Kuechle, H. Stoll, M. Dolg, A. Bergner, Chem. Phys. Lett., 1996, 255, 274-280.
Sr(ecp-28), Ba(ecp-46): M. Kaupp, P. V. Schleyer, H. Stoll and H. Preuss, J. Chem. Phys., 1991, 94, 1360-1366.
La(ecp-46): M. Dolg, H. Stoll, A. Savin, H. Preuss, Theor. Chim. Acta, 1989, 75, 173-194.
Lu(ecp-28): X. Cao, M. Dolg, J. Chem. Phys., 2001, 115, 7348-7355.

ECP parameters for Au [Def2-ECP] have been obtained from:
TURBOMOLE (7.0.2)

----- Orbital basis set information -----
Your calculation utilizes the basis: def2-TZVP
   F. Weigend and R. Ahlrichs, Phys. Chem. Chem. Phys. 7, 3297 (2005).

----- AuxJ basis set information -----
Your calculation utilizes the auxiliary basis: def2/J
   F. Weigend, Phys. Chem. Chem. Phys. 8, 1057 (2006).

----- AuxC basis set information -----
Your calculation utilizes the auxiliary basis: def2-TZVP/C
  H-La, Hf-Rn : A. Hellweg, C. Hattig, S. Hofener and W. Klopper, Theor. Chem. Acc. 117, 587 (2007).
        Ce-Lu : J. Chmela and M. E. Harding, Mol. Phys. (2018).

================================================================================
                                        WARNINGS
                       Please study these warnings very carefully!
================================================================================


INFO   : the flag for use of the SHARK integral package has been found!

================================================================================
                                       INPUT FILE
================================================================================
NAME = casscf.inp
|  1> !CASSCF def2-TZVP def2-TZVP/C
|  2> !MOREAD RIJCOSX
|  3> %maxcore 6000
|  4> %moinp "pbe.qro"
|  5> %pal nprocs 2 end 
|  6> 
|  7> %casscf
|  8>  mult 5,3
|  9>  bweight 1,1
| 10>  nroots 5,45
| 11>  nel 6
| 12>  norb 5
| 13> end
| 14> 
| 15> 
| 16> *xyzfile 0 5 pbe.xyz
| 17> 
| 18> 
| 19>                          ****END OF INPUT****
================================================================================

                       ****************************
                       * Single Point Calculation *
                       ****************************

---------------------------------
CARTESIAN COORDINATES (ANGSTROEM)
---------------------------------
  Au    11.072205    7.117073   10.352978
  Au     8.272656    6.824324   10.943885
  Au     9.282898    9.353866   10.244418
  Au    11.385967    8.905765    8.128203
  Au    11.516843    6.139168    7.684687
  Au     7.951298    3.218784    8.089383
  Au     8.795914    9.772281    7.526035
  Au     9.099926    5.180438    6.578688
  Au     9.809579    7.703871    5.939516
  Au     9.713223    4.793688    9.486342
  Au     6.845171    8.341793    8.926837
  Au     6.914928    5.650022    8.767788
  Fe     9.182764    7.235901    8.448611

----------------------------
CARTESIAN COORDINATES (A.U.)
----------------------------
  NO LB      ZA    FRAG     MASS         X           Y           Z
   0 Au   19.0000*   0   196.966   20.923434   13.449320   19.564294
   1 Au   19.0000*   0   196.966   15.633053   12.896104   20.680946
   2 Au   19.0000*   0   196.966   17.542134   17.676245   19.359145
   3 Au   19.0000*   0   196.966   21.516360   16.829457   15.360077
   4 Au   19.0000*   0   196.966   21.763679   11.601345   14.521953
   5 Au   19.0000*   0   196.966   15.025776    6.082620   15.286718
   6 Au   19.0000*   0   196.966   16.621868   18.466934   14.222145
   7 Au   19.0000*   0   196.966   17.196368    9.789610   12.431918
   8 Au   19.0000*   0   196.966   18.537417   14.558207   11.224058
   9 Au   19.0000*   0   196.966   18.355331    9.058758   17.926589
  10 Au   19.0000*   0   196.966   12.935499   15.763704   16.869278
  11 Au   19.0000*   0   196.966   13.067320   10.676995   16.568718
  12 Fe   26.0000    0    55.850   17.352909   13.673871   15.965561
* core charge reduced due to ECP

--------------------------------
INTERNAL COORDINATES (ANGSTROEM)
--------------------------------
 Au     0   0   0     0.000000000000     0.00000000     0.00000000
 Au     1   0   0     2.876169007482     0.00000000     0.00000000
 Au     2   1   0     2.812191765228    60.50671731     0.00000000
 Au     1   2   3     2.871844396680   109.20189952   320.06146539
 Au     4   1   2     2.804977035820    60.87437934   260.39891519
 Au     2   1   3     4.609921877703    91.16004057   130.44847827
 Au     3   2   1     2.793176376694   108.31114514    97.59269204
 Au     6   2   1     2.729401751526    75.59734107   307.64541992
 Au     8   6   2     2.698121996521   156.06205140   342.98606789
 Au     6   2   1     2.745214026490    36.04676251    17.13997899
 Au     7   3   2     2.795342553552    63.72433431    35.08923903
 Au    11   7   3     2.697367168201   117.58617660   262.16121796
 Fe     9   8   6     2.628203204142    62.90825483    19.50366083

---------------------------
INTERNAL COORDINATES (A.U.)
---------------------------
 Au     0   0   0     0.000000000000     0.00000000     0.00000000
 Au     1   0   0     5.435171739013     0.00000000     0.00000000
 Au     2   1   0     5.314272272349    60.50671731     0.00000000
 Au     1   2   3     5.426999408961   109.20189952   320.06146539
 Au     4   1   2     5.300638409638    60.87437934   260.39891519
 Au     2   1   3     8.711489847631    91.16004057   130.44847827
 Au     3   2   1     5.278338395690   108.31114514    97.59269204
 Au     6   2   1     5.157821819828    75.59734107   307.64541992
 Au     8   6   2     5.098711649334   156.06205140   342.98606789
 Au     6   2   1     5.187702689065    36.04676251    17.13997899
 Au     7   3   2     5.282431876709    63.72433431    35.08923903
 Au    11   7   3     5.097285230530   117.58617660   262.16121796
 Fe     9   8   6     4.966584280123    62.90825483    19.50366083

---------------------
BASIS SET INFORMATION
---------------------
There are 2 groups of distinct atoms

 Group   1 Type Au  : 8s7p6d1f contracted to 6s4p3d1f pattern {311111/4111/411/1}
 Group   2 Type Fe  : 17s11p7d1f contracted to 6s4p4d1f pattern {842111/6311/4111/1}

Atom   0Au   basis set group =>   1
Atom   1Au   basis set group =>   1
Atom   2Au   basis set group =>   1
Atom   3Au   basis set group =>   1
Atom   4Au   basis set group =>   1
Atom   5Au   basis set group =>   1
Atom   6Au   basis set group =>   1
Atom   7Au   basis set group =>   1
Atom   8Au   basis set group =>   1
Atom   9Au   basis set group =>   1
Atom  10Au   basis set group =>   1
Atom  11Au   basis set group =>   1
Atom  12Fe   basis set group =>   2
---------------------------------
AUXILIARY/J BASIS SET INFORMATION
---------------------------------
There are 2 groups of distinct atoms

 Group   1 Type Au  : 11s5p5d3f3g contracted to 8s5p5d2f3g pattern {41111111/11111/11111/21/111}
 Group   2 Type Fe  : 19s5p5d3f3g contracted to 8s5p5d2f3g pattern {121111111/11111/11111/21/111}

Atom   0Au   basis set group =>   1
Atom   1Au   basis set group =>   1
Atom   2Au   basis set group =>   1
Atom   3Au   basis set group =>   1
Atom   4Au   basis set group =>   1
Atom   5Au   basis set group =>   1
Atom   6Au   basis set group =>   1
Atom   7Au   basis set group =>   1
Atom   8Au   basis set group =>   1
Atom   9Au   basis set group =>   1
Atom  10Au   basis set group =>   1
Atom  11Au   basis set group =>   1
Atom  12Fe   basis set group =>   2
---------------------------------
AUXILIARY/C BASIS SET INFORMATION
---------------------------------
There are 2 groups of distinct atoms

 Group   1 Type Au  : 8s8p7d5f3g2h contracted to 8s8p7d5f3g2h pattern {11111111/11111111/1111111/11111/111/11}
 Group   2 Type Fe  : 11s9p8d6f5g2h contracted to 9s8p8d6f5g2h pattern {311111111/21111111/11111111/111111/11111/11}

Atom   0Au   basis set group =>   1
Atom   1Au   basis set group =>   1
Atom   2Au   basis set group =>   1
Atom   3Au   basis set group =>   1
Atom   4Au   basis set group =>   1
Atom   5Au   basis set group =>   1
Atom   6Au   basis set group =>   1
Atom   7Au   basis set group =>   1
Atom   8Au   basis set group =>   1
Atom   9Au   basis set group =>   1
Atom  10Au   basis set group =>   1
Atom  11Au   basis set group =>   1
Atom  12Fe   basis set group =>   2
-------------------------
ECP PARAMETER INFORMATION
-------------------------

 Group 1, Type Au ECP Def2-ECP (replacing 60 core electrons, lmax=3)

Atom   0Au   ECP group =>   1
Atom   1Au   ECP group =>   1
Atom   2Au   ECP group =>   1
Atom   3Au   ECP group =>   1
Atom   4Au   ECP group =>   1
Atom   5Au   ECP group =>   1
Atom   6Au   ECP group =>   1
Atom   7Au   ECP group =>   1
Atom   8Au   ECP group =>   1
Atom   9Au   ECP group =>   1
Atom  10Au   ECP group =>   1
Atom  11Au   ECP group =>   1



           ************************************************************
           *        Program running with 2 parallel MPI-processes     *
           *              working on a common directory               *
           ************************************************************
------------------------------------------------------------------------------
                           ORCA GTO INTEGRAL CALCULATION
                           -- RI-GTO INTEGRALS CHOSEN --
------------------------------------------------------------------------------
------------------------------------------------------------------------------
                   ___                                                        
                  /   \      - P O W E R E D   B Y -                         
                 /     \                                                     
                 |  |  |   _    _      __       _____    __    __             
                 |  |  |  | |  | |    /  \     |  _  \  |  |  /  |          
                  \  \/   | |  | |   /    \    | | | |  |  | /  /          
                 / \  \   | |__| |  /  /\  \   | |_| |  |  |/  /          
                |  |  |   |  __  | /  /__\  \  |    /   |      \           
                |  |  |   | |  | | |   __   |  |    \   |  |\   \          
                \     /   | |  | | |  |  |  |  | |\  \  |  | \   \       
                 \___/    |_|  |_| |__|  |__|  |_| \__\ |__|  \__/        
                                                                              
                      - O R C A' S   B I G   F R I E N D -                    
                                      &                                       
                       - I N T E G R A L  F E E D E R -                       
                                                                              
 v1 FN, 2020, v2 2021                                                         
------------------------------------------------------------------------------


Reading SHARK input file casscf.SHARKINP.tmp ... ok
----------------------
SHARK INTEGRAL PACKAGE
----------------------

Number of atoms                             ...     13
Number of basis functions                   ...    525
Number of shells                            ...    183
Maximum angular momentum                    ...      3
Integral batch strategy                     ... SHARK/LIBINT Hybrid
RI-J (if used) integral strategy            ... SPLIT-RIJ (Revised 2003 algorithm where possible)
Printlevel                                  ...      1
Contraction scheme used                     ... SEGMENTED contraction
Coulomb Range Separation                    ... NOT USED
Exchange Range Separation                   ... NOT USED
Finite Nucleus Model                        ... NOT USED
Auxiliary Coulomb fitting basis             ... AVAILABLE
   # of basis functions in Aux-J            ...   1157
   # of shells in Aux-J                     ...    299
   Maximum angular momentum in Aux-J        ...      4
Auxiliary J/K fitting basis                 ... NOT available
Auxiliary Correlation fitting basis         ... AVAILABLE
   # of basis functions in Aux-C            ...   1994
   # of shells in Aux-C                     ...    434
   Maximum angular momentum in Aux-C        ...      5
Auxiliary 'external' fitting basis          ... NOT available
Integral threshold                          ...     1.000000e-10
Primitive cut-off                           ...     1.000000e-11
Primitive pair pre-selection threshold      ...     1.000000e-11

Calculating pre-screening integrals         ... done (  1.3 sec) Dimension = 183
Organizing shell pair data                  ... done (  1.6 sec)
Shell pair information
Total number of shell pairs                 ...     16836
Shell pairs after pre-screening             ...     13893
Total number of primitive shell pairs       ...     45389
Primitive shell pairs kept                  ...     27442
          la=0 lb=0:   2172 shell pairs
          la=1 lb=0:   3184 shell pairs
          la=1 lb=1:   1184 shell pairs
          la=2 lb=0:   2770 shell pairs
          la=2 lb=1:   1915 shell pairs
          la=2 lb=2:    793 shell pairs
          la=3 lb=0:    736 shell pairs
          la=3 lb=1:    569 shell pairs
          la=3 lb=2:    490 shell pairs
          la=3 lb=3:     80 shell pairs

Calculating one electron integrals          ... done (  0.6 sec)
Calculating ECP integrals                   ... done ( 40.2 sec)
Calculating RI/J V-Matrix + Cholesky decomp.... done (  2.1 sec)
Calculating RI/C V-Matrix + Cholesky decomp.... done (  3.7 sec)
Calculating Nuclear repulsion               ... done (  0.0 sec) ENN=   4481.972719996545 Eh

SHARK setup successfully completed in  51.5 seconds

Maximum memory used throughout the entire GTOINT-calculation: 69.7 MB


           ************************************************************
           *        Program running with 2 parallel MPI-processes     *
           *              working on a common directory               *
           ************************************************************
-------------------------------------------------------------------------------
                                 ORCA SCF
-------------------------------------------------------------------------------

------------
SCF SETTINGS
------------
Hamiltonian:
 Ab initio Hamiltonian  Method          .... Hartree-Fock(GTOs)
 RI-approximation to the Coulomb term is turned on
   Number of AuxJ basis functions       .... 1157
   RIJ-COSX (HFX calculated with COS-X)).... on


General Settings:
 Integral files         IntName         .... casscf
 Hartree-Fock type      HFTyp           .... CASSCF
 Total Charge           Charge          ....    0
 Multiplicity           Mult            ....    5
 Number of Electrons    NEL             ....  254
 Basis Dimension        Dim             ....  525
 Nuclear Repulsion      ENuc            ....   4481.9727199965 Eh


Diagonalization of the overlap matrix:
Smallest eigenvalue                        ... 3.359e-04
Time for diagonalization                   ...    0.310 sec
Threshold for overlap eigenvalues          ... 1.000e-08
Number of eigenvalues below threshold      ... 0
Time for construction of square roots      ...    0.177 sec
Total time needed                          ...    0.505 sec

---------------------
INITIAL GUESS: MOREAD
---------------------
Guess MOs are being read from file: pbe.qro
Input Geometry matches current geometry (good)
Input basis set matches current basis set (good)
MOs were renormalized
Gram-Schmidt orthogonalization of all MOs with pivot on actives
                      ------------------
                      INITIAL GUESS DONE (  20.2 sec)
                      ------------------
--------------------
COSX GRID GENERATION
--------------------

GRIDX 1
-------
General Integration Accuracy     IntAcc      ... 3.816
Radial Grid Type                 RadialGrid  ... OptM3 with GC (2021)
Angular Grid (max. ang.)         AngularGrid ... 1 (Lebedev-50)
Angular grid pruning method      GridPruning ... 4 (adaptive)
Weight generation scheme         WeightScheme... Becke
Basis function cutoff            BFCut       ... 1.0000e-10
Integration weight cutoff        WCut        ... 1.0000e-14
Angular grids for H and He will be reduced by one unit
Partially contracted basis set               ... on
Rotationally invariant grid construction     ... off

Total number of grid points                  ...    15160
Total number of batches                      ...      244
Average number of points per batch           ...       62
Average number of grid points per atom       ...     1166
UseSFitting                                  ... on

GRIDX 2
-------
General Integration Accuracy     IntAcc      ... 4.020
Radial Grid Type                 RadialGrid  ... OptM3 with GC (2021)
Angular Grid (max. ang.)         AngularGrid ... 2 (Lebedev-110)
Angular grid pruning method      GridPruning ... 4 (adaptive)
Weight generation scheme         WeightScheme... Becke
Basis function cutoff            BFCut       ... 1.0000e-10
Integration weight cutoff        WCut        ... 1.0000e-14
Angular grids for H and He will be reduced by one unit
Partially contracted basis set               ... on
Rotationally invariant grid construction     ... off

Total number of grid points                  ...    45936
Total number of batches                      ...      725
Average number of points per batch           ...       63
Average number of grid points per atom       ...     3534
UseSFitting                                  ... on

GRIDX 3
-------
General Integration Accuracy     IntAcc      ... 4.338
Radial Grid Type                 RadialGrid  ... OptM3 with GC (2021)
Angular Grid (max. ang.)         AngularGrid ... 3 (Lebedev-194)
Angular grid pruning method      GridPruning ... 4 (adaptive)
Weight generation scheme         WeightScheme... Becke
Basis function cutoff            BFCut       ... 1.0000e-10
Integration weight cutoff        WCut        ... 1.0000e-14
Angular grids for H and He will be reduced by one unit
Partially contracted basis set               ... on
Rotationally invariant grid construction     ... off

Total number of grid points                  ...    84136
Total number of batches                      ...     1320
Average number of points per batch           ...       63
Average number of grid points per atom       ...     6472
UseSFitting                                  ... on

Time for X-Grid setup             =   13.360 sec



 ... the calculation is a CASSCF calculation -I'm leaving here GOOD LUCK!!!



           ************************************************************
           *        Program running with 2 parallel MPI-processes     *
           *              working on a common directory               *
           ************************************************************
-------------------------------------------------------------------------------
                              ORCA-CASSCF
-------------------------------------------------------------------------------

Setting up the integral package       ... done
Setting up the integral package (RI)  ... done
Building the CAS space                ... done (5 configurations for Mult=5)
Building the CAS space                ... done (35 configurations for Mult=3)

SYSTEM-SPECIFIC SETTINGS:
Number of active electrons          ...    6
Number of active orbitals           ...    5
Total number of electrons           ...  254
Total number of orbitals            ...  525
Total number aux. functions         ... 1994

Determined orbital ranges:
   Internal       0 -  123 ( 124 orbitals)
   Active       124 -  128 (   5 orbitals)
   External     129 -  524 ( 396 orbitals)
Number of rotation parameters      ...  51704

CI-STEP:
CI strategy                         ... General CI
Number of multiplicity blocks       ...    2
BLOCK  1 WEIGHT=   0.5000
  Multiplicity                      ...    5
  #(Configurations)                 ...    5
  #(CSFs)                           ...    5
  #(Roots)                          ...    5
    ROOT=0 WEIGHT=    0.100000
    ROOT=1 WEIGHT=    0.100000
    ROOT=2 WEIGHT=    0.100000
    ROOT=3 WEIGHT=    0.100000
    ROOT=4 WEIGHT=    0.100000

BLOCK  2 WEIGHT=   0.5000
  Multiplicity                      ...    3
  #(Configurations)                 ...   35
  #(CSFs)                           ...   45
  #(Roots)                          ...   45
    ROOT=0 WEIGHT=    0.011111
    ROOT=1 WEIGHT=    0.011111
    ROOT=2 WEIGHT=    0.011111
    ROOT=3 WEIGHT=    0.011111
    ROOT=4 WEIGHT=    0.011111
    ROOT=5 WEIGHT=    0.011111
    ROOT=6 WEIGHT=    0.011111
    ROOT=7 WEIGHT=    0.011111
    ROOT=8 WEIGHT=    0.011111
    ROOT=9 WEIGHT=    0.011111
    ROOT=10 WEIGHT=    0.011111
    ROOT=11 WEIGHT=    0.011111
    ROOT=12 WEIGHT=    0.011111
    ROOT=13 WEIGHT=    0.011111
    ROOT=14 WEIGHT=    0.011111
    ROOT=15 WEIGHT=    0.011111
    ROOT=16 WEIGHT=    0.011111
    ROOT=17 WEIGHT=    0.011111
    ROOT=18 WEIGHT=    0.011111
    ROOT=19 WEIGHT=    0.011111
    ROOT=20 WEIGHT=    0.011111
    ROOT=21 WEIGHT=    0.011111
    ROOT=22 WEIGHT=    0.011111
    ROOT=23 WEIGHT=    0.011111
    ROOT=24 WEIGHT=    0.011111
    ROOT=25 WEIGHT=    0.011111
    ROOT=26 WEIGHT=    0.011111
    ROOT=27 WEIGHT=    0.011111
    ROOT=28 WEIGHT=    0.011111
    ROOT=29 WEIGHT=    0.011111
    ROOT=30 WEIGHT=    0.011111
    ROOT=31 WEIGHT=    0.011111
    ROOT=32 WEIGHT=    0.011111
    ROOT=33 WEIGHT=    0.011111
    ROOT=34 WEIGHT=    0.011111
    ROOT=35 WEIGHT=    0.011111
    ROOT=36 WEIGHT=    0.011111
    ROOT=37 WEIGHT=    0.011111
    ROOT=38 WEIGHT=    0.011111
    ROOT=39 WEIGHT=    0.011111
    ROOT=40 WEIGHT=    0.011111
    ROOT=41 WEIGHT=    0.011111
    ROOT=42 WEIGHT=    0.011111
    ROOT=43 WEIGHT=    0.011111
    ROOT=44 WEIGHT=    0.011111

  PrintLevel                        ...    1
  N(GuessMat)                       ...       512
  MaxDim(CI)                        ...        10
  MaxIter(CI)                       ...        64
  Energy Tolerance CI               ...  1.00e-08
  Residual Tolerance CI             ...  1.00e-08
  Shift(CI)                         ...  1.00e-04

INTEGRAL-TRANSFORMATION-STEP:
  Algorithm                         ... RI-MO

ORBITAL-IMPROVEMENT-STEP:
  Algorithm                         ... SuperCI(PT)
  Default Parametrization           ... CAYLEY
  Act-Act rotations                 ... depends on algorithm used

  Note: SuperCI(PT) will ignore FreezeIE, FreezeAct and FreezeGrad. In general Default settings are encouraged.
        In conjunction with ShiftUp, ShiftDn or GradScaling the performance of SuperCI(PT) is less optimal.  

  MaxRot                            ... 2.00e-01 
  Max. no of vectors (DIIS)         ... 15
  DThresh (cut-off) metric          ... 1.00e-06
  Switch step at gradient           ...  3.00e-02 
  Switch step at iteration          ...        50   
  Switch step to                    ... SuperCI(PT)    

SCF-SETTINGS:
  Incremental                       ... off
  RIJCOSX approximation             ... on
  UseFinalGrid                      ... on
  RI-JK approximation               ... off
  AO integral handling              ... DIRECT
  Integral Neglect Thresh           ...  1.00e-10
  Primitive cutoff TCut             ...  1.00e-11
  Energy convergence tolerance      ...  1.00e-07
  Orbital gradient convergence      ...  1.00e-03
  Max. number of iterations         ...        75  


FINAL ORBITALS:
  Active   Orbitals                 ... natural 
  Internal Orbitals                 ... canonical 
  External Orbitals                 ... canonical 

------------------
CAS-SCF ITERATIONS
------------------


MACRO-ITERATION   1: 
   --- Inactive Energy E0 = -2870.68043203 Eh
CI-ITERATION   0: 
 -2879.558747144   0.000000000000 (    0.39)
 -2879.552844933   0.000000000000
 -2879.546607609   0.000000000000
 -2879.541681438   0.000000000000
 -2879.395864105   0.000000000000
   CI-PROBLEM SOLVED
   DENSITIES MADE
CI-ITERATION   0: 
 -2879.566969366   0.000000000000 (    0.04)
 -2879.561888323   0.000000000000
 -2879.556949181   0.000000000000
 -2879.542336315   0.000000000000
 -2879.513808424   0.000000000000
 -2879.510312993   0.000000000000
 -2879.508835284   0.000000000000
 -2879.504744064   0.000000000000
 -2879.503199233   0.000000000000
 -2879.500404683   0.000000000000
 -2879.499565548   0.000000000000
 -2879.497405273   0.000000000000
 -2879.497278710   0.000000000000
 -2879.491779710   0.000000000000
 -2879.490262421   0.000000000000
 -2879.488467701   0.000000000000
 -2879.486484949   0.000000000000
 -2879.480523972   0.000000000000
 -2879.476619094   0.000000000000
 -2879.476246898   0.000000000000
 -2879.432438797   0.000000000000
 -2879.423160443   0.000000000000
 -2879.422262736   0.000000000000
 -2879.410781897   0.000000000000
 -2879.379465609   0.000000000000
 -2879.372982917   0.000000000000
 -2879.346385356   0.000000000000
 -2879.345770198   0.000000000000
 -2879.340612118   0.000000000000
 -2879.337586651   0.000000000000
 -2879.329088915   0.000000000000
 -2879.322500118   0.000000000000
 -2879.316432341   0.000000000000
 -2879.313257584   0.000000000000
 -2879.309205914   0.000000000000
 -2879.301900061   0.000000000000
 -2879.292838237   0.000000000000
 -2879.284365898   0.000000000000
 -2879.280614972   0.000000000000
 -2879.271346024   0.000000000000
 -2879.254954488   0.000000000000
 -2879.235689079   0.000000000000
 -2879.206800607   0.000000000000
 -2879.204422761   0.000000000000
 -2879.203129105   0.000000000000
   CI-PROBLEM SOLVED
   DENSITIES MADE

                 <<<<<<<<<<<<<<<<<<INITIAL CI STATE CHECK>>>>>>>>>>>>>>>>>>

BLOCK  1 MULT= 5 NROOTS= 5 
ROOT   0:  E=   -2879.5587471441 Eh
      0.74465 [     4]: 21111
      0.12939 [     3]: 12111
      0.10215 [     0]: 11112
      0.02381 [     2]: 11211
ROOT   1:  E=   -2879.5528449329 Eh  0.161 eV   1295.4 cm**-1
      0.95920 [     1]: 11121
      0.02411 [     3]: 12111
      0.01492 [     2]: 11211
ROOT   2:  E=   -2879.5466076086 Eh  0.330 eV   2664.3 cm**-1
      0.62687 [     3]: 12111
      0.28400 [     2]: 11211
      0.04059 [     1]: 11121
      0.04026 [     4]: 21111
      0.00829 [     0]: 11112
ROOT   3:  E=   -2879.5416814383 Eh  0.464 eV   3745.5 cm**-1
      0.67727 [     2]: 11211
      0.21927 [     3]: 12111
      0.08800 [     4]: 21111
      0.01525 [     0]: 11112
ROOT   4:  E=   -2879.3958641053 Eh  4.432 eV  35748.7 cm**-1
      0.87401 [     0]: 11112
      0.12563 [     4]: 21111

BLOCK  2 MULT= 3 NROOTS=45 
ROOT   0:  E=   -2879.5669693660 Eh
      0.61369 [    29]: 21120
      0.18797 [    11]: 11121
      0.17388 [     0]: 01122
      0.00725 [    34]: 22110
      0.00309 [    18]: 12111
      0.00284 [    19]: 12120
ROOT   1:  E=   -2879.5618883228 Eh  0.138 eV   1115.2 cm**-1
      0.55189 [    34]: 22110
      0.18766 [    18]: 12111
      0.15248 [     3]: 02112
      0.05071 [    28]: 21111
      0.01814 [    10]: 11112
      0.01172 [    31]: 21210
      0.00970 [    29]: 21120
      0.00836 [    13]: 11211
      0.00332 [     1]: 01212
      0.00252 [    11]: 11121
      0.00250 [     0]: 01122
ROOT   2:  E=   -2879.5569491811 Eh  0.273 eV   2199.2 cm**-1
      0.57537 [    31]: 21210
      0.20117 [    13]: 11211
      0.15856 [     1]: 01212
      0.03533 [    28]: 21111
      0.00982 [    34]: 22110
      0.00822 [    10]: 11112
      0.00320 [    21]: 12210
ROOT   3:  E=   -2879.5423363148 Eh  0.670 eV   5406.3 cm**-1
      0.70919 [    28]: 21111
      0.17492 [    10]: 11112
      0.04342 [    34]: 22110
      0.02160 [    31]: 21210
      0.02016 [     3]: 02112
      0.01972 [    18]: 12111
      0.00619 [     1]: 01212
      0.00295 [    13]: 11211
ROOT   4:  E=   -2879.5138084242 Eh  1.447 eV  11667.5 cm**-1
      0.63048 [    26]: 21021
      0.17085 [     9]: 11022
      0.04444 [    11]: 11121
      0.03609 [    14]: 11220
      0.03536 [    30]: 21201
      0.02673 [    23]: 20121
      0.02527 [     2]: 01221
      0.00773 [     6]: 10122
      0.00677 [    19]: 12120
      0.00439 [     4]: 02121
      0.00284 [    28]: 21111
ROOT   5:  E=   -2879.5103129926 Eh  1.542 eV  12434.6 cm**-1
      0.69339 [    28]: 21111
      0.12557 [    10]: 11112
      0.10148 [    32]: 22011
      0.02951 [    15]: 12012
      0.01822 [    18]: 12111
      0.00886 [    13]: 11211
      0.00641 [    21]: 12210
      0.00498 [    24]: 20211
      0.00430 [     5]: 02211
ROOT   6:  E=   -2879.5088352844 Eh  1.582 eV  12759.0 cm**-1
      0.44427 [    23]: 20121
      0.21702 [    11]: 11121
      0.09408 [     6]: 10122
      0.06033 [     8]: 10221
      0.05413 [    33]: 22101
      0.03146 [    16]: 12021
      0.02355 [    26]: 21021
      0.02084 [    29]: 21120
      0.01000 [    19]: 12120
      0.00804 [    17]: 12102
      0.00779 [    30]: 21201
      0.00742 [     2]: 01221
      0.00670 [     0]: 01122
      0.00509 [    14]: 11220
      0.00364 [     9]: 11022
ROOT   7:  E=   -2879.5047440643 Eh  1.693 eV  13656.9 cm**-1
      0.60241 [    28]: 21111
      0.12961 [    24]: 20211
      0.11895 [    10]: 11112
      0.03233 [    13]: 11211
      0.02414 [     7]: 10212
      0.02303 [    18]: 12111
      0.01893 [    32]: 22011
      0.01589 [    21]: 12210
      0.00923 [    15]: 12012
      0.00843 [     5]: 02211
      0.00398 [    33]: 22101
      0.00255 [    30]: 21201
ROOT   8:  E=   -2879.5031992329 Eh  1.735 eV  13995.9 cm**-1
      0.40070 [    11]: 11121
      0.13883 [    30]: 21201
      0.07195 [    33]: 22101
      0.07041 [    23]: 20121
      0.05172 [     8]: 10221
      0.04818 [    14]: 11220
      0.04098 [     2]: 01221
      0.03715 [    29]: 21120
      0.02529 [    19]: 12120
      0.02475 [     4]: 02121
      0.02034 [    20]: 12201
      0.01611 [    12]: 11202
      0.01345 [    17]: 12102
      0.00907 [     6]: 10122
      0.00717 [     0]: 01122
      0.00692 [    26]: 21021
      0.00502 [    28]: 21111
      0.00360 [    18]: 12111
ROOT   9:  E=   -2879.5004046827 Eh  1.811 eV  14609.3 cm**-1
      0.37108 [    11]: 11121
      0.23043 [    16]: 12021
      0.11854 [    33]: 22101
      0.05801 [    20]: 12201
      0.04852 [    19]: 12120
      0.02691 [    30]: 21201
      0.02420 [     4]: 02121
      0.02413 [    17]: 12102
      0.02405 [    26]: 21021
      0.02231 [    23]: 20121
      0.01103 [    29]: 21120
      0.00864 [    13]: 11211
      0.00708 [     8]: 10221
      0.00500 [     9]: 11022
      0.00476 [     6]: 10122
      0.00391 [    12]: 11202
      0.00376 [    28]: 21111
ROOT  10:  E=   -2879.4995655485 Eh  1.834 eV  14793.4 cm**-1
      0.68858 [    18]: 12111
      0.24176 [    13]: 11211
      0.01675 [    21]: 12210
      0.01555 [    11]: 11121
      0.01407 [     5]: 02211
      0.00473 [    28]: 21111
      0.00302 [    23]: 20121
ROOT  11:  E=   -2879.4974052734 Eh  1.893 eV  15267.6 cm**-1
      0.17124 [    30]: 21201
      0.16177 [    33]: 22101
      0.11778 [    23]: 20121
      0.10709 [    19]: 12120
      0.10650 [    11]: 11121
      0.07547 [    20]: 12201
      0.06069 [     4]: 02121
      0.04849 [    16]: 12021
      0.03690 [    17]: 12102
      0.02254 [     6]: 10122
      0.02162 [    26]: 21021
      0.01725 [    12]: 11202
      0.01521 [    29]: 21120
      0.01397 [    13]: 11211
      0.00991 [    18]: 12111
      0.00640 [     9]: 11022
ROOT  12:  E=   -2879.4972787096 Eh  1.896 eV  15295.3 cm**-1
      0.48357 [    13]: 11211
      0.19109 [    18]: 12111
      0.08206 [     5]: 02211
      0.07881 [    21]: 12210
      0.04073 [    32]: 22011
      0.03410 [    31]: 21210
      0.02463 [    28]: 21111
      0.02049 [    34]: 22110
      0.01174 [    15]: 12012
      0.00757 [     1]: 01212
      0.00430 [    10]: 11112
      0.00410 [     3]: 02112
      0.00395 [    30]: 21201
      0.00340 [    11]: 11121
ROOT  13:  E=   -2879.4917797102 Eh  2.046 eV  16502.2 cm**-1
      0.25560 [    21]: 12210
      0.20059 [    18]: 12111
      0.14423 [     5]: 02211
      0.12096 [    28]: 21111
      0.11316 [    32]: 22011
      0.04870 [    13]: 11211
      0.03651 [    34]: 22110
      0.02768 [    15]: 12012
      0.01908 [    10]: 11112
      0.01312 [    24]: 20211
      0.00536 [     3]: 02112
      0.00378 [    20]: 12201
      0.00305 [    31]: 21210
ROOT  14:  E=   -2879.4902624213 Eh  2.087 eV  16835.2 cm**-1
      0.66608 [    20]: 12201
      0.09418 [    11]: 11121
      0.08912 [    30]: 21201
      0.03223 [    23]: 20121
      0.02570 [    14]: 11220
      0.02248 [     8]: 10221
      0.01351 [    12]: 11202
      0.01293 [     2]: 01221
      0.00705 [    13]: 11211
      0.00617 [     6]: 10122
      0.00566 [    29]: 21120
      0.00545 [    19]: 12120
      0.00450 [    26]: 21021
      0.00314 [     4]: 02121
ROOT  15:  E=   -2879.4884677006 Eh  2.136 eV  17229.1 cm**-1
      0.27731 [    11]: 11121
      0.18699 [    19]: 12120
      0.13046 [    14]: 11220
      0.09528 [    30]: 21201
      0.08577 [     2]: 01221
      0.05820 [     4]: 02121
      0.05484 [    20]: 12201
      0.03903 [    33]: 22101
      0.01645 [    29]: 21120
      0.01310 [    16]: 12021
      0.01212 [    23]: 20121
      0.00778 [    12]: 11202
      0.00735 [    17]: 12102
      0.00527 [     8]: 10221
ROOT  16:  E=   -2879.4864849485 Eh  2.190 eV  17664.3 cm**-1
      0.40009 [    24]: 20211
      0.20100 [    32]: 22011
      0.07681 [    28]: 21111
      0.06956 [    21]: 12210
      0.05610 [    18]: 12111
      0.05246 [    13]: 11211
      0.04643 [     5]: 02211
      0.04303 [    15]: 12012
      0.03597 [     7]: 10212
      0.01077 [    10]: 11112
ROOT  17:  E=   -2879.4805239725 Eh  2.352 eV  18972.6 cm**-1
      0.40737 [    18]: 12111
      0.30417 [    13]: 11211
      0.07417 [    34]: 22110
      0.04782 [    31]: 21210
      0.04668 [    32]: 22011
      0.02461 [    28]: 21111
      0.01787 [    21]: 12210
      0.01315 [     3]: 02112
      0.01282 [     8]: 10221
      0.01259 [    15]: 12012
      0.00929 [    16]: 12021
      0.00731 [     5]: 02211
      0.00706 [     1]: 01212
      0.00416 [    11]: 11121
      0.00414 [    10]: 11112
      0.00370 [    24]: 20211
ROOT  18:  E=   -2879.4766190936 Eh  2.459 eV  19829.6 cm**-1
      0.59628 [    13]: 11211
      0.19841 [    18]: 12111
      0.03601 [    24]: 20211
      0.03493 [    28]: 21111
      0.02462 [    16]: 12021
      0.02454 [    31]: 21210
      0.01989 [    21]: 12210
      0.01026 [     5]: 02211
      0.00893 [    11]: 11121
      0.00885 [    32]: 22011
      0.00717 [    10]: 11112
      0.00668 [     8]: 10221
      0.00459 [    34]: 22110
      0.00433 [     7]: 10212
      0.00404 [     1]: 01212
      0.00354 [    20]: 12201
ROOT  19:  E=   -2879.4762468979 Eh  2.469 eV  19911.3 cm**-1
      0.35738 [    16]: 12021
      0.33950 [     8]: 10221
      0.17259 [    11]: 11121
      0.03434 [    13]: 11211
      0.02303 [    29]: 21120
      0.02089 [    18]: 12111
      0.01110 [    14]: 11220
      0.00729 [    26]: 21021
      0.00485 [    31]: 21210
      0.00465 [     9]: 11022
      0.00386 [    28]: 21111
      0.00364 [     0]: 01122
      0.00359 [    23]: 20121
ROOT  20:  E=   -2879.4324387967 Eh  3.661 eV  29526.0 cm**-1
      0.33471 [    30]: 21201
      0.31641 [    33]: 22101
      0.06622 [    14]: 11220
      0.04083 [    19]: 12120
      0.03644 [     8]: 10221
      0.03263 [     2]: 01221
      0.02969 [    16]: 12021
      0.02710 [    17]: 12102
      0.02477 [    20]: 12201
      0.02371 [    23]: 20121
      0.02346 [    26]: 21021
      0.01902 [    11]: 11121
      0.00930 [     9]: 11022
      0.00726 [     6]: 10122
      0.00312 [     4]: 02121
ROOT  21:  E=   -2879.4231604428 Eh  3.913 eV  31562.4 cm**-1
      0.16967 [    19]: 12120
      0.14799 [    24]: 20211
      0.11712 [    32]: 22011
      0.07547 [     8]: 10221
      0.06859 [    14]: 11220
      0.05937 [    21]: 12210
      0.05260 [    33]: 22101
      0.05068 [    28]: 21111
      0.04525 [    16]: 12021
      0.04210 [     2]: 01221
      0.04029 [    23]: 20121
      0.02749 [    15]: 12012
      0.02087 [     4]: 02121
      0.01971 [     5]: 02211
      0.01443 [    11]: 11121
      0.01111 [    20]: 12201
      0.00788 [    13]: 11211
      0.00578 [    26]: 21021
      0.00452 [    31]: 21210
      0.00420 [    17]: 12102
      0.00394 [     6]: 10122
      0.00346 [    18]: 12111
      0.00335 [    22]: 20112
ROOT  22:  E=   -2879.4222627363 Eh  3.938 eV  31759.4 cm**-1
      0.19289 [    24]: 20211
      0.13930 [    32]: 22011
      0.12924 [    19]: 12120
      0.08278 [    21]: 12210
      0.07070 [     8]: 10221
      0.05808 [    28]: 21111
      0.05552 [    14]: 11220
      0.03717 [    33]: 22101
      0.03450 [     2]: 01221
      0.03374 [    16]: 12021
      0.03143 [    15]: 12012
      0.03114 [    23]: 20121
      0.02770 [     5]: 02211
      0.01561 [    11]: 11121
      0.01463 [     4]: 02121
      0.00889 [    20]: 12201
      0.00708 [    22]: 20112
      0.00546 [    13]: 11211
      0.00474 [    18]: 12111
      0.00466 [    26]: 21021
      0.00424 [    31]: 21210
      0.00328 [    17]: 12102
      0.00301 [     6]: 10122
ROOT  23:  E=   -2879.4107818965 Eh  4.250 eV  34279.2 cm**-1
      0.30139 [     8]: 10221
      0.18807 [    14]: 11220
      0.16557 [    16]: 12021
      0.06929 [    11]: 11121
      0.06539 [    19]: 12120
      0.06274 [    20]: 12201
      0.05032 [     2]: 01221
      0.04759 [    30]: 21201
      0.02954 [    26]: 21021
      0.00858 [     9]: 11022
      0.00356 [    12]: 11202
      0.00255 [    27]: 21102
ROOT  24:  E=   -2879.3794656087 Eh  5.102 eV  41152.3 cm**-1
      0.82061 [    22]: 20112
      0.12446 [     7]: 10212
      0.01566 [    10]: 11112
      0.00638 [    28]: 21111
      0.00575 [     3]: 02112
      0.00518 [    32]: 22011
      0.00452 [    25]: 21012
      0.00381 [    27]: 21102
      0.00365 [    18]: 12111
      0.00275 [    21]: 12210
      0.00274 [     1]: 01212
ROOT  25:  E=   -2879.3729829169 Eh  5.279 eV  42575.1 cm**-1
      0.75739 [    27]: 21102
      0.19471 [    12]: 11202
      0.00943 [     0]: 01122
      0.00880 [    33]: 22101
      0.00676 [    14]: 11220
      0.00675 [    11]: 11121
      0.00433 [    22]: 20112
ROOT  26:  E=   -2879.3463853565 Eh  6.002 eV  48412.6 cm**-1
      0.51296 [    12]: 11202
      0.20149 [     4]: 02121
      0.14063 [    27]: 21102
      0.05186 [    19]: 12120
      0.02610 [    14]: 11220
      0.02466 [    30]: 21201
      0.01079 [     9]: 11022
      0.01014 [    26]: 21021
      0.01006 [    11]: 11121
      0.00276 [     7]: 10212
ROOT  27:  E=   -2879.3457701975 Eh  6.019 eV  48547.6 cm**-1
      0.54876 [     4]: 02121
      0.19696 [    12]: 11202
      0.13965 [    19]: 12120
      0.06010 [    27]: 21102
      0.01135 [    33]: 22101
      0.00848 [    14]: 11220
      0.00842 [    30]: 21201
      0.00662 [     2]: 01221
      0.00522 [    23]: 20121
      0.00487 [    11]: 11121
      0.00256 [     9]: 11022
ROOT  28:  E=   -2879.3406121182 Eh  6.159 eV  49679.7 cm**-1
      0.38282 [    25]: 21012
      0.26507 [    10]: 11112
      0.23779 [     7]: 10212
      0.03552 [    28]: 21111
      0.01786 [    22]: 20112
      0.01744 [     1]: 01212
      0.01309 [    32]: 22011
      0.00931 [    24]: 20211
      0.00876 [    13]: 11211
      0.00498 [    15]: 12012
      0.00261 [    21]: 12210
ROOT  29:  E=   -2879.3375866509 Eh  6.242 eV  50343.7 cm**-1
      0.35341 [     7]: 10212
      0.22526 [    10]: 11112
      0.18183 [    25]: 21012
      0.11135 [    22]: 20112
      0.05510 [    28]: 21111
      0.01995 [    24]: 20211
      0.01630 [    15]: 12012
      0.00782 [     3]: 02112
      0.00707 [    32]: 22011
      0.00624 [    18]: 12111
      0.00598 [     1]: 01212
      0.00271 [    13]: 11211
ROOT  30:  E=   -2879.3290889149 Eh  6.473 eV  52208.7 cm**-1
      0.63665 [    10]: 11112
      0.16290 [    25]: 21012
      0.11088 [    28]: 21111
      0.04089 [    13]: 11211
      0.03861 [     1]: 01212
      0.00255 [     3]: 02112
ROOT  31:  E=   -2879.3225001178 Eh  6.652 eV  53654.8 cm**-1
      0.47701 [     6]: 10122
      0.34140 [    17]: 12102
      0.09385 [    23]: 20121
      0.04547 [    33]: 22101
      0.02603 [     9]: 11022
      0.00341 [    26]: 21021
      0.00277 [    27]: 21102
ROOT  32:  E=   -2879.3164323414 Eh  6.817 eV  54986.5 cm**-1
      0.58455 [    10]: 11112
      0.10276 [    25]: 21012
      0.09464 [    28]: 21111
      0.07405 [    13]: 11211
      0.05696 [     1]: 01212
      0.03003 [    15]: 12012
      0.01981 [    21]: 12210
      0.01415 [     5]: 02211
      0.00443 [     3]: 02112
      0.00402 [    18]: 12111
      0.00394 [    17]: 12102
      0.00385 [    22]: 20112
ROOT  33:  E=   -2879.3132575841 Eh  6.904 eV  55683.3 cm**-1
      0.60216 [    10]: 11112
      0.14873 [     7]: 10212
      0.14548 [    28]: 21111
      0.02330 [    24]: 20211
      0.02324 [    13]: 11211
      0.01540 [    25]: 21012
      0.01383 [    15]: 12012
      0.01192 [     1]: 01212
      0.00557 [    22]: 20112
ROOT  34:  E=   -2879.3092059140 Eh  7.014 eV  56572.5 cm**-1
      0.47981 [     5]: 02211
      0.24869 [    21]: 12210
      0.14402 [    18]: 12111
      0.02922 [     3]: 02112
      0.02885 [    34]: 22110
      0.02712 [    10]: 11112
      0.00849 [     1]: 01212
      0.00535 [    13]: 11211
      0.00429 [    11]: 11121
      0.00403 [    28]: 21111
      0.00372 [    31]: 21210
      0.00329 [     7]: 10212
      0.00294 [    25]: 21012
      0.00264 [    15]: 12012
ROOT  35:  E=   -2879.3019000611 Eh  7.213 eV  58176.0 cm**-1
      0.63676 [    11]: 11121
      0.14280 [     0]: 01122
      0.12857 [    29]: 21120
      0.04901 [     2]: 01221
      0.01463 [    14]: 11220
      0.01068 [     4]: 02121
      0.00360 [     5]: 02211
      0.00271 [     6]: 10122
ROOT  36:  E=   -2879.2928382367 Eh  7.459 eV  60164.8 cm**-1
      0.48708 [    17]: 12102
      0.24498 [     6]: 10122
      0.10286 [     9]: 11022
      0.06751 [    33]: 22101
      0.04030 [    23]: 20121
      0.02465 [    26]: 21021
      0.00769 [    14]: 11220
      0.00634 [     2]: 01221
      0.00366 [    10]: 11112
      0.00351 [    27]: 21102
ROOT  37:  E=   -2879.2843658976 Eh  7.690 eV  62024.3 cm**-1
      0.53760 [     2]: 01221
      0.26442 [    14]: 11220
      0.05010 [    18]: 12111
      0.04827 [    11]: 11121
      0.01447 [     4]: 02121
      0.01009 [    34]: 22110
      0.01006 [    29]: 21120
      0.00944 [     6]: 10122
      0.00844 [     3]: 02112
      0.00765 [     5]: 02211
      0.00649 [     0]: 01122
      0.00646 [    13]: 11211
      0.00593 [    21]: 12210
      0.00575 [    17]: 12102
      0.00510 [     8]: 10221
      0.00279 [     1]: 01212
ROOT  38:  E=   -2879.2806149721 Eh  7.792 eV  62847.5 cm**-1
      0.45563 [    18]: 12111
      0.12030 [     5]: 02211
      0.08314 [    34]: 22110
      0.08142 [    21]: 12210
      0.06341 [     3]: 02112
      0.05746 [     2]: 01221
      0.04664 [    13]: 11211
      0.02925 [     1]: 01212
      0.02819 [    14]: 11220
      0.01419 [    31]: 21210
      0.00599 [    10]: 11112
      0.00423 [    11]: 11121
ROOT  39:  E=   -2879.2713460242 Eh  8.044 eV  64881.8 cm**-1
      0.38119 [    13]: 11211
      0.20845 [     1]: 01212
      0.11464 [    25]: 21012
      0.09337 [    10]: 11112
      0.06147 [     3]: 02112
      0.04914 [    18]: 12111
      0.04133 [    15]: 12012
      0.02655 [    28]: 21111
      0.01080 [    32]: 22011
      0.00432 [    34]: 22110
ROOT  40:  E=   -2879.2549544878 Eh  8.490 eV  68479.4 cm**-1
      0.58214 [     9]: 11022
      0.15416 [    26]: 21021
      0.08452 [     6]: 10122
      0.07217 [     0]: 01122
      0.02617 [    17]: 12102
      0.02206 [    23]: 20121
      0.02070 [    12]: 11202
      0.01309 [    11]: 11121
      0.01065 [    29]: 21120
      0.00375 [    33]: 22101
      0.00356 [    27]: 21102
ROOT  41:  E=   -2879.2356890786 Eh  9.015 eV  72707.6 cm**-1
      0.60652 [    15]: 12012
      0.14378 [    32]: 22011
      0.09347 [     3]: 02112
      0.04503 [     7]: 10212
      0.02919 [    18]: 12111
      0.01980 [    10]: 11112
      0.01241 [    34]: 22110
      0.00971 [    28]: 21111
      0.00943 [    22]: 20112
      0.00730 [    24]: 20211
      0.00634 [     1]: 01212
      0.00577 [    25]: 21012
      0.00409 [    13]: 11211
      0.00326 [    31]: 21210
ROOT  42:  E=   -2879.2068006068 Eh  9.801 eV  79047.9 cm**-1
      0.28466 [    13]: 11211
      0.19832 [     3]: 02112
      0.13456 [     1]: 01212
      0.12215 [    31]: 21210
      0.09691 [     0]: 01122
      0.06248 [    34]: 22110
      0.04407 [    11]: 11121
      0.01479 [    29]: 21120
      0.01106 [     9]: 11022
      0.00715 [    15]: 12012
      0.00338 [    26]: 21021
      0.00326 [    27]: 21102
      0.00298 [     6]: 10122
ROOT  43:  E=   -2879.2044227614 Eh  9.865 eV  79569.8 cm**-1
      0.33289 [     0]: 01122
      0.17852 [     1]: 01212
      0.14111 [    11]: 11121
      0.08504 [    31]: 21210
      0.05696 [    18]: 12111
      0.04902 [    29]: 21120
      0.04763 [    13]: 11211
      0.03453 [     9]: 11022
      0.01303 [    15]: 12012
      0.01077 [    27]: 21102
      0.01022 [    26]: 21021
      0.00867 [     6]: 10122
      0.00836 [     3]: 02112
      0.00559 [    25]: 21012
      0.00408 [    10]: 11112
      0.00313 [     7]: 10212
      0.00310 [    32]: 22011
ROOT  44:  E=   -2879.2031291050 Eh  9.901 eV  79853.7 cm**-1
      0.31070 [     3]: 02112
      0.15236 [    18]: 12111
      0.12892 [     0]: 01122
      0.10742 [     1]: 01212
      0.06526 [    15]: 12012
      0.05518 [    11]: 11121
      0.04070 [    34]: 22110
      0.02579 [    31]: 21210
      0.01890 [    29]: 21120
      0.01702 [    25]: 21012
      0.01680 [    32]: 22011
      0.01269 [     9]: 11022
      0.01246 [    10]: 11112
      0.00748 [    13]: 11211
      0.00622 [    22]: 20112
      0.00448 [    27]: 21102
      0.00405 [    28]: 21111
      0.00382 [     7]: 10212
      0.00374 [    26]: 21021
      0.00325 [     6]: 10122

                 <<<<<<<<<<<<<<<<<<INITIAL CI STATE CHECK>>>>>>>>>>>>>>>>>>

   E(CAS)= -2879.460597578 Eh DE=    0.000000e+00
   --- Energy gap subspaces: Ext-Act = 0.090   Act-Int = 0.068
   N(occ)=  1.20000 1.20000 1.20000 1.20000 1.20000
   ||g|| =     2.466231e+00 Max(G)=    4.928687e-01 Rot=452,1
   --- Orbital Update [SuperCI(PT)]
   --- Canonicalize Internal Space
   --- Canonicalize External Space
   --- SX_PT (Skipped TA=0 IT=0): ||X|| =      0.547046366 Max(X)(129,120) =     -0.187623170 
   --- SFit(Active Orbitals)

MACRO-ITERATION   2: 
   --- Inactive Energy E0 = -2871.16560637 Eh
CI-ITERATION   0: 
 -2879.962346396   0.000000000000 (    0.38)
 -2879.923349800   0.000000000000
 -2879.877848086   0.000000000000
 -2879.874562872   0.000000000000
 -2879.838006891   0.000000000000
   CI-PROBLEM SOLVED
   DENSITIES MADE
CI-ITERATION   0: 
 -2879.937053757   0.000000000000 (    0.05)
 -2879.906866581   0.000000000000
 -2879.900087062   0.000000000000
 -2879.887370982   0.000000000000
 -2879.883556707   0.000000000000
 -2879.878953281   0.000000000000
 -2879.874672583   0.000000000000
 -2879.869400288   0.000000000000
 -2879.868269220   0.000000000000
 -2879.864113131   0.000000000000
 -2879.862184013   0.000000000000
 -2879.861485602   0.000000000000
 -2879.848622235   0.000000000000
 -2879.847013077   0.000000000000
 -2879.839898657   0.000000000000
 -2879.832866462   0.000000000000
 -2879.831484139   0.000000000000
 -2879.827882742   0.000000000000
 -2879.824246504   0.000000000000
 -2879.820564669   0.000000000000
 -2879.817482477   0.000000000000
 -2879.816329829   0.000000000000
 -2879.806998482   0.000000000000
 -2879.802509233   0.000000000000
 -2879.794809302   0.000000000000
 -2879.791014153   0.000000000000
 -2879.788279852   0.000000000000
 -2879.779504387   0.000000000000
 -2879.773940209   0.000000000000
 -2879.768982087   0.000000000000
 -2879.768072319   0.000000000000
 -2879.757109284   0.000000000000
 -2879.750217428   0.000000000000
 -2879.746719274   0.000000000000
 -2879.736328931   0.000000000000
 -2879.730595285   0.000000000000
 -2879.705305937   0.000000000000
 -2879.673069248   0.000000000000
 -2879.653707732   0.000000000000
 -2879.424052694   0.000000000000
 -2879.392879082   0.000000000000
 -2879.385064173   0.000000000000
 -2879.322698428   0.000000000000
 -2879.279533637   0.000000000000
 -2879.227348369   0.000000000000
   CI-PROBLEM SOLVED
   DENSITIES MADE
   E(CAS)= -2879.822712999 Eh DE=   -3.621154e-01
   --- Energy gap subspaces: Ext-Act = 0.029   Act-Int = 0.134
   N(occ)=  1.20000 1.20000 1.20000 1.20000 1.20000
   ||g|| =     1.238602e+00 Max(G)=    1.675166e-01 Rot=127,122
   --- Orbital Update [SuperCI(PT)]
   --- Canonicalize Internal Space
   --- Canonicalize External Space
   --- SX_PT (Skipped TA=0 IT=0): ||X|| =      0.450312395 Max(X)(127,123) =      0.225724329 
   --- SFit(Active Orbitals)

MACRO-ITERATION   3: 
   --- Inactive Energy E0 = -2869.03462208 Eh
CI-ITERATION   0: 
 -2879.998303927   0.000000000000 (    0.00)
 -2879.992319642   0.000000000000
 -2879.986201150   0.000000000000
 -2879.973440298   0.000000000000
 -2879.718342470   0.000000000000
   CI-PROBLEM SOLVED
   DENSITIES MADE
CI-ITERATION   0: 
 -2880.000403460   0.000000000000 (    0.10)
 -2879.997544293   0.000000000000
 -2879.995759485   0.000000000000
 -2879.974528884   0.000000000000
 -2879.932325270   0.000000000000
 -2879.932198235   0.000000000000
 -2879.928790049   0.000000000000
 -2879.928060079   0.000000000000
 -2879.926766554   0.000000000000
 -2879.926213839   0.000000000000
 -2879.921715825   0.000000000000
 -2879.921109492   0.000000000000
 -2879.918481965   0.000000000000
 -2879.914266119   0.000000000000
 -2879.912810362   0.000000000000
 -2879.910562687   0.000000000000
 -2879.903454096   0.000000000000
 -2879.899247677   0.000000000000
 -2879.891159104   0.000000000000
 -2879.889279312   0.000000000000
 -2879.833155792   0.000000000000
 -2879.817484188   0.000000000000
 -2879.815246924   0.000000000000
 -2879.802662829   0.000000000000
 -2879.777132618   0.000000000000
 -2879.760026422   0.000000000000
 -2879.758323744   0.000000000000
 -2879.738799801   0.000000000000
 -2879.729052174   0.000000000000
 -2879.692999326   0.000000000000
 -2879.661357182   0.000000000000
 -2879.643321834   0.000000000000
 -2879.639068052   0.000000000000
 -2879.634583621   0.000000000000
 -2879.626594699   0.000000000000
 -2879.619147094   0.000000000000
 -2879.617412486   0.000000000000
 -2879.610439444   0.000000000000
 -2879.597081505   0.000000000000
 -2879.581024478   0.000000000000
 -2879.578197378   0.000000000000
 -2879.542486854   0.000000000000
 -2879.533020159   0.000000000000
 -2879.514026271   0.000000000000
 -2879.509782302   0.000000000000
   CI-PROBLEM SOLVED
   DENSITIES MADE
   E(CAS)= -2879.858606348 Eh DE=   -3.589335e-02
   --- Energy gap subspaces: Ext-Act = 0.113   Act-Int = 0.054
   N(occ)=  1.20000 1.20000 1.20000 1.20000 1.20000
   ||g|| =     1.093853e+00 Max(G)=    3.643096e-01 Rot=129,123
   --- Orbital Update [SuperCI(PT)]
   --- Canonicalize Internal Space
   --- Canonicalize External Space
   --- SX_PT (Skipped TA=0 IT=0): ||X|| =      0.433934566 Max(X)(129,115) =      0.162678127 
   --- SFit(Active Orbitals)

MACRO-ITERATION   4: 
   --- Inactive Energy E0 = -2869.64719508 Eh
CI-ITERATION   0: 
 -2880.035386367   0.000000000000 (    0.38)
 -2880.030410461   0.000000000000
 -2880.022690266   0.000000000000
 -2880.006776657   0.000000000000
 -2879.942148206   0.000000000000
   CI-PROBLEM SOLVED
   DENSITIES MADE
CI-ITERATION   0: 
 -2880.036097276   0.000000000000 (    0.00)
 -2880.031767416   0.000000000000
 -2880.028453002   0.000000000000
 -2879.997455586   0.000000000000
 -2879.965668146   0.000000000000
 -2879.963839933   0.000000000000
 -2879.961107069   0.000000000000
 -2879.959849476   0.000000000000
 -2879.954966363   0.000000000000
 -2879.952846361   0.000000000000
 -2879.950047008   0.000000000000
 -2879.947869300   0.000000000000
 -2879.946837844   0.000000000000
 -2879.944438604   0.000000000000
 -2879.941576335   0.000000000000
 -2879.937182308   0.000000000000
 -2879.929799271   0.000000000000
 -2879.927567132   0.000000000000
 -2879.924419937   0.000000000000
 -2879.916486127   0.000000000000
 -2879.878725907   0.000000000000
 -2879.871963216   0.000000000000
 -2879.860265514   0.000000000000
 -2879.859576946   0.000000000000
 -2879.853392463   0.000000000000
 -2879.852129426   0.000000000000
 -2879.843076616   0.000000000000
 -2879.841769561   0.000000000000
 -2879.839279153   0.000000000000
 -2879.832827567   0.000000000000
 -2879.823196775   0.000000000000
 -2879.819002943   0.000000000000
 -2879.815793683   0.000000000000
 -2879.807041846   0.000000000000
 -2879.800098079   0.000000000000
 -2879.766224079   0.000000000000
 -2879.755709569   0.000000000000
 -2879.752743885   0.000000000000
 -2879.749114642   0.000000000000
 -2879.603919944   0.000000000000
 -2879.582804020   0.000000000000
 -2879.570034383   0.000000000000
 -2879.560763660   0.000000000000
 -2879.543947243   0.000000000000
 -2879.496510456   0.000000000000
   CI-PROBLEM SOLVED
   DENSITIES MADE
   E(CAS)= -2879.928165485 Eh DE=   -6.955914e-02
   --- Energy gap subspaces: Ext-Act = 0.081   Act-Int = 0.148
   N(occ)=  1.20000 1.20000 1.20000 1.20000 1.20000
   ||g|| =     3.587551e-01 Max(G)=    6.232598e-02 Rot=127,122
   --- Orbital Update [SuperCI(PT)]
   --- Canonicalize Internal Space
   --- Canonicalize External Space
   --- SX_PT (Skipped TA=0 IT=0): ||X|| =      0.166863001 Max(X)(127,123) =     -0.089996501 
   --- SFit(Active Orbitals)

MACRO-ITERATION   5: 
   --- Inactive Energy E0 = -2869.32941905 Eh
CI-ITERATION   0: 
 -2880.056195105   0.000000000000 (    0.00)
 -2880.045591673   0.000000000000
 -2880.040541852   0.000000000000
 -2880.024652366   0.000000000000
 -2879.961518188   0.000000000000
   CI-PROBLEM SOLVED
   DENSITIES MADE
CI-ITERATION   0: 
 -2880.050637327   0.000000000000 (    0.05)
 -2880.045865995   0.000000000000
 -2880.044655655   0.000000000000
 -2880.013307232   0.000000000000
 -2879.979063241   0.000000000000
 -2879.978465668   0.000000000000
 -2879.974250096   0.000000000000
 -2879.973571602   0.000000000000
 -2879.971630538   0.000000000000
 -2879.969276370   0.000000000000
 -2879.967364704   0.000000000000
 -2879.965604670   0.000000000000
 -2879.961976044   0.000000000000
 -2879.959283857   0.000000000000
 -2879.958281963   0.000000000000
 -2879.954552212   0.000000000000
 -2879.945987554   0.000000000000
 -2879.943399092   0.000000000000
 -2879.934582230   0.000000000000
 -2879.931082577   0.000000000000
 -2879.887883353   0.000000000000
 -2879.880701794   0.000000000000
 -2879.874467250   0.000000000000
 -2879.874059738   0.000000000000
 -2879.869341870   0.000000000000
 -2879.867112271   0.000000000000
 -2879.858213692   0.000000000000
 -2879.853357743   0.000000000000
 -2879.849957035   0.000000000000
 -2879.846118418   0.000000000000
 -2879.839488166   0.000000000000
 -2879.834499863   0.000000000000
 -2879.830645767   0.000000000000
 -2879.821545665   0.000000000000
 -2879.813471334   0.000000000000
 -2879.783222356   0.000000000000
 -2879.772579689   0.000000000000
 -2879.765855507   0.000000000000
 -2879.762606551   0.000000000000
 -2879.624085310   0.000000000000
 -2879.610520712   0.000000000000
 -2879.609147684   0.000000000000
 -2879.592312915   0.000000000000
 -2879.577151099   0.000000000000
 -2879.544987619   0.000000000000
   CI-PROBLEM SOLVED
   DENSITIES MADE
   E(CAS)= -2879.945807385 Eh DE=   -1.764190e-02
   --- Energy gap subspaces: Ext-Act = 0.088   Act-Int = 0.154
   N(occ)=  1.20000 1.20000 1.20000 1.20000 1.20000
   ||g|| =     1.379933e-01 Max(G)=    5.767552e-02 Rot=129,123
   --- Orbital Update [SuperCI(PT)]
   --- Canonicalize Internal Space
   --- Canonicalize External Space
   --- SX_PT (Skipped TA=0 IT=0): ||X|| =      0.134950650 Max(X)(129,128) =     -0.068964467 
   --- SFit(Active Orbitals)

MACRO-ITERATION   6: 
   --- Inactive Energy E0 = -2868.87727639 Eh
CI-ITERATION   0: 
 -2880.068092538   0.000000000000 (    0.04)
 -2880.053960979   0.000000000000
 -2880.044783309   0.000000000000
 -2880.034935920   0.000000000000
 -2879.986687924   0.000000000000
   CI-PROBLEM SOLVED
   DENSITIES MADE
CI-ITERATION   0: 
 -2880.054051622   0.000000000000 (    0.00)
 -2880.048292720   0.000000000000
 -2880.041452775   0.000000000000
 -2880.013851962   0.000000000000
 -2879.986617661   0.000000000000
 -2879.985629414   0.000000000000
 -2879.977325063   0.000000000000
 -2879.976708775   0.000000000000
 -2879.975253067   0.000000000000
 -2879.974862630   0.000000000000
 -2879.973869208   0.000000000000
 -2879.971724356   0.000000000000
 -2879.966358330   0.000000000000
 -2879.965576134   0.000000000000
 -2879.963444375   0.000000000000
 -2879.958804041   0.000000000000
 -2879.953650936   0.000000000000
 -2879.949918421   0.000000000000
 -2879.936873497   0.000000000000
 -2879.936630508   0.000000000000
 -2879.903917418   0.000000000000
 -2879.900015957   0.000000000000
 -2879.898545202   0.000000000000
 -2879.897156771   0.000000000000
 -2879.895088041   0.000000000000
 -2879.888504843   0.000000000000
 -2879.885189440   0.000000000000
 -2879.876619967   0.000000000000
 -2879.869714183   0.000000000000
 -2879.869334324   0.000000000000
 -2879.856260447   0.000000000000
 -2879.853405328   0.000000000000
 -2879.835882740   0.000000000000
 -2879.834613640   0.000000000000
 -2879.826753608   0.000000000000
 -2879.808952387   0.000000000000
 -2879.794413020   0.000000000000
 -2879.789368338   0.000000000000
 -2879.785445672   0.000000000000
 -2879.655659222   0.000000000000
 -2879.652687716   0.000000000000
 -2879.644095053   0.000000000000
 -2879.642404655   0.000000000000
 -2879.604590216   0.000000000000
 -2879.595921667   0.000000000000
   CI-PROBLEM SOLVED
   DENSITIES MADE
   E(CAS)= -2879.959684238 Eh DE=   -1.387685e-02
   --- Energy gap subspaces: Ext-Act = 0.094   Act-Int = 0.160
   N(occ)=  1.20000 1.20000 1.20000 1.20000 1.20000
   ||g|| =     1.854793e-01 Max(G)=    3.614216e-02 Rot=124,123
   --- Orbital Update [SuperCI(PT)]
   --- Canonicalize Internal Space
   --- Canonicalize External Space
   --- SX_PT (Skipped TA=0 IT=0): ||X|| =      0.126767448 Max(X)(129,128) =     -0.062062937 
   --- SFit(Active Orbitals)

MACRO-ITERATION   7: 
   --- Inactive Energy E0 = -2868.62003233 Eh
CI-ITERATION   0: 
 -2880.071828639   0.000000000000 (    0.00)
 -2880.056178499   0.000000000000
 -2880.046158396   0.000000000000
 -2880.039894963   0.000000000000
 -2880.001072378   0.000000000000
   CI-PROBLEM SOLVED
   DENSITIES MADE
CI-ITERATION   0: 
 -2880.049099015   0.000000000000 (    0.77)
 -2880.043770653   0.000000000000
 -2880.035572434   0.000000000000
 -2880.009456948   0.000000000000
 -2879.988391859   0.000000000000
 -2879.987531132   0.000000000000
 -2879.977988235   0.000000000000
 -2879.977669067   0.000000000000
 -2879.975806843   0.000000000000
 -2879.975206982   0.000000000000
 -2879.974441098   0.000000000000
 -2879.972113968   0.000000000000
 -2879.968409766   0.000000000000
 -2879.966696336   0.000000000000
 -2879.964825710   0.000000000000
 -2879.960244106   0.000000000000
 -2879.956932621   0.000000000000
 -2879.952492547   0.000000000000
 -2879.939814884   0.000000000000
 -2879.939273739   0.000000000000
 -2879.917883666   0.000000000000
 -2879.917207113   0.000000000000
 -2879.914242125   0.000000000000
 -2879.912992211   0.000000000000
 -2879.908210252   0.000000000000
 -2879.904719504   0.000000000000
 -2879.902866422   0.000000000000
 -2879.892138041   0.000000000000
 -2879.886607927   0.000000000000
 -2879.884755795   0.000000000000
 -2879.868941600   0.000000000000
 -2879.862391640   0.000000000000
 -2879.843263835   0.000000000000
 -2879.837337595   0.000000000000
 -2879.831370097   0.000000000000
 -2879.824687038   0.000000000000
 -2879.807372500   0.000000000000
 -2879.806467918   0.000000000000
 -2879.800616155   0.000000000000
 -2879.700953912   0.000000000000
 -2879.694258778   0.000000000000
 -2879.690888002   0.000000000000
 -2879.686674064   0.000000000000
 -2879.646229164   0.000000000000
 -2879.643064203   0.000000000000
   CI-PROBLEM SOLVED
   DENSITIES MADE
   E(CAS)= -2879.968200815 Eh DE=   -8.516577e-03
   --- Energy gap subspaces: Ext-Act = 0.104   Act-Int = 0.150
   N(occ)=  1.20000 1.20000 1.20000 1.20000 1.20000
   ||g|| =     1.052139e-01 Max(G)=    4.362657e-02 Rot=124,123
   --- Orbital Update [SuperCI(PT)]
   --- Canonicalize Internal Space
   --- Canonicalize External Space
   --- SX_PT (Skipped TA=0 IT=0): ||X|| =      0.132331089 Max(X)(124,119) =      0.068689049 
   --- SFit(Active Orbitals)

MACRO-ITERATION   8: 
   --- Inactive Energy E0 = -2868.92004591 Eh
CI-ITERATION   0: 
 -2880.069572771   0.000000000000 (    0.00)
 -2880.055931777   0.000000000000
 -2880.045463090   0.000000000000
 -2880.035272913   0.000000000000
 -2879.986478224   0.000000000000
   CI-PROBLEM SOLVED
   DENSITIES MADE
CI-ITERATION   0: 
 -2880.056735088   0.000000000000 (    2.29)
 -2880.050235165   0.000000000000
 -2880.042120639   0.000000000000
 -2880.015084934   0.000000000000
 -2879.988549873   0.000000000000
 -2879.987254389   0.000000000000
 -2879.979193057   0.000000000000
 -2879.978833836   0.000000000000
 -2879.977074973   0.000000000000
 -2879.976422051   0.000000000000
 -2879.975409429   0.000000000000
 -2879.974308857   0.000000000000
 -2879.967616176   0.000000000000
 -2879.967594364   0.000000000000
 -2879.964934183   0.000000000000
 -2879.960193363   0.000000000000
 -2879.954742305   0.000000000000
 -2879.951374300   0.000000000000
 -2879.938018209   0.000000000000
 -2879.937507080   0.000000000000
 -2879.901735770   0.000000000000
 -2879.900387382   0.000000000000
 -2879.897592160   0.000000000000
 -2879.896265340   0.000000000000
 -2879.893466873   0.000000000000
 -2879.888624651   0.000000000000
 -2879.886558931   0.000000000000
 -2879.875848774   0.000000000000
 -2879.870225706   0.000000000000
 -2879.869025424   0.000000000000
 -2879.856729613   0.000000000000
 -2879.854322962   0.000000000000
 -2879.836984459   0.000000000000
 -2879.835785057   0.000000000000
 -2879.827984575   0.000000000000
 -2879.809034288   0.000000000000
 -2879.793446422   0.000000000000
 -2879.788854168   0.000000000000
 -2879.783930248   0.000000000000
 -2879.661546372   0.000000000000
 -2879.653547091   0.000000000000
 -2879.650086026   0.000000000000
 -2879.645524370   0.000000000000
 -2879.605686620   0.000000000000
 -2879.603302033   0.000000000000
   CI-PROBLEM SOLVED
   DENSITIES MADE
   E(CAS)= -2879.960712962 Eh DE=    7.487853e-03
   --- Energy gap subspaces: Ext-Act = 0.095   Act-Int = 0.166
   N(occ)=  1.20000 1.20000 1.20000 1.20000 1.20000
   ||g|| =     1.807828e-01 Max(G)=    3.424614e-02 Rot=124,123
   --- Orbital Update [SuperCI(PT)]
   --- Canonicalize Internal Space
   --- Canonicalize External Space
   --- SX_PT (Skipped TA=0 IT=0): ||X|| =      0.107721418 Max(X)(124,118) =     -0.052743837 
   --- SFit(Active Orbitals)

MACRO-ITERATION   9: 
   --- Inactive Energy E0 = -2869.45502438 Eh
CI-ITERATION   0: 
 -2880.070374348   0.000000000000 (    0.00)
 -2880.057035831   0.000000000000
 -2880.046387840   0.000000000000
 -2880.030660568   0.000000000000
 -2879.958911619   0.000000000000
   CI-PROBLEM SOLVED
   DENSITIES MADE
CI-ITERATION   0: 
 -2880.072969647   0.000000000000 (    0.00)
 -2880.065000383   0.000000000000
 -2880.056936401   0.000000000000
 -2880.027274427   0.000000000000
 -2879.992988183   0.000000000000
 -2879.990930897   0.000000000000
 -2879.984104941   0.000000000000
 -2879.983719599   0.000000000000
 -2879.982169139   0.000000000000
 -2879.980806925   0.000000000000
 -2879.980490151   0.000000000000
 -2879.979798868   0.000000000000
 -2879.973597040   0.000000000000
 -2879.969418055   0.000000000000
 -2879.968346343   0.000000000000
 -2879.962609591   0.000000000000
 -2879.955506549   0.000000000000
 -2879.953479933   0.000000000000
 -2879.940232615   0.000000000000
 -2879.937713128   0.000000000000
 -2879.885601680   0.000000000000
 -2879.876853548   0.000000000000
 -2879.870782998   0.000000000000
 -2879.869216718   0.000000000000
 -2879.868464623   0.000000000000
 -2879.865019786   0.000000000000
 -2879.861776312   0.000000000000
 -2879.852025134   0.000000000000
 -2879.847892227   0.000000000000
 -2879.844161031   0.000000000000
 -2879.842249771   0.000000000000
 -2879.840157760   0.000000000000
 -2879.834651614   0.000000000000
 -2879.817637554   0.000000000000
 -2879.810959505   0.000000000000
 -2879.783213424   0.000000000000
 -2879.766928911   0.000000000000
 -2879.760917565   0.000000000000
 -2879.754661845   0.000000000000
 -2879.576879541   0.000000000000
 -2879.568374037   0.000000000000
 -2879.559868294   0.000000000000
 -2879.556592589   0.000000000000
 -2879.517596707   0.000000000000
 -2879.515873710   0.000000000000
   CI-PROBLEM SOLVED
   DENSITIES MADE
   E(CAS)= -2879.948630906 Eh DE=    1.208206e-02
   --- Energy gap subspaces: Ext-Act = 0.077   Act-Int = 0.195
   N(occ)=  1.20000 1.20000 1.20000 1.20000 1.20000
   ||g|| =     1.557172e-01 Max(G)=   -2.479883e-02 Rot=177,123
   --- Orbital Update [SuperCI(PT)]
   --- Canonicalize Internal Space
   --- Canonicalize External Space
   --- SX_PT (Skipped TA=0 IT=0): ||X|| =      0.052224059 Max(X)(128,118) =     -0.016022465 
   --- SFit(Active Orbitals)

MACRO-ITERATION  10: 
   --- Inactive Energy E0 = -2869.53945694 Eh
CI-ITERATION   0: 
 -2880.069494491   0.000000000000 (    0.00)
 -2880.055285425   0.000000000000
 -2880.045257579   0.000000000000
 -2880.030471898   0.000000000000
 -2879.961584614   0.000000000000
   CI-PROBLEM SOLVED
   DENSITIES MADE
CI-ITERATION   0: 
 -2880.072489747   0.000000000000 (    0.05)
 -2880.064559850   0.000000000000
 -2880.056931969   0.000000000000
 -2880.026310713   0.000000000000
 -2879.992063207   0.000000000000
 -2879.990166047   0.000000000000
 -2879.983333109   0.000000000000
 -2879.983115934   0.000000000000
 -2879.981552490   0.000000000000
 -2879.980154633   0.000000000000
 -2879.979876432   0.000000000000
 -2879.978767325   0.000000000000
 -2879.973040768   0.000000000000
 -2879.969370990   0.000000000000
 -2879.967594966   0.000000000000
 -2879.961843409   0.000000000000
 -2879.955380742   0.000000000000
 -2879.953092001   0.000000000000
 -2879.939884922   0.000000000000
 -2879.937388490   0.000000000000
 -2879.887427146   0.000000000000
 -2879.880291624   0.000000000000
 -2879.875257505   0.000000000000
 -2879.873881870   0.000000000000
 -2879.873281515   0.000000000000
 -2879.869113827   0.000000000000
 -2879.865478682   0.000000000000
 -2879.855503686   0.000000000000
 -2879.850611912   0.000000000000
 -2879.845606800   0.000000000000
 -2879.844761185   0.000000000000
 -2879.844203393   0.000000000000
 -2879.839613610   0.000000000000
 -2879.820130389   0.000000000000
 -2879.814601631   0.000000000000
 -2879.787632515   0.000000000000
 -2879.772074279   0.000000000000
 -2879.765958349   0.000000000000
 -2879.759527870   0.000000000000
 -2879.566735004   0.000000000000
 -2879.558803925   0.000000000000
 -2879.547614956   0.000000000000
 -2879.545021642   0.000000000000
 -2879.508234260   0.000000000000
 -2879.503563109   0.000000000000
   CI-PROBLEM SOLVED
   DENSITIES MADE
   E(CAS)= -2879.948452161 Eh DE=    1.787450e-04
   --- Energy gap subspaces: Ext-Act = 0.072   Act-Int = 0.196
   N(occ)=  1.20000 1.20000 1.20000 1.20000 1.20000
   ||g|| =     6.799212e-02 Max(G)=   -1.246580e-02 Rot=177,123
   --- Orbital Update [SuperCI(PT)]
   --- Canonicalize Internal Space
   --- Canonicalize External Space
   --- SX_PT (Skipped TA=0 IT=0): ||X|| =      0.031073487 Max(X)(129,128) =      0.011133015 
   --- SFit(Active Orbitals)

MACRO-ITERATION  11: 
   --- Inactive Energy E0 = -2869.55354192 Eh
CI-ITERATION   0: 
 -2880.069061093   0.000000000000 (    0.00)
 -2880.054364917   0.000000000000
 -2880.044246809   0.000000000000
 -2880.030374671   0.000000000000
 -2879.964715043   0.000000000000
   CI-PROBLEM SOLVED
   DENSITIES MADE
CI-ITERATION   0: 
 -2880.071571918   0.000000000000 (    0.00)
 -2880.063677563   0.000000000000
 -2880.056062606   0.000000000000
 -2880.025216697   0.000000000000
 -2879.991376868   0.000000000000
 -2879.989612544   0.000000000000
 -2879.982431831   0.000000000000
 -2879.982291649   0.000000000000
 -2879.980782440   0.000000000000
 -2879.979373455   0.000000000000
 -2879.978965406   0.000000000000
 -2879.977843082   0.000000000000
 -2879.972282266   0.000000000000
 -2879.968850102   0.000000000000
 -2879.966979771   0.000000000000
 -2879.961110968   0.000000000000
 -2879.955219371   0.000000000000
 -2879.952621031   0.000000000000
 -2879.939155390   0.000000000000
 -2879.936879534   0.000000000000
 -2879.888975816   0.000000000000
 -2879.883694019   0.000000000000
 -2879.879157523   0.000000000000
 -2879.877857219   0.000000000000
 -2879.877318465   0.000000000000
 -2879.873074109   0.000000000000
 -2879.868934440   0.000000000000
 -2879.859236683   0.000000000000
 -2879.852356121   0.000000000000
 -2879.849138065   0.000000000000
 -2879.847768397   0.000000000000
 -2879.845483520   0.000000000000
 -2879.842450925   0.000000000000
 -2879.823011438   0.000000000000
 -2879.817487965   0.000000000000
 -2879.791560432   0.000000000000
 -2879.776288612   0.000000000000
 -2879.770246275   0.000000000000
 -2879.763965026   0.000000000000
 -2879.562385679   0.000000000000
 -2879.554358038   0.000000000000
 -2879.542607353   0.000000000000
 -2879.540017775   0.000000000000
 -2879.503851178   0.000000000000
 -2879.498583615   0.000000000000
   CI-PROBLEM SOLVED
   DENSITIES MADE
   E(CAS)= -2879.948744177 Eh DE=   -2.920165e-04
   --- Energy gap subspaces: Ext-Act = 0.071   Act-Int = 0.195
   N(occ)=  1.20000 1.20000 1.20000 1.20000 1.20000
   ||g|| =     3.603034e-02 Max(G)=   -7.435330e-03 Rot=177,123
   --- Orbital Update [SuperCI(PT)]
   --- Canonicalize Internal Space
   --- Canonicalize External Space
   --- SX_PT (Skipped TA=0 IT=0): ||X|| =      0.024129615 Max(X)(129,128) =      0.014397653 
   --- SFit(Active Orbitals)

MACRO-ITERATION  12: 
   --- Inactive Energy E0 = -2869.58136369 Eh
CI-ITERATION   0: 
 -2880.068888811   0.000000000000 (    0.38)
 -2880.052908124   0.000000000000
 -2880.042687690   0.000000000000
 -2880.030838681   0.000000000000
 -2879.970360155   0.000000000000
   CI-PROBLEM SOLVED
   DENSITIES MADE
CI-ITERATION   0: 
 -2880.070405110   0.000000000000 (    0.04)
 -2880.062475419   0.000000000000
 -2880.055057194   0.000000000000
 -2880.023694505   0.000000000000
 -2879.990323319   0.000000000000
 -2879.988799407   0.000000000000
 -2879.981028062   0.000000000000
 -2879.980748142   0.000000000000
 -2879.979552105   0.000000000000
[...]
      f+3     :     0.000001
      f-3     :     0.000002
  6 Aus       :     0.059318  s :     0.059318
      pz      :     0.012663  p :     0.027248
      px      :     0.011430
      py      :     0.003154
      dz2     :     0.001025  d :     0.008264
      dxz     :     0.001691
      dyz     :     0.001608
      dx2y2   :     0.002591
      dxy     :     0.001349
      f0      :     0.000023  f :     0.000171
      f+1     :     0.000001
      f-1     :     0.000019
      f+2     :     0.000041
      f-2     :     0.000015
      f+3     :     0.000021
      f-3     :     0.000051
  7 Aus       :     0.013657  s :     0.013657
      pz      :     0.006927  p :     0.012026
      px      :     0.002372
      py      :     0.002727
      dz2     :     0.002453  d :     0.011692
      dxz     :     0.002947
      dyz     :     0.002762
      dx2y2   :     0.001021
      dxy     :     0.002510
      f0      :     0.000016  f :     0.000156
      f+1     :     0.000005
      f-1     :     0.000043
      f+2     :     0.000048
      f-2     :     0.000020
      f+3     :     0.000010
      f-3     :     0.000013
  8 Aus       :     0.000939  s :     0.000939
      pz      :     0.000797  p :     0.029819
      px      :     0.009808
      py      :     0.019214
      dz2     :     0.001401  d :     0.010275
      dxz     :     0.003692
      dyz     :     0.001798
      dx2y2   :     0.000786
      dxy     :     0.002597
      f0      :     0.000060  f :     0.000202
      f+1     :     0.000034
      f-1     :     0.000066
      f+2     :     0.000020
      f-2     :     0.000018
      f+3     :     0.000001
      f-3     :     0.000003
  9 Aus       :     0.054235  s :     0.054235
      pz      :     0.010346  p :     0.023186
      px      :     0.010403
      py      :     0.002436
      dz2     :     0.000545  d :     0.007040
      dxz     :     0.000603
      dyz     :     0.002242
      dx2y2   :     0.001926
      dxy     :     0.001724
      f0      :     0.000024  f :     0.000195
      f+1     :     0.000001
      f-1     :     0.000016
      f+2     :     0.000050
      f-2     :     0.000033
      f+3     :     0.000027
      f-3     :     0.000043
 10 Aus       :     0.001360  s :     0.001360
      pz      :     0.015880  p :     0.029772
      px      :     0.002073
      py      :     0.011819
      dz2     :     0.000418  d :     0.010460
      dxz     :     0.005021
      dyz     :     0.002237
      dx2y2   :     0.001332
      dxy     :     0.001453
      f0      :     0.000014  f :     0.000203
      f+1     :     0.000031
      f-1     :     0.000011
      f+2     :     0.000020
      f-2     :     0.000026
      f+3     :     0.000046
      f-3     :     0.000056
 11 Aus       :     0.012584  s :     0.012584
      pz      :     0.001944  p :     0.011325
      px      :     0.007371
      py      :     0.002010
      dz2     :     0.000813  d :     0.011510
      dxz     :     0.002665
      dyz     :     0.003044
      dx2y2   :     0.003040
      dxy     :     0.001948
      f0      :     0.000009  f :     0.000153
      f+1     :     0.000021
      f-1     :     0.000009
      f+2     :     0.000015
      f-2     :     0.000020
      f+3     :     0.000023
      f-3     :     0.000056
 12 Fes       :     0.001289  s :     0.001289
      pz      :     0.000518  p :     0.001515
      px      :     0.000609
      py      :     0.000387
      dz2     :     0.235792  d :     2.356077
      dxz     :     0.573324
      dyz     :     0.543887
      dx2y2   :     0.538203
      dxy     :     0.464871
      f0      :     0.000000  f :     0.000001
      f+1     :     0.000000
      f-1     :     0.000000
      f+2     :     0.000000
      f-2     :     0.000000
      f+3     :     0.000000
      f-3     :     0.000000


                      *****************************
                      * MAYER POPULATION ANALYSIS *
                      *****************************

  NA   - Mulliken gross atomic population
  ZA   - Total nuclear charge
  QA   - Mulliken gross atomic charge
  VA   - Mayer's total valence
  BVA  - Mayer's bonded valence
  FA   - Mayer's free valence

  ATOM       NA         ZA         QA         VA         BVA        FA
  0 Au    18.6371    19.0000     0.3629     1.3479     1.3105     0.0373
  1 Au    18.6067    19.0000     0.3933     1.2711     1.2507     0.0205
  2 Au    18.9346    19.0000     0.0654     1.3893     1.3183     0.0710
  3 Au    18.9395    19.0000     0.0605     1.3856     1.3198     0.0659
  4 Au    18.6065    19.0000     0.3935     1.2753     1.2554     0.0198
  5 Au    18.6051    19.0000     0.3949     1.1173     1.0998     0.0175
  6 Au    18.8627    19.0000     0.1373     1.2786     1.1314     0.1473
  7 Au    19.1363    19.0000    -0.1363     1.6491     1.6156     0.0335
  8 Au    18.5301    19.0000     0.4699     1.1622     1.1470     0.0152
  9 Au    19.1708    19.0000    -0.1708     1.7946     1.6223     0.1724
 10 Au    18.5315    19.0000     0.4685     1.1670     1.1511     0.0159
 11 Au    19.1377    19.0000    -0.1377     1.6436     1.6126     0.0310
 12 Fe    28.3012    26.0000    -2.3012     7.5756     3.8099     3.7657

  Mayer bond orders larger than 0.100000
B(  0-Au,  1-Au) :   0.1268 B(  0-Au,  2-Au) :   0.1883 B(  0-Au,  3-Au) :   0.1860 
B(  0-Au,  4-Au) :   0.1261 B(  0-Au,  9-Au) :   0.2587 B(  0-Au, 12-Fe) :   0.1836 
B(  1-Au,  2-Au) :   0.2002 B(  1-Au, 10-Au) :   0.1465 B(  1-Au, 11-Au) :   0.1795 
B(  1-Au, 12-Fe) :   0.3745 B(  2-Au,  3-Au) :   0.1019 B(  2-Au,  6-Au) :   0.1825 
B(  2-Au, 12-Fe) :   0.3973 B(  3-Au,  4-Au) :   0.2047 B(  3-Au,  6-Au) :   0.1792 
B(  3-Au, 12-Fe) :   0.3970 B(  4-Au,  7-Au) :   0.1750 B(  4-Au,  8-Au) :   0.1463 
B(  4-Au,  9-Au) :   0.1019 B(  4-Au, 12-Fe) :   0.3742 B(  5-Au,  7-Au) :   0.3171 
B(  5-Au,  9-Au) :   0.3245 B(  5-Au, 11-Au) :   0.3168 B(  6-Au,  8-Au) :   0.1243 
B(  6-Au, 10-Au) :   0.1303 B(  6-Au, 12-Fe) :   0.3415 B(  7-Au,  8-Au) :   0.3139 
B(  7-Au,  9-Au) :   0.1908 B(  7-Au, 11-Au) :   0.1101 B(  7-Au, 12-Fe) :   0.3702 
B(  8-Au, 12-Fe) :   0.2955 B(  9-Au, 11-Au) :   0.1889 B(  9-Au, 12-Fe) :   0.3527 
B( 10-Au, 11-Au) :   0.3114 B( 10-Au, 12-Fe) :   0.2970 B( 11-Au, 12-Fe) :   0.3673 



-------------------------------------------------------------
 Forming the transition density       ... done in 11.490287 sec
-------------------------------------------------------------



==========================================
CASSCF UV, CD spectra and dipole moments
==========================================
-------------------
ABSORPTION SPECTRUM
-------------------

Center of mass           = ( 17.4248, 13.0847, 16.1633)
Nuclear contribution to the dipole moment =    -1.482279,   12.144387,   -4.076189 au

Calculating the Dipole integrals                  ... done
Transforming integrals                            ... done
Calculating the Linear Momentum integrals         ... done
Transforming integrals                            ... done
Calculating the Angular Momentum integrals        ... done
Transforming integrals                            ... done

------------------------------------------------------------------------------------------
                                ABSORPTION SPECTRUM
------------------------------------------------------------------------------------------
  States           Energy   Wavelength   fosc          T2        TX         TY        TZ  
                   (cm-1)     (nm)                   (D**2)      (D)        (D)       (D) 
------------------------------------------------------------------------------------------
  0( 1)-> 1( 1) 3    1781.2   5614.1   0.000002978   0.00355  -0.00392   0.05682  -0.01751
  0( 1)-> 2( 1) 3    3489.7   2865.6   0.000000276   0.00017  -0.00700   0.00779   0.00762
  0( 1)-> 3( 1) 3   10447.5    957.2   0.000023699   0.00482   0.04904   0.02098   0.04441
  0( 1)-> 4( 1) 3   17801.5    561.8   0.000000354   0.00004   0.00045   0.00381  -0.00524
  0( 1)-> 5( 1) 3   18221.8    548.8   0.000064462   0.00751  -0.04156   0.05156  -0.05591
  0( 1)-> 6( 1) 3   19668.9    508.4   0.000153232   0.01654   0.06236  -0.08138   0.07766
  0( 1)-> 7( 1) 3   19723.3    507.0   0.000001496   0.00016  -0.00750   0.00042  -0.01023
  0( 1)-> 8( 1) 3   20017.7    499.6   0.000492015   0.05219   0.01136  -0.22233   0.05132
  0( 1)-> 9( 1) 3   20434.9    489.4   0.000000456   0.00005  -0.00334   0.00424  -0.00428
  0( 1)->10( 1) 3   20565.0    486.3   0.000051336   0.00530  -0.00777  -0.07216   0.00573
  0( 1)->11( 1) 3   20631.4    484.7   0.000005370   0.00055   0.00049   0.02305  -0.00460
  0( 1)->12( 1) 3   21943.7    455.7   0.000000969   0.00009   0.00081  -0.00872   0.00412
  0( 1)->13( 1) 3   22827.5    438.1   0.000086140   0.00801  -0.04427   0.05254  -0.05738
  0( 1)->14( 1) 3   23087.6    433.1   0.000000293   0.00003  -0.00019  -0.00112   0.00507
  0( 1)->15( 1) 3   24432.8    409.3   0.000000108   0.00001  -0.00127  -0.00082  -0.00266
  0( 1)->16( 1) 3   25714.4    388.9   0.000063603   0.00525   0.04532  -0.02788   0.04921
  0( 1)->17( 1) 3   26296.0    380.3   0.000155763   0.01258   0.03698   0.10466   0.01601
  0( 1)->18( 1) 3   29237.5    342.0   0.000000622   0.00005   0.00079   0.00626  -0.00231
  0( 1)->19( 1) 3   29731.2    336.3   0.000087192   0.00623  -0.01125   0.07387  -0.02538
  0( 1)->20( 1) 3   40337.2    247.9   0.000004694   0.00025   0.00093  -0.01536  -0.00321
  0( 1)->21( 1) 3   41309.0    242.1   0.001889577   0.09713   0.10596   0.28703   0.05935
  0( 1)->22( 1) 3   42351.2    236.1   0.003075721   0.15422   0.02070  -0.37941   0.09917
  0( 1)->23( 1) 3   42755.3    233.9   0.001669487   0.08292  -0.16134   0.13790  -0.19460
  0( 1)->24( 1) 3   42811.8    233.6   0.000079409   0.00394   0.03104  -0.02791   0.04687
  0( 1)->25( 1) 3   43712.9    228.8   0.001548647   0.07523   0.19494  -0.00310   0.19293
  0( 1)->26( 1) 3   44425.4    225.1   0.000002358   0.00011   0.00383   0.00989  -0.00043
  0( 1)->27( 1) 3   46749.5    213.9   0.001175758   0.05341  -0.16440  -0.01434  -0.16179
  0( 1)->28( 1) 3   48240.0    207.3   0.000000315   0.00001  -0.00073  -0.00339   0.00136
  0( 1)->29( 1) 3   48993.7    204.1   0.000803157   0.03481   0.12936   0.03737   0.12915
  0( 1)->30( 1) 3   49174.1    203.4   0.000040037   0.00173  -0.02933  -0.01049  -0.02755
  0( 1)->31( 1) 3   50019.5    199.9   0.002009426   0.08531   0.07956   0.27977   0.02659
  0( 1)->32( 1) 3   50077.5    199.7   0.000395587   0.01677   0.03263   0.12490   0.01052
  0( 1)->33( 1) 3   54784.9    182.5   0.000270624   0.01049   0.07340   0.00082   0.07142
  0( 1)->34( 1) 3   56024.0    178.5   0.000006346   0.00024   0.00892   0.00235   0.01247
  0( 1)->35( 1) 3   61650.6    162.2   0.000000303   0.00001  -0.00235   0.00066  -0.00212
  0( 1)->36( 1) 3   65028.3    153.8   0.000000815   0.00003   0.00173  -0.00485   0.00024
  0( 1)->37( 1) 3   66232.3    151.0   0.001063791   0.03411   0.07502  -0.13546   0.10065
  0( 1)->38( 1) 3   67685.8    147.7   0.000953911   0.02993  -0.06121  -0.15828  -0.03357
  0( 1)->39( 1) 3  112529.5     88.9   0.012760377   0.24080  -0.07890   0.45611  -0.16289
  0( 1)->40( 1) 3  114669.6     87.2   0.000001526   0.00003   0.00477   0.00153   0.00179
  0( 1)->41( 1) 3  117300.5     85.3   0.002593776   0.04696   0.11768  -0.12192   0.13506
  0( 1)->42( 1) 3  118021.2     84.7   0.000005021   0.00009  -0.00783   0.00373  -0.00388
  0( 1)->43( 1) 3  125818.3     79.5   0.000049856   0.00084  -0.00318  -0.02815   0.00625
  0( 1)->44( 1) 3  126958.8     78.8   0.003666621   0.06133   0.00143  -0.24288   0.04832
------------------------------------------------------------------------------------------



------------------------------------------------------------------------------
                             CD SPECTRUM
------------------------------------------------------------------------------
      States        Energy   Wavelength   R*T        RX        RY        RZ   
                    (cm-1)      (nm)   (1e40*sgs)   (au)      (au)      (au)  
------------------------------------------------------------------------------
  0( 1)-> 1( 1) 3    1781.2   5614.1    -0.74124  -0.51188   0.07636   0.59035
  0( 1)-> 2( 1) 3    3489.7   2865.6     0.57270  -0.48531   0.45362  -0.50475
  0( 1)-> 3( 1) 3   10447.5    957.2     0.11470  -0.12905   0.03677   0.13906
  0( 1)-> 4( 1) 3   17801.5    561.8    -0.01846  -0.01068  -0.03388  -0.00653
  0( 1)-> 5( 1) 3   18221.8    548.8     0.01914   0.05336  -0.01187  -0.05246
  0( 1)-> 6( 1) 3   19668.9    508.4     0.04217  -0.06129   0.00702   0.05950
  0( 1)-> 7( 1) 3   19723.3    507.0     0.01879  -0.00430  -0.02090  -0.00760
  0( 1)-> 8( 1) 3   20017.7    499.6     0.02444  -0.07488   0.01308   0.07579
  0( 1)-> 9( 1) 3   20434.9    489.4    -0.01310   0.00485  -0.01000   0.00281
  0( 1)->10( 1) 3   20565.0    486.3    -0.01299  -0.02398   0.00526   0.02144
  0( 1)->11( 1) 3   20631.4    484.7     0.00881   0.00342  -0.00038  -0.01189
  0( 1)->12( 1) 3   21943.7    455.7    -0.01779   0.00542   0.01527   0.00797
  0( 1)->13( 1) 3   22827.5    438.1    -0.00312   0.02827  -0.00506  -0.02614
  0( 1)->14( 1) 3   23087.6    433.1     0.00429   0.01161   0.01816   0.00902
  0( 1)->15( 1) 3   24432.8    409.3     0.00734  -0.00972  -0.01514  -0.00557
  0( 1)->16( 1) 3   25714.4    388.9     0.00503   0.00506  -0.00230  -0.00541
  0( 1)->17( 1) 3   26296.0    380.3    -0.02928   0.01996  -0.00545  -0.02032
  0( 1)->18( 1) 3   29237.5    342.0    -0.00368  -0.00240  -0.00373  -0.00234
  0( 1)->19( 1) 3   29731.2    336.3    -0.00719   0.01740  -0.00384  -0.01735
  0( 1)->20( 1) 3   40337.2    247.9     0.10550  -0.01640  -0.03713  -0.00430
  0( 1)->21( 1) 3   41309.0    242.1    -0.06128  -0.01419   0.00136   0.01320
  0( 1)->22( 1) 3   42351.2    236.1    -0.02254  -0.07393   0.01552   0.07357
  0( 1)->23( 1) 3   42755.3    233.9     0.09530   0.06078  -0.00413  -0.05596
  0( 1)->24( 1) 3   42811.8    233.6    -0.07890   0.00415   0.04744   0.01642
  0( 1)->25( 1) 3   43712.9    228.8     0.00423  -0.00549  -0.00034   0.00566
  0( 1)->26( 1) 3   44425.4    225.1     0.00006   0.00020  -0.00018  -0.00299
  0( 1)->27( 1) 3   46749.5    213.9    -0.00012   0.00245  -0.00077  -0.00242
  0( 1)->28( 1) 3   48240.0    207.3     0.00333   0.00024  -0.00553  -0.00047
  0( 1)->29( 1) 3   48993.7    204.1     0.08917  -0.02355   0.00819   0.02494
  0( 1)->30( 1) 3   49174.1    203.4    -0.07019   0.01163   0.01119  -0.00290
  0( 1)->31( 1) 3   50019.5    199.9    -0.22967   0.00970  -0.00634  -0.00891
  0( 1)->32( 1) 3   50077.5    199.7     0.17457   0.00531   0.00668  -0.00637
  0( 1)->33( 1) 3   54784.9    182.5    -0.00965   0.00043  -0.00246  -0.00114
  0( 1)->34( 1) 3   56024.0    178.5     0.02162   0.00573   0.01876   0.00172
  0( 1)->35( 1) 3   61650.6    162.2     0.00342  -0.00386   0.00048  -0.00428
  0( 1)->36( 1) 3   65028.3    153.8     0.01046  -0.00682  -0.01418  -0.00275
  0( 1)->37( 1) 3   66232.3    151.0    -0.01056  -0.01159   0.00231   0.01119
  0( 1)->38( 1) 3   67685.8    147.7    -0.01554   0.00913  -0.00112  -0.00887
  0( 1)->39( 1) 3  112529.5     88.9     0.15512   0.08058  -0.01350  -0.08197
  0( 1)->40( 1) 3  114669.6     87.2    -0.00210  -0.00325   0.00711  -0.00375
  0( 1)->41( 1) 3  117300.5     85.3     0.01913  -0.04532   0.00676   0.04635
  0( 1)->42( 1) 3  118021.2     84.7    -0.01957   0.00555  -0.01173   0.00470
  0( 1)->43( 1) 3  125818.3     79.5     0.05890   0.00116  -0.00919   0.01002
  0( 1)->44( 1) 3  126958.8     78.8    -0.01126  -0.03018   0.00596   0.02962
------------------------------------------------------------------------------

------------------------------------------------------------------------------
                                 DIPOLE MOMENTS
------------------------------------------------------------------------------
  Root  Block           TX        TY        TZ           |T|
                      (Debye)   (Debye)   (Debye)      (Debye)
------------------------------------------------------------------------------
    0    1            0.49871  -0.22118   0.54762      0.77299

--------------
CASSCF TIMINGS
--------------

Total time                       ...    20115.9 sec
Sum of individual times          ...    20050.4 sec ( 99.7%)

Calculation of AO operators
   F(Core) operator              ...     9712.7 sec ( 48.3%)
   G(Act) operator               ...     9342.3 sec ( 46.4%)
   J(AO) operators               ...        0.0 sec (  0.0%)
Calculation of MO transformed quantities
   J(MO) operators               ...      765.8 sec (  3.8%)
   (pq|rs) integrals             ...        0.0 sec (  0.0%)
   AO->MO one electron integrals ...        9.1 sec (  0.0%)
Configuration interaction steps
   CI-setup phase                ...        0.0 sec (  0.0%)
   CI-solution phase             ...      160.0 sec (  0.8%)
   Generation of densities       ...       11.8 sec (  0.1%)
Orbital improvement steps
   Orbital gradient              ...        2.9 sec (  0.0%)
   O(1) converger                ...       34.3 sec (  0.2%)
Properties                       ...       11.5 sec (  0.1%)
   SOC integral calculation      ...        0.0 sec (  0.0%)
   SSC RMEs (incl. integrals)    ...        0.0 sec (  0.0%)
   SOC RMEs                      ...        0.0 sec (  0.0%)

Maximum memory used throughout the entire CASSCF-calculation: 312.3 MB

-------------------------   --------------------
FINAL SINGLE POINT ENERGY     -2879.949937858798
-------------------------   --------------------


                            ***************************************
                            *     ORCA property calculations      *
                            ***************************************

                                    ---------------------
                                    Active property flags
                                    ---------------------
   (+) Dipole Moment


------------------------------------------------------------------------------
                       ORCA ELECTRIC PROPERTIES CALCULATION
------------------------------------------------------------------------------

Dipole Moment Calculation                       ... on
Quadrupole Moment Calculation                   ... off
Polarizability Calculation                      ... off
GBWName                                         ... casscf.gbw
Electron density                                ... casscf.scfp
The origin for moment calculation is the CENTER OF MASS  = (17.424821, 13.084697 16.163314)

-------------
DIPOLE MOMENT
-------------
                                X             Y             Z
Electronic contribution:      1.55548     -12.30973       4.18446
Nuclear contribution   :     -1.48228      12.14439      -4.07619
                        -----------------------------------------
Total Dipole Moment    :      0.07321      -0.16534       0.10827
                        -----------------------------------------
Magnitude (a.u.)       :      0.21076
Magnitude (Debye)      :      0.53571



--------------------
Rotational spectrum 
--------------------
 
Rotational constants in cm-1:     0.001661     0.001253     0.001135 
Rotational constants in MHz :    49.798106    37.551520    34.016742 

 Dipole components along the rotational axes: 
x,y,z [a.u.] :    -0.128642    -0.001084     0.166942 
x,y,z [Debye]:    -0.326981    -0.002755     0.424332 

 

Timings for individual modules:

Sum of individual times         ...    20225.245 sec (= 337.087 min)
GTO integral calculation        ...       51.962 sec (=   0.866 min)   0.3 %
SCF iterations                  ...       38.075 sec (=   0.635 min)   0.2 %
CASSCF iterations               ...    20135.208 sec (= 335.587 min)  99.6 %
                             ****ORCA TERMINATED NORMALLY****
TOTAL RUN TIME: 0 days 5 hours 37 minutes 6 seconds 608 msec
