
                                 *****************
                                 * O   R   C   A *
                                 *****************

                                            #,                                       
                                            ###                                      
                                            ####                                     
                                            #####                                    
                                            ######                                   
                                           ########,                                 
                                     ,,################,,,,,                         
                               ,,#################################,,                 
                          ,,##########################################,,             
                       ,#########################################, ''#####,          
                    ,#############################################,,   '####,        
                  ,##################################################,,,,####,       
                ,###########''''           ''''###############################       
              ,#####''   ,,,,##########,,,,          '''####'''          '####       
            ,##' ,,,,###########################,,,                        '##       
           ' ,,###''''                  '''############,,,                           
         ,,##''                                '''############,,,,        ,,,,,,###''
      ,#''                                            '''#######################'''  
     '                                                          ''''####''''         
             ,#######,   #######,   ,#######,      ##                                
            ,#'     '#,  ##    ##  ,#'     '#,    #''#        ######   ,####,        
            ##       ##  ##   ,#'  ##            #'  '#       #        #'  '#        
            ##       ##  #######   ##           ,######,      #####,   #    #        
            '#,     ,#'  ##    ##  '#,     ,#' ,#      #,         ##   #,  ,#        
             '#######'   ##     ##  '#######'  #'      '#     #####' # '####'        



                  #######################################################
                  #                        -***-                        #
                  #          Department of theory and spectroscopy      #
                  #    Directorship and core code : Frank Neese         #
                  #        Max Planck Institute fuer Kohlenforschung    #
                  #                Kaiser Wilhelm Platz 1               #
                  #                 D-45470 Muelheim/Ruhr               #
                  #                      Germany                        #
                  #                                                     #
                  #                  All rights reserved                #
                  #                        -***-                        #
                  #######################################################


                         Program Version 5.0.3 -  RELEASE  -


 With contributions from (in alphabetic order):
   Daniel Aravena         : Magnetic Suceptibility
   Michael Atanasov       : Ab Initio Ligand Field Theory (pilot matlab implementation)
   Alexander A. Auer      : GIAO ZORA, VPT2 properties, NMR spectrum
   Ute Becker             : Parallelization
   Giovanni Bistoni       : ED, misc. LED, open-shell LED, HFLD
   Martin Brehm           : Molecular dynamics
   Dmytro Bykov           : SCF Hessian
   Vijay G. Chilkuri      : MRCI spin determinant printing, contributions to CSF-ICE
   Dipayan Datta          : RHF DLPNO-CCSD density
   Achintya Kumar Dutta   : EOM-CC, STEOM-CC
   Dmitry Ganyushin       : Spin-Orbit,Spin-Spin,Magnetic field MRCI
   Miquel Garcia          : C-PCM and meta-GGA Hessian, CC/C-PCM, Gaussian charge scheme
   Yang Guo               : DLPNO-NEVPT2, F12-NEVPT2, CIM, IAO-localization
   Andreas Hansen         : Spin unrestricted coupled pair/coupled cluster methods
   Benjamin Helmich-Paris : MC-RPA, TRAH-SCF, COSX integrals
   Lee Huntington         : MR-EOM, pCC
   Robert Izsak           : Overlap fitted RIJCOSX, COSX-SCS-MP3, EOM
   Marcus Kettner         : VPT2
   Christian Kollmar      : KDIIS, OOCD, Brueckner-CCSD(T), CCSD density, CASPT2, CASPT2-K
   Simone Kossmann        : Meta GGA functionals, TD-DFT gradient, OOMP2, MP2 Hessian
   Martin Krupicka        : Initial AUTO-CI
   Lucas Lang             : DCDCAS
   Marvin Lechner         : AUTO-CI (C++ implementation), FIC-MRCC
   Dagmar Lenk            : GEPOL surface, SMD
   Dimitrios Liakos       : Extrapolation schemes; Compound Job, initial MDCI parallelization
   Dimitrios Manganas     : Further ROCIS development; embedding schemes
   Dimitrios Pantazis     : SARC Basis sets
   Anastasios Papadopoulos: AUTO-CI, single reference methods and gradients
   Taras Petrenko         : DFT Hessian,TD-DFT gradient, ASA, ECA, R-Raman, ABS, FL, XAS/XES, NRVS
   Peter Pinski           : DLPNO-MP2, DLPNO-MP2 Gradient
   Christoph Reimann      : Effective Core Potentials
   Marius Retegan         : Local ZFS, SOC
   Christoph Riplinger    : Optimizer, TS searches, QM/MM, DLPNO-CCSD(T), (RO)-DLPNO pert. Triples
   Tobias Risthaus        : Range-separated hybrids, TD-DFT gradient, RPA, STAB
   Michael Roemelt        : Original ROCIS implementation
   Masaaki Saitow         : Open-shell DLPNO-CCSD energy and density
   Barbara Sandhoefer     : DKH picture change effects
   Avijit Sen             : IP-ROCIS
   Kantharuban Sivalingam : CASSCF convergence, NEVPT2, FIC-MRCI
   Bernardo de Souza      : ESD, SOC TD-DFT
   Georgi Stoychev        : AutoAux, RI-MP2 NMR, DLPNO-MP2 response
   Willem Van den Heuvel  : Paramagnetic NMR
   Boris Wezisla          : Elementary symmetry handling
   Frank Wennmohs         : Technical directorship


 We gratefully acknowledge several colleagues who have allowed us to
 interface, adapt or use parts of their codes:
   Stefan Grimme, W. Hujo, H. Kruse, P. Pracht,  : VdW corrections, initial TS optimization,
                  C. Bannwarth, S. Ehlert          DFT functionals, gCP, sTDA/sTD-DF
   Ed Valeev, F. Pavosevic, A. Kumar             : LibInt (2-el integral package), F12 methods
   Garnet Chan, S. Sharma, J. Yang, R. Olivares  : DMRG
   Ulf Ekstrom                                   : XCFun DFT Library
   Mihaly Kallay                                 : mrcc  (arbitrary order and MRCC methods)
   Jiri Pittner, Ondrej Demel                    : Mk-CCSD
   Frank Weinhold                                : gennbo (NPA and NBO analysis)
   Christopher J. Cramer and Donald G. Truhlar   : smd solvation model
   Lars Goerigk                                  : TD-DFT with DH, B97 family of functionals
   V. Asgeirsson, H. Jonsson                     : NEB implementation
   FAccTs GmbH                                   : IRC, NEB, NEB-TS, DLPNO-Multilevel, CI-OPT
                                                   MM, QMMM, 2- and 3-layer-ONIOM, Crystal-QMMM,
                                                   LR-CPCM, SF, NACMEs, symmetry and pop. for TD-DFT,
                                                   nearIR, NL-DFT gradient (VV10), updates on ESD,
                                                   ML-optimized integration grids
   S Lehtola, MJT Oliveira, MAL Marques          : LibXC Library
   Liviu Ungur et al                             : ANISO software


 Your calculation uses the libint2 library for the computation of 2-el integrals
 For citations please refer to: http://libint.valeyev.net

 Your ORCA version has been built with support for libXC version: 5.1.0
 For citations please refer to: https://tddft.org/programs/libxc/

 This ORCA versions uses:
   CBLAS   interface :  Fast vector & matrix operations
   LAPACKE interface :  Fast linear algebra routines
   SCALAPACK package :  Parallel linear algebra routines
   Shared memory     :  Shared parallel matrices
   BLAS/LAPACK       :  OpenBLAS 0.3.15  USE64BITINT DYNAMIC_ARCH NO_AFFINITY Sandybridge SINGLE_THREADED
        Core in use  :  Sandybridge
   Copyright (c) 2011-2014, The OpenBLAS Project




***************************************
The coordinates will be read from file: pbe.xyz
***************************************


================================================================================

cite the ECPs for Au [Def2-ECP] as follows:
Ce-Yb(ecp-28): M. Dolg, H. Stoll, H.Preuss, J. Chem. Phys., 1989, 90, 1730-1734.
Y-Cd(ecp-28), Hf-Hg(ecp-46): D. Andrae,U. Haeussermann, M. Dolg, H. Stoll, H. Preuss, Theor. Chim. Acta, 1990, 77, 123-141.
In-Sb(ecp-28), Tl-Bi(ecp-46): B. Metz, H. Stoll, M. Dolg, J. Chem. Phys., 2000, 113, 2563-2569.
Te-Xe(ecp-28), Po-Rn(ecp-46): K. A. Peterson, D. Figgen, E. Goll, H. Stoll, M. Dolg, J. Chem. Phys., 2003, 119, 11113-11123.
Rb(ecp-28), Cs(ecp-46): T. Leininger, A. Nicklass, W. Kuechle, H. Stoll, M. Dolg, A. Bergner, Chem. Phys. Lett., 1996, 255, 274-280.
Sr(ecp-28), Ba(ecp-46): M. Kaupp, P. V. Schleyer, H. Stoll and H. Preuss, J. Chem. Phys., 1991, 94, 1360-1366.
La(ecp-46): M. Dolg, H. Stoll, A. Savin, H. Preuss, Theor. Chim. Acta, 1989, 75, 173-194.
Lu(ecp-28): X. Cao, M. Dolg, J. Chem. Phys., 2001, 115, 7348-7355.

ECP parameters for Au [Def2-ECP] have been obtained from:
TURBOMOLE (7.0.2)

----- Orbital basis set information -----
Your calculation utilizes the basis: def2-TZVP
   F. Weigend and R. Ahlrichs, Phys. Chem. Chem. Phys. 7, 3297 (2005).

----- AuxJ basis set information -----
Your calculation utilizes the auxiliary basis: def2/J
   F. Weigend, Phys. Chem. Chem. Phys. 8, 1057 (2006).

================================================================================
                                        WARNINGS
                       Please study these warnings very carefully!
================================================================================

Using LibXC functional ID 497 : Re-regularized SCAN exchange by Furness et al
[ 1]  J. W. Furness, A. D. Kaplan, J. Ning, J. P. Perdew, and J. Sun, J. Phys. Chem. Lett. 11, 8208 (2020)
[ 2]  J. W. Furness, A. D. Kaplan, J. Ning, J. P. Perdew, and J. Sun, J. Phys. Chem. Lett. 11, 9248 (2020)
Using LibXC functional ID 498 : Re-regularized SCAN correlation by Furness et al
[ 1]  J. W. Furness, A. D. Kaplan, J. Ning, J. P. Perdew, and J. Sun, J. Phys. Chem. Lett. 11, 8208 (2020)
[ 2]  J. W. Furness, A. D. Kaplan, J. Ning, J. P. Perdew, and J. Sun, J. Phys. Chem. Lett. 11, 9248 (2020)
Using LibXC functional ID 497 : Re-regularized SCAN exchange by Furness et al
[ 1]  J. W. Furness, A. D. Kaplan, J. Ning, J. P. Perdew, and J. Sun, J. Phys. Chem. Lett. 11, 8208 (2020)
[ 2]  J. W. Furness, A. D. Kaplan, J. Ning, J. P. Perdew, and J. Sun, J. Phys. Chem. Lett. 11, 9248 (2020)
Using LibXC functional ID 498 : Re-regularized SCAN correlation by Furness et al
[ 1]  J. W. Furness, A. D. Kaplan, J. Ning, J. P. Perdew, and J. Sun, J. Phys. Chem. Lett. 11, 8208 (2020)
[ 2]  J. W. Furness, A. D. Kaplan, J. Ning, J. P. Perdew, and J. Sun, J. Phys. Chem. Lett. 11, 9248 (2020)

WARNING: your system is open-shell and RHF/RKS was chosen
  ===> : WILL SWITCH to UHF/UKS


INFO   : the flag for use of the SHARK integral package has been found!



***************************************
The coordinates will be read from file: pbe.xyz
***************************************


================================================================================

cite the ECPs for Au [Def2-ECP] as follows:
Ce-Yb(ecp-28): M. Dolg, H. Stoll, H.Preuss, J. Chem. Phys., 1989, 90, 1730-1734.
Y-Cd(ecp-28), Hf-Hg(ecp-46): D. Andrae,U. Haeussermann, M. Dolg, H. Stoll, H. Preuss, Theor. Chim. Acta, 1990, 77, 123-141.
In-Sb(ecp-28), Tl-Bi(ecp-46): B. Metz, H. Stoll, M. Dolg, J. Chem. Phys., 2000, 113, 2563-2569.
Te-Xe(ecp-28), Po-Rn(ecp-46): K. A. Peterson, D. Figgen, E. Goll, H. Stoll, M. Dolg, J. Chem. Phys., 2003, 119, 11113-11123.
Rb(ecp-28), Cs(ecp-46): T. Leininger, A. Nicklass, W. Kuechle, H. Stoll, M. Dolg, A. Bergner, Chem. Phys. Lett., 1996, 255, 274-280.
Sr(ecp-28), Ba(ecp-46): M. Kaupp, P. V. Schleyer, H. Stoll and H. Preuss, J. Chem. Phys., 1991, 94, 1360-1366.
La(ecp-46): M. Dolg, H. Stoll, A. Savin, H. Preuss, Theor. Chim. Acta, 1989, 75, 173-194.
Lu(ecp-28): X. Cao, M. Dolg, J. Chem. Phys., 2001, 115, 7348-7355.

ECP parameters for Au [Def2-ECP] have been obtained from:
TURBOMOLE (7.0.2)

----- Orbital basis set information -----
Your calculation utilizes the basis: def2-TZVP
   F. Weigend and R. Ahlrichs, Phys. Chem. Chem. Phys. 7, 3297 (2005).

----- AuxJ basis set information -----
Your calculation utilizes the auxiliary basis: def2/J
   F. Weigend, Phys. Chem. Chem. Phys. 8, 1057 (2006).

================================================================================
                                        WARNINGS
                       Please study these warnings very carefully!
================================================================================

Using LibXC functional ID 497 : Re-regularized SCAN exchange by Furness et al
[ 1]  J. W. Furness, A. D. Kaplan, J. Ning, J. P. Perdew, and J. Sun, J. Phys. Chem. Lett. 11, 8208 (2020)
[ 2]  J. W. Furness, A. D. Kaplan, J. Ning, J. P. Perdew, and J. Sun, J. Phys. Chem. Lett. 11, 9248 (2020)
Using LibXC functional ID 498 : Re-regularized SCAN correlation by Furness et al
[ 1]  J. W. Furness, A. D. Kaplan, J. Ning, J. P. Perdew, and J. Sun, J. Phys. Chem. Lett. 11, 8208 (2020)
[ 2]  J. W. Furness, A. D. Kaplan, J. Ning, J. P. Perdew, and J. Sun, J. Phys. Chem. Lett. 11, 9248 (2020)
Using LibXC functional ID 497 : Re-regularized SCAN exchange by Furness et al
[ 1]  J. W. Furness, A. D. Kaplan, J. Ning, J. P. Perdew, and J. Sun, J. Phys. Chem. Lett. 11, 8208 (2020)
[ 2]  J. W. Furness, A. D. Kaplan, J. Ning, J. P. Perdew, and J. Sun, J. Phys. Chem. Lett. 11, 9248 (2020)
Using LibXC functional ID 498 : Re-regularized SCAN correlation by Furness et al
[ 1]  J. W. Furness, A. D. Kaplan, J. Ning, J. P. Perdew, and J. Sun, J. Phys. Chem. Lett. 11, 8208 (2020)
[ 2]  J. W. Furness, A. D. Kaplan, J. Ning, J. P. Perdew, and J. Sun, J. Phys. Chem. Lett. 11, 9248 (2020)

INFO   : the flag for use of the SHARK integral package has been found!

================================================================================
                                       INPUT FILE
================================================================================
NAME = scan.inp
|  1> !R2SCAN def2-TZVP VERYSLOWCONV
|  2> !KDIIS
|  3> %scf
|  4>   AutoTRAHIter 200
|  5>   maxiter 400
|  6> end
|  7> 
|  8> %pal nprocs 6 end 
|  9> 
| 10> *xyzfile 0 6 pbe.xyz
| 11> 
| 12> $new_job
| 13> 
| 14> !R2SCAN def2-TZVP VERYSLOWCONV
| 15> !KDIIS
| 16> %scf
| 17>   AutoTRAHIter 200
| 18>   maxiter 400
| 19> end
| 20> 
| 21> 
| 22> %pal nprocs 6 end 
| 23> 
| 24> *xyzfile 0 4 pbe.xyz
| 25> 
| 26> 
| 27> 
| 28> 
| 29> 
| 30>                          ****END OF INPUT****
================================================================================


                 $$$$$$$$$$$$$$$$$$$$$$$$$$$$$$$$$$$$$$$$$$$$$$ 
                 $ THERE ARE  2 JOBS TO BE PROCESSED THIS RUN $
                 $$$$$$$$$$$$$$$$$$$$$$$$$$$$$$$$$$$$$$$$$$$$$$ 




                 $$$$$$$$$$$$$$$$  JOB NUMBER  1 $$$$$$$$$$$$$$


                       ****************************
                       * Single Point Calculation *
                       ****************************

---------------------------------
CARTESIAN COORDINATES (ANGSTROEM)
---------------------------------
  Au     5.588670   10.258068    8.439902
  Au     7.392651    7.201897    4.562333
  Au     5.600582    8.393807    6.369173
  Au     5.709012    5.613601    5.979016
  Au     7.826176    4.039181    6.762381
  Au     6.172563    5.043184    8.739026
  Au     5.746517    7.659148    9.248846
  Au     9.877353    8.233305    8.626274
  Au     8.162567    6.618469   10.070160
  Au     7.789002    9.427335   10.131694
  Au     8.037479    9.819883    7.327312
  Au     9.905227    5.449746    8.193137
  Au     9.533248    5.651428    5.331870
  Au     9.699675    8.377279    5.767483
  Mn     7.783301    6.895930    7.282775

----------------------------
CARTESIAN COORDINATES (A.U.)
----------------------------
  NO LB      ZA    FRAG     MASS         X           Y           Z
   0 Au   19.0000*   0   196.966   10.561056   19.384939   15.949103
   1 Au   19.0000*   0   196.966   13.970085   13.609613    8.621560
   2 Au   19.0000*   0   196.966   10.583567   15.861996   12.035992
   3 Au   19.0000*   0   196.966   10.788469   10.608169   11.298704
   4 Au   19.0000*   0   196.966   14.789330    7.632946   12.779049
   5 Au   19.0000*   0   196.966   11.664454    9.530238   16.514366
   6 Au   19.0000*   0   196.966   10.859342   14.473691   17.477786
   7 Au   19.0000*   0   196.966   18.665491   15.558691   16.301295
   8 Au   19.0000*   0   196.966   15.425017   12.507094   19.029844
   9 Au   19.0000*   0   196.966   14.719081   17.815082   19.146128
  10 Au   19.0000*   0   196.966   15.188634   18.556890   13.846612
  11 Au   19.0000*   0   196.966   18.718167   10.298528   15.482785
  12 Au   19.0000*   0   196.966   18.015227   10.679651   10.075775
  13 Au   19.0000*   0   196.966   18.329729   15.830764   10.898963
  14 Mn   25.0000    0    54.940   14.708307   13.031418   13.762451
* core charge reduced due to ECP

--------------------------------
INTERNAL COORDINATES (ANGSTROEM)
--------------------------------
 Au     0   0   0     0.000000000000     0.00000000     0.00000000
 Au     1   0   0     5.256430448370     0.00000000     0.00000000
 Au     1   2   0     2.786311056202    20.16409880     0.00000000
 Au     2   1   3     2.713726860079    75.06442130   316.82967041
 Au     4   2   1     2.752243537069    90.35199575   246.30911807
 Au     5   4   2     2.765787772665    62.34398314   127.11097321
 Au     6   5   4     2.699017362014   125.53573601   299.26326581
 Au     7   6   5     4.216759364227    87.10226163   318.89731088
 Au     7   6   5     2.755879047337    63.37847527   284.96102476
 Au     9   7   6     2.834266470934    61.09772371   169.24035275
 Au     1   2   3     2.725164967471    45.32793127   179.29700452
 Au     9   7   6     2.815313726290   120.04829473    58.73421477
 Au     5   4   2     2.749507941201    89.66068550     0.12104982
 Au    11   1   2     2.697604108822   151.13343045   346.08818032
 Mn    12   9   7     2.724477273504    61.33597316    12.10267184

---------------------------
INTERNAL COORDINATES (A.U.)
---------------------------
 Au     0   0   0     0.000000000000     0.00000000     0.00000000
 Au     1   0   0     9.933213989425     0.00000000     0.00000000
 Au     1   2   0     5.265364820139    20.16409880     0.00000000
 Au     2   1   3     5.128200567815    75.06442130   316.82967041
 Au     4   2   1     5.200986538916    90.35199575   246.30911807
 Au     5   4   2     5.226581434886    62.34398314   127.11097321
 Au     6   5   4     5.100403644905   125.53573601   299.26326581
 Au     7   6   5     7.968520371037    87.10226163   318.89731088
 Au     7   6   5     5.207856657678    63.37847527   284.96102476
 Au     9   7   6     5.355987420621    61.09772371   169.24035275
 Au     1   2   3     5.149815458277    45.32793127   179.29700452
 Au     9   7   6     5.320171923757   120.04829473    58.73421477
 Au     5   4   2     5.195817011912    89.66068550     0.12104982
 Au    11   1   2     5.097732983414   151.13343045   346.08818032
 Mn    12   9   7     5.148515905015    61.33597316    12.10267184

---------------------
BASIS SET INFORMATION
---------------------
There are 2 groups of distinct atoms

 Group   1 Type Au  : 8s7p6d1f contracted to 6s4p3d1f pattern {311111/4111/411/1}
 Group   2 Type Mn  : 17s11p7d1f contracted to 6s4p4d1f pattern {842111/6311/4111/1}

Atom   0Au   basis set group =>   1
Atom   1Au   basis set group =>   1
Atom   2Au   basis set group =>   1
Atom   3Au   basis set group =>   1
Atom   4Au   basis set group =>   1
Atom   5Au   basis set group =>   1
Atom   6Au   basis set group =>   1
Atom   7Au   basis set group =>   1
Atom   8Au   basis set group =>   1
Atom   9Au   basis set group =>   1
Atom  10Au   basis set group =>   1
Atom  11Au   basis set group =>   1
Atom  12Au   basis set group =>   1
Atom  13Au   basis set group =>   1
Atom  14Mn   basis set group =>   2
---------------------------------
AUXILIARY/J BASIS SET INFORMATION
---------------------------------
There are 2 groups of distinct atoms

 Group   1 Type Au  : 11s5p5d3f3g contracted to 8s5p5d2f3g pattern {41111111/11111/11111/21/111}
 Group   2 Type Mn  : 19s5p5d3f3g contracted to 8s5p5d2f3g pattern {121111111/11111/11111/21/111}

Atom   0Au   basis set group =>   1
Atom   1Au   basis set group =>   1
Atom   2Au   basis set group =>   1
Atom   3Au   basis set group =>   1
Atom   4Au   basis set group =>   1
Atom   5Au   basis set group =>   1
Atom   6Au   basis set group =>   1
Atom   7Au   basis set group =>   1
Atom   8Au   basis set group =>   1
Atom   9Au   basis set group =>   1
Atom  10Au   basis set group =>   1
Atom  11Au   basis set group =>   1
Atom  12Au   basis set group =>   1
Atom  13Au   basis set group =>   1
Atom  14Mn   basis set group =>   2
-------------------------
ECP PARAMETER INFORMATION
-------------------------

 Group 1, Type Au ECP Def2-ECP (replacing 60 core electrons, lmax=3)

Atom   0Au   ECP group =>   1
Atom   1Au   ECP group =>   1
Atom   2Au   ECP group =>   1
Atom   3Au   ECP group =>   1
Atom   4Au   ECP group =>   1
Atom   5Au   ECP group =>   1
Atom   6Au   ECP group =>   1
Atom   7Au   ECP group =>   1
Atom   8Au   ECP group =>   1
Atom   9Au   ECP group =>   1
Atom  10Au   ECP group =>   1
Atom  11Au   ECP group =>   1
Atom  12Au   ECP group =>   1
Atom  13Au   ECP group =>   1



           ************************************************************
           *        Program running with 6 parallel MPI-processes     *
           *              working on a common directory               *
           ************************************************************
------------------------------------------------------------------------------
                           ORCA GTO INTEGRAL CALCULATION
                           -- RI-GTO INTEGRALS CHOSEN --
------------------------------------------------------------------------------
------------------------------------------------------------------------------
                   ___                                                        
                  /   \      - P O W E R E D   B Y -                         
                 /     \                                                     
                 |  |  |   _    _      __       _____    __    __             
                 |  |  |  | |  | |    /  \     |  _  \  |  |  /  |          
                  \  \/   | |  | |   /    \    | | | |  |  | /  /          
                 / \  \   | |__| |  /  /\  \   | |_| |  |  |/  /          
                |  |  |   |  __  | /  /__\  \  |    /   |      \           
                |  |  |   | |  | | |   __   |  |    \   |  |\   \          
                \     /   | |  | | |  |  |  |  | |\  \  |  | \   \       
                 \___/    |_|  |_| |__|  |__|  |_| \__\ |__|  \__/        
                                                                              
                      - O R C A' S   B I G   F R I E N D -                    
                                      &                                       
                       - I N T E G R A L  F E E D E R -                       
                                                                              
 v1 FN, 2020, v2 2021                                                         
------------------------------------------------------------------------------


Reading SHARK input file scan.SHARKINP.tmp ... ok
----------------------
SHARK INTEGRAL PACKAGE
----------------------

Number of atoms                             ...     15
Number of basis functions                   ...    605
Number of shells                            ...    211
Maximum angular momentum                    ...      3
Integral batch strategy                     ... SHARK/LIBINT Hybrid
RI-J (if used) integral strategy            ... SPLIT-RIJ (Revised 2003 algorithm where possible)
Printlevel                                  ...      1
Contraction scheme used                     ... SEGMENTED contraction
Coulomb Range Separation                    ... NOT USED
Exchange Range Separation                   ... NOT USED
Finite Nucleus Model                        ... NOT USED
Auxiliary Coulomb fitting basis             ... AVAILABLE
   # of basis functions in Aux-J            ...   1335
   # of shells in Aux-J                     ...    345
   Maximum angular momentum in Aux-J        ...      4
Auxiliary J/K fitting basis                 ... NOT available
Auxiliary Correlation fitting basis         ... NOT available
Auxiliary 'external' fitting basis          ... NOT available
Integral threshold                          ...     1.000000e-10
Primitive cut-off                           ...     1.000000e-11
Primitive pair pre-selection threshold      ...     1.000000e-11

Calculating pre-screening integrals         ... done (  0.3 sec) Dimension = 211
Organizing shell pair data                  ... done (  0.7 sec)
Shell pair information
Total number of shell pairs                 ...     22366
Shell pairs after pre-screening             ...     17802
Total number of primitive shell pairs       ...     59609
Primitive shell pairs kept                  ...     34344
          la=0 lb=0:   2791 shell pairs
          la=1 lb=0:   4025 shell pairs
          la=1 lb=1:   1543 shell pairs
          la=2 lb=0:   3537 shell pairs
          la=2 lb=1:   2500 shell pairs
          la=2 lb=2:   1024 shell pairs
          la=3 lb=0:    936 shell pairs
          la=3 lb=1:    716 shell pairs
          la=3 lb=2:    629 shell pairs
          la=3 lb=3:    101 shell pairs

Calculating one electron integrals          ... done (  0.1 sec)
Calculating ECP integrals                   ... done ( 21.4 sec)
Calculating RI/J V-Matrix + Cholesky decomp.... done (  0.2 sec)
Calculating Nuclear repulsion               ... done (  0.0 sec) ENN=   5652.222803884474 Eh

SHARK setup successfully completed in  23.2 seconds

Maximum memory used throughout the entire GTOINT-calculation: 34.5 MB


           ************************************************************
           *        Program running with 6 parallel MPI-processes     *
           *              working on a common directory               *
           ************************************************************
-------------------------------------------------------------------------------
                                 ORCA SCF
-------------------------------------------------------------------------------

------------
SCF SETTINGS
------------
Hamiltonian:
 Density Functional     Method          .... DFT(GTOs)
  Functional kind                       .... Exchange
  Functional name                       .... Re-regularized SCAN exchange by Furness et al
  Functional family                     .... MGGA
  Functional refs                              
    [ 0] J. W. Furness, A. D. Kaplan, J. Ning, J. P. Perdew, and J. Sun, J. Phys. Chem. Lett. 11, 8208 (2020)
    [ 1] J. W. Furness, A. D. Kaplan, J. Ning, J. P. Perdew, and J. Sun, J. Phys. Chem. Lett. 11, 9248 (2020)
  Functional external parameters         .... 8
 Parameter  0 :         c1 parameter
 Parameter  1 :         c2 parameter
 Parameter  2 :          d parameter
 Parameter  3 :         k1 parameter
 Parameter  4 :       taur parameter
 Parameter  5 :     alphar parameter
 Parameter  6 :        eta parameter
 Parameter  7 :        dp2 parameter
  Functional kind                       .... Correlation
  Functional name                       .... Re-regularized SCAN correlation by Furness et al
  Functional family                     .... MGGA
  Functional refs                              
    [ 0] J. W. Furness, A. D. Kaplan, J. Ning, J. P. Perdew, and J. Sun, J. Phys. Chem. Lett. 11, 8208 (2020)
    [ 1] J. W. Furness, A. D. Kaplan, J. Ning, J. P. Perdew, and J. Sun, J. Phys. Chem. Lett. 11, 9248 (2020)
  Functional external parameters         .... 0
 Gradients option       PostSCFGGA      .... off
   Density functional embedding theory  .... OFF
   NL short-range parameter             .... 12.300000
 RI-approximation to the Coulomb term is turned on
   Number of AuxJ basis functions       .... 1335


General Settings:
 Integral files         IntName         .... scan
 Hartree-Fock type      HFTyp           .... UHF
 Total Charge           Charge          ....    0
 Multiplicity           Mult            ....    6
 Number of Electrons    NEL             ....  291
 Basis Dimension        Dim             ....  605
 Nuclear Repulsion      ENuc            ....   5652.2228038845 Eh

Convergence Acceleration:
 DIIS                   CNVDIIS         .... off
 Trust-Rad. Augm. Hess. CNVTRAH         .... auto
   Auto Start mean grad. ratio tolernc. ....  1.125000
   Auto Start start iteration           ....   200
   Auto Start num. interpolation iter.  ....    10
   Max. Number of Micro iterations      ....    16
   Max. Number of Macro iterations      .... Maxiter - #DIIS iter
   Number of Davidson start vectors     ....     2
   Converg. threshold I  (grad. norm)   ....   5.000e-05
   Converg. threshold II (energy diff.) ....   1.000e-06
   Grad. Scal. Fac. for Micro threshold ....   0.100
   Minimum threshold for Micro iter.    ....   0.010
   NR start threshold (gradient norm)   ....   0.001
   Initial trust radius                 ....   0.400
   Minimum AH scaling param. (alpha)    ....   1.000
   Maximum AH scaling param. (alpha)    .... 1000.000
   Orbital update algorithm             .... Taylor
   White noise on init. David. guess    .... on
   Maximum white noise                  ....   0.010
   Quad. conv. algorithm                .... NR
 SOSCF                  CNVSOSCF        .... off
 Level Shifting         CNVShift        .... off
 Zerner damping         CNVZerner       .... off
 Static damping         CNVDamp         .... off
 Fernandez-Rico         CNVRico         .... off

SCF Procedure:
 Maximum # iterations   MaxIter         ....   400
 SCF integral mode      SCFMode         .... Direct
   Integral package                     .... SHARK and LIBINT hybrid scheme
 Reset frequency        DirectResetFreq ....    20
 Integral Threshold     Thresh          ....  1.000e-10 Eh
 Primitive CutOff       TCut            ....  1.000e-11 Eh

Convergence Tolerance:
 Convergence Check Mode ConvCheckMode   .... All-Criteria
 Convergence forced     ConvForced      .... 0
 Energy Change          TolE            ....  1.000e-06 Eh
 Max Density Change     TolMaxP         ....  1.000e-05
 RMS Density Change     TolRMSP         ....  1.000e-06


Diagonalization of the overlap matrix:
Smallest eigenvalue                        ... 3.744e-04
Time for diagonalization                   ...    0.173 sec
Threshold for overlap eigenvalues          ... 1.000e-08
Number of eigenvalues below threshold      ... 0
Time for construction of square roots      ...    0.117 sec
Total time needed                          ...    0.293 sec

Time for model grid setup =    0.926 sec

------------------------------
INITIAL GUESS: MODEL POTENTIAL
------------------------------
Loading Hartree-Fock densities                     ... done
  calling /home/ehlert/src/miniconda3/envs/orca500/Programs/ORCA501/orca scan_atom79.inp > scan_atom79.out in order to generate an atomic fitting density for atom 0 (Au with ECP) on-the-fly... 
    atom 0 (Au), assumed electronic state with S=2: 1s2 2s2 2p6 3s2 3p6 4s2 3d10 4p6 5s2 4d10 5p6 6s1 4f14 5d10           ... done
Calculating cut-offs                               ... done
Initializing the effective Hamiltonian             ... done
Setting up the integral package (SHARK)            ... done
Starting the Coulomb interaction                   ... done (   1.0 sec)
Reading the grid                                   ... done
Mapping shells                                     ... done
Starting the XC term evaluation                    ... done (   1.0 sec)
  promolecular density results
     # of electrons  =   1131.014451455
     EX              =  -5172.132157612
     EC              =    -68.915653954
     EX+EC           =  -5241.047811566
Transforming the Hamiltonian                       ... done (   0.1 sec)
Diagonalizing the Hamiltonian                      ... done (   0.2 sec)
Back transforming the eigenvectors                 ... done (   0.0 sec)
Now organizing SCF variables                       ... done
                      ------------------
                      INITIAL GUESS DONE (   4.4 sec)
                      ------------------
-------------------
DFT GRID GENERATION
-------------------

General Integration Accuracy     IntAcc      ... 4.388
Radial Grid Type                 RadialGrid  ... OptM3 with GC (2021)
Angular Grid (max. ang.)         AngularGrid ... 4 (Lebedev-302)
Angular grid pruning method      GridPruning ... 4 (adaptive)
Weight generation scheme         WeightScheme... Becke
Basis function cutoff            BFCut       ... 1.0000e-10
Integration weight cutoff        WCut        ... 1.0000e-14
Angular grids for H and He will be reduced by one unit
Partially contracted basis set               ... off
Rotationally invariant grid construction     ... off

Total number of grid points                  ...   165663
Total number of batches                      ...     2596
Average number of points per batch           ...       63
Average number of grid points per atom       ...    11044
Time for grid setup =    2.870 sec

--------------
SCF ITERATIONS
--------------
ITER       Energy         Delta-E        Max-DP      RMS-DP      [F,P]   Gradient Norm
               ***  Starting incremental Fock matrix formation  ***
                             ****Resetting KDIIS****
                             ****Turning on KDIIS(Cayley)****
  0  -3050.7401600133   0.000000000000 0.18810618  0.00116762  0.3958699   0.220618234
  1  -3051.8251833891  -1.085023375777 0.54983761  0.00176084  0.2812942   0.171376086
  2  -3052.3383232100  -0.513139820923 0.11080981  0.00127578  0.2223229   0.129309472
  3  -3052.6408954299  -0.302572219947 0.15220116  0.00151306  0.1299321   0.075559423
  4  -3052.7452170914  -0.104321661508 0.06091412  0.00055525  0.0547547   0.024529895
  5  -3052.8067236734  -0.061506581962 0.16557786  0.00048301  0.0318746   0.007160851
  6  -3052.8374929344  -0.030769261026 0.09731598  0.00087933  0.0319648   0.005697018
  7  -3052.8657905621  -0.028297627655 0.03109261  0.00025557  0.0127893   0.009610070
  8  -3052.8747630878  -0.008972525757 0.02997128  0.00021190  0.0064386   0.006284865
  9  -3052.8781130391  -0.003349951246 0.02041387  0.00012615  0.0081130   0.003837405
 10  -3052.8797583839  -0.001645344845 0.01348369  0.00009702  0.0040029   0.001354986
 11  -3052.8803736224  -0.000615238449 0.01273497  0.00005776  0.0018757   0.001554275
 12  -3052.8804865476  -0.000112925191 0.00426931  0.00004244  0.0017178   0.001047420
 13  -3052.8806782282  -0.000191680583 0.00342872  0.00002942  0.0012427   0.000850252
 14  -3052.8807270752  -0.000048847079 0.00554703  0.00004558  0.0011062   0.000705939
 15  -3052.8808585193  -0.000131444082 0.00246105  0.00002104  0.0009119   0.000506279
 16  -3052.8808124231   0.000046096181 0.00296058  0.00002535  0.0008547   0.000369418
 17  -3052.8808658242  -0.000053401044 0.00182038  0.00001241  0.0008115   0.000241008
 18  -3052.8808828962  -0.000017072068 0.00122175  0.00001210  0.0006968   0.000220157
 19  -3052.8808850367  -0.000002140410 0.00107786  0.00001175  0.0006304   0.000200255
               *** Restarting incremental Fock matrix formation ***
                             ****Resetting KDIIS****
 20  -3052.8808974896  -0.000012452960 0.00024182  0.00000164  0.0005672   0.000204341
 21  -3052.8809002452  -0.000002755534 0.00025487  0.00000196  0.0005611   0.000135299
 22  -3052.8809027585  -0.000002513321 0.00053890  0.00000402  0.0005497   0.000112881
 23  -3052.8809052062  -0.000002447739 0.00378212  0.00003062  0.0005150   0.000082133
 24  -3052.8809234696  -0.000018263401 0.00229039  0.00001701  0.0002864   0.000114436
 25  -3052.8809269520  -0.000003482417 0.00113113  0.00000372  0.0001235   0.000039419
                          ***Energy convergence achieved***
 26  -3052.8809260841   0.000000867958 0.00043582  0.00000382  0.0001190   0.000061962
 27  -3052.8809282474  -0.000002163285 0.00030069  0.00000282  0.0000794   0.000018747
 28  -3052.8809296264  -0.000001379056 0.00076349  0.00000642  0.0000658   0.000030611
                          ***Energy convergence achieved***
 29  -3052.8809288636   0.000000762775 0.00012449  0.00000138  0.0000450   0.000024586
 30  -3052.8809299665  -0.000001102867 0.00022886  0.00000161  0.0000418   0.000018172
                          ***Energy convergence achieved***
 31  -3052.8809305345  -0.000000567952 0.00041817  0.00000356  0.0000368   0.000023286
                           ***RMSP convergence achieved***

            ***Energy convergence in two consecutive cycles with***
                    ***'reasonable' density convergence***
                       *** signaling convergence ***

                    *** KDIIS BlockDiag ( 0.263 sec) ***

               *****************************************************
               *                     SUCCESS                       *
               *           SCF CONVERGED AFTER  32 CYCLES          *
               *****************************************************


----------------
TOTAL SCF ENERGY
----------------

Total Energy       :        -3052.88093024 Eh          -83073.11347 eV

Components:
Nuclear Repulsion  :         5652.22280388 Eh          153804.80178 eV
Electronic Energy  :        -8705.10373413 Eh         -236877.91525 eV
One Electron Energy:       -16223.62351071 Eh         -441467.23949 eV
Two Electron Energy:         7518.51977658 Eh          204589.32424 eV

Virial components:
Potential Energy   :        -4844.38139038 Eh         -131822.31935 eV
Kinetic Energy     :         1791.50046014 Eh           48749.20588 eV
Virial Ratio       :            2.70409162


DFT components:
N(Alpha)           :      147.999964203609 electrons
N(Beta)            :      142.999961320611 electrons
N(Total)           :      290.999925524220 electrons
E(X)               :     -221.111776058456 Eh       
E(C)               :      -12.063530434056 Eh       
E(XC)              :     -233.175306492512 Eh       
DFET-embed. en.    :        0.000000000000 Eh       

---------------
SCF CONVERGENCE
---------------

  Last Energy change         ...    2.9386e-07  Tolerance :   1.0000e-06
  Last MAX-Density change    ...    8.1099e-05  Tolerance :   1.0000e-05
  Last RMS-Density change    ...    7.3809e-07  Tolerance :   1.0000e-06

             **** THE GBW FILE WAS UPDATED (scan.gbw) ****
             **** DENSITY scan.scfp WAS UPDATED ****
             **** ENERGY FILE WAS UPDATED (scan.en.tmp) ****
----------------------
UHF SPIN CONTAMINATION
----------------------

Warning: in a DFT calculation there is little theoretical justification to 
         calculate <S**2> as in Hartree-Fock theory. We will do it anyways
         but you should keep in mind that the values have only limited relevance

Expectation value of <S**2>     :     8.768958
Ideal value S*(S+1) for S=2.5   :     8.750000
Deviation                       :     0.018958

             **** THE GBW FILE WAS UPDATED (scan.gbw) ****
             **** DENSITY scan.scfp WAS UPDATED ****
----------------
ORBITAL ENERGIES
----------------
                 SPIN UP ORBITALS
  NO   OCC          E(Eh)            E(eV) 
   0   1.0000    -235.047694     -6395.9729 
   1   1.0000     -27.225070      -740.8318 
   2   1.0000     -23.272033      -633.2642 
   3   1.0000     -23.271589      -633.2521 
   4   1.0000     -23.271118      -633.2393 
   5   1.0000      -4.124757      -112.2403 
   6   1.0000      -4.124588      -112.2357 
   7   1.0000      -4.122492      -112.1787 
   8   1.0000      -4.122386      -112.1758 
   9   1.0000      -4.121074      -112.1401 
  10   1.0000      -4.120271      -112.1183 
  11   1.0000      -4.119721      -112.1033 
  12   1.0000      -4.119515      -112.0977 
  13   1.0000      -4.117599      -112.0456 
  14   1.0000      -4.117511      -112.0432 
  15   1.0000      -4.115905      -111.9995 
  16   1.0000      -4.114419      -111.9590 
  17   1.0000      -4.114246      -111.9543 
  18   1.0000      -4.101882      -111.6179 
  19   1.0000      -3.249818       -88.4321 
  20   1.0000      -2.314433       -62.9789 
  21   1.0000      -2.314224       -62.9732 
  22   1.0000      -2.312953       -62.9387 
  23   1.0000      -2.311400       -62.8964 
  24   1.0000      -2.310754       -62.8788 
  25   1.0000      -2.310572       -62.8739 
  26   1.0000      -2.310485       -62.8715 
  27   1.0000      -2.310315       -62.8669 
  28   1.0000      -2.308666       -62.8220 
  29   1.0000      -2.308547       -62.8188 
  30   1.0000      -2.307885       -62.8007 
  31   1.0000      -2.307150       -62.7808 
  32   1.0000      -2.307000       -62.7767 
  33   1.0000      -2.306730       -62.7693 
  34   1.0000      -2.306356       -62.7591 
  35   1.0000      -2.306023       -62.7501 
  36   1.0000      -2.305669       -62.7404 
  37   1.0000      -2.305574       -62.7379 
  38   1.0000      -2.305344       -62.7316 
  39   1.0000      -2.305184       -62.7272 
  40   1.0000      -2.304379       -62.7054 
  41   1.0000      -2.304164       -62.6995 
  42   1.0000      -2.303934       -62.6932 
  43   1.0000      -2.303714       -62.6873 
  44   1.0000      -2.303528       -62.6822 
  45   1.0000      -2.303404       -62.6788 
  46   1.0000      -2.303013       -62.6682 
  47   1.0000      -2.302906       -62.6653 
  48   1.0000      -2.302397       -62.6514 
  49   1.0000      -2.302027       -62.6413 
  50   1.0000      -2.300962       -62.6124 
  51   1.0000      -2.300478       -62.5992 
  52   1.0000      -2.300385       -62.5967 
  53   1.0000      -2.299856       -62.5823 
  54   1.0000      -2.299828       -62.5815 
  55   1.0000      -2.299277       -62.5665 
  56   1.0000      -2.298055       -62.5332 
  57   1.0000      -2.297687       -62.5232 
  58   1.0000      -2.297004       -62.5047 
  59   1.0000      -2.289292       -62.2948 
  60   1.0000      -2.286994       -62.2323 
  61   1.0000      -2.286367       -62.2152 
  62   1.0000      -2.107167       -57.3389 
  63   1.0000      -2.106419       -57.3186 
  64   1.0000      -2.105744       -57.3002 
  65   1.0000      -0.437928       -11.9166 
  66   1.0000      -0.397510       -10.8168 
  67   1.0000      -0.392943       -10.6925 
  68   1.0000      -0.390902       -10.6370 
  69   1.0000      -0.388570       -10.5735 
  70   1.0000      -0.381752       -10.3880 
  71   1.0000      -0.380684       -10.3589 
  72   1.0000      -0.377722       -10.2783 
  73   1.0000      -0.375116       -10.2074 
  74   1.0000      -0.370008       -10.0684 
  75   1.0000      -0.369560       -10.0562 
  76   1.0000      -0.367499       -10.0002 
  77   1.0000      -0.364359        -9.9147 
  78   1.0000      -0.363643        -9.8952 
  79   1.0000      -0.359398        -9.7797 
  80   1.0000      -0.357869        -9.7381 
  81   1.0000      -0.353162        -9.6100 
  82   1.0000      -0.352858        -9.6018 
  83   1.0000      -0.351759        -9.5719 
  84   1.0000      -0.349216        -9.5026 
  85   1.0000      -0.346858        -9.4385 
  86   1.0000      -0.344174        -9.3655 
  87   1.0000      -0.340936        -9.2773 
  88   1.0000      -0.335841        -9.1387 
  89   1.0000      -0.335040        -9.1169 
  90   1.0000      -0.332347        -9.0436 
  91   1.0000      -0.332226        -9.0403 
  92   1.0000      -0.328523        -8.9396 
  93   1.0000      -0.328026        -8.9260 
  94   1.0000      -0.327166        -8.9027 
  95   1.0000      -0.325578        -8.8594 
  96   1.0000      -0.325450        -8.8559 
  97   1.0000      -0.322969        -8.7884 
  98   1.0000      -0.317257        -8.6330 
  99   1.0000      -0.313183        -8.5222 
 100   1.0000      -0.312992        -8.5169 
 101   1.0000      -0.312330        -8.4989 
 102   1.0000      -0.310698        -8.4545 
 103   1.0000      -0.310145        -8.4395 
 104   1.0000      -0.307119        -8.3571 
 105   1.0000      -0.301702        -8.2097 
 106   1.0000      -0.297732        -8.1017 
 107   1.0000      -0.297654        -8.0996 
 108   1.0000      -0.296561        -8.0698 
 109   1.0000      -0.293562        -7.9882 
 110   1.0000      -0.289541        -7.8788 
 111   1.0000      -0.288574        -7.8525 
 112   1.0000      -0.284581        -7.7438 
 113   1.0000      -0.283726        -7.7206 
 114   1.0000      -0.283099        -7.7035 
 115   1.0000      -0.282691        -7.6924 
 116   1.0000      -0.278424        -7.5763 
 117   1.0000      -0.275478        -7.4961 
 118   1.0000      -0.273242        -7.4353 
 119   1.0000      -0.272542        -7.4162 
 120   1.0000      -0.271206        -7.3799 
 121   1.0000      -0.270199        -7.3525 
 122   1.0000      -0.269482        -7.3330 
 123   1.0000      -0.267583        -7.2813 
 124   1.0000      -0.267222        -7.2715 
 125   1.0000      -0.267046        -7.2667 
 126   1.0000      -0.265605        -7.2275 
 127   1.0000      -0.264756        -7.2044 
 128   1.0000      -0.264002        -7.1839 
 129   1.0000      -0.263448        -7.1688 
 130   1.0000      -0.262559        -7.1446 
 131   1.0000      -0.261804        -7.1241 
 132   1.0000      -0.260309        -7.0834 
 133   1.0000      -0.259081        -7.0499 
 134   1.0000      -0.258037        -7.0215 
 135   1.0000      -0.256855        -6.9894 
 136   1.0000      -0.256218        -6.9721 
 137   1.0000      -0.254423        -6.9232 
 138   1.0000      -0.252656        -6.8751 
 139   1.0000      -0.252353        -6.8669 
 140   1.0000      -0.250861        -6.8263 
 141   1.0000      -0.249643        -6.7931 
 142   1.0000      -0.249286        -6.7834 
 143   1.0000      -0.232938        -6.3386 
 144   1.0000      -0.223349        -6.0776 
 145   1.0000      -0.205146        -5.5823 
 146   1.0000      -0.203950        -5.5497 
 147   1.0000      -0.201936        -5.4950 
 148   0.0000      -0.170814        -4.6481 
 149   0.0000      -0.147089        -4.0025 
 150   0.0000      -0.126383        -3.4390 
 151   0.0000      -0.122582        -3.3356 
 152   0.0000      -0.118517        -3.2250 
 153   0.0000      -0.111918        -3.0454 
 154   0.0000      -0.109264        -2.9732 
 155   0.0000      -0.076394        -2.0788 
 156   0.0000      -0.067216        -1.8290 
 157   0.0000      -0.063221        -1.7203 
 158   0.0000      -0.049452        -1.3457 
 159   0.0000      -0.047102        -1.2817 
 160   0.0000      -0.036261        -0.9867 
 161   0.0000      -0.016471        -0.4482 
 162   0.0000      -0.014069        -0.3828 
 163   0.0000      -0.013875        -0.3776 
 164   0.0000       0.006834         0.1860 
 165   0.0000       0.007463         0.2031 
 166   0.0000       0.010494         0.2856 
 167   0.0000       0.018072         0.4918 
 168   0.0000       0.019656         0.5349 
 169   0.0000       0.033418         0.9094 
 170   0.0000       0.047594         1.2951 
 171   0.0000       0.051101         1.3905 
 172   0.0000       0.052311         1.4235 
 173   0.0000       0.057534         1.5656 
 174   0.0000       0.061156         1.6641 
 175   0.0000       0.068614         1.8671 
 176   0.0000       0.076046         2.0693 
 177   0.0000       0.076926         2.0933 
 178   0.0000       0.080475         2.1898 
 179   0.0000       0.083620         2.2754 
 180   0.0000       0.085333         2.3220 
 181   0.0000       0.088427         2.4062 
 182   0.0000       0.092927         2.5287 
 183   0.0000       0.095336         2.5942 
 184   0.0000       0.101228         2.7546 
 185   0.0000       0.106457         2.8968 
 186   0.0000       0.106967         2.9107 
 187   0.0000       0.114596         3.1183 
 188   0.0000       0.121861         3.3160 
 189   0.0000       0.135507         3.6873 
 190   0.0000       0.138552         3.7702 
 191   0.0000       0.145090         3.9481 
 192   0.0000       0.145352         3.9552 
 193   0.0000       0.152611         4.1528 
 194   0.0000       0.156535         4.2595 
 195   0.0000       0.158855         4.3227 
 196   0.0000       0.166658         4.5350 
 197   0.0000       0.171716         4.6726 
 198   0.0000       0.172790         4.7019 
 199   0.0000       0.180171         4.9027 
 200   0.0000       0.182513         4.9664 
 201   0.0000       0.186950         5.0872 
 202   0.0000       0.189346         5.1524 
 203   0.0000       0.191193         5.2026 
 204   0.0000       0.191467         5.2101 
 205   0.0000       0.191841         5.2203 
 206   0.0000       0.210879         5.7383 
 207   0.0000       0.218752         5.9525 
 208   0.0000       0.226719         6.1693 
 209   0.0000       0.227038         6.1780 
 210   0.0000       0.231624         6.3028 
 211   0.0000       0.240911         6.5555 
 212   0.0000       0.242989         6.6121 
 213   0.0000       0.249587         6.7916 
 214   0.0000       0.250431         6.8146 
 215   0.0000       0.255816         6.9611 
 216   0.0000       0.258863         7.0440 
 217   0.0000       0.265766         7.2319 
 218   0.0000       0.270339         7.3563 
 219   0.0000       0.270728         7.3669 
 220   0.0000       0.274343         7.4653 
 221   0.0000       0.276917         7.5353 
 222   0.0000       0.291332         7.9276 
 223   0.0000       0.297487         8.0950 
 224   0.0000       0.298045         8.1102 
 225   0.0000       0.307486         8.3671 
 226   0.0000       0.310341         8.4448 
 227   0.0000       0.311665         8.4808 
 228   0.0000       0.314296         8.5524 
 229   0.0000       0.316060         8.6004 
 230   0.0000       0.323606         8.8058 
 231   0.0000       0.331449         9.0192 
 232   0.0000       0.332549         9.0491 
 233   0.0000       0.336146         9.1470 
 234   0.0000       0.342518         9.3204 
 235   0.0000       0.354635         9.6501 
 236   0.0000       0.356575         9.7029 
 237   0.0000       0.358520         9.7558 
 238   0.0000       0.362264         9.8577 
 239   0.0000       0.366642         9.9768 
 240   0.0000       0.367318         9.9952 
 241   0.0000       0.376500        10.2451 
 242   0.0000       0.384486        10.4624 
 243   0.0000       0.387422        10.5423 
 244   0.0000       0.394213        10.7271 
 245   0.0000       0.395763        10.7693 
 246   0.0000       0.397534        10.8175 
 247   0.0000       0.407450        11.0873 
 248   0.0000       0.408757        11.1228 
 249   0.0000       0.415411        11.3039 
 250   0.0000       0.418935        11.3998 
 251   0.0000       0.423480        11.5235 
 252   0.0000       0.427642        11.6367 
 253   0.0000       0.429356        11.6834 
 254   0.0000       0.440024        11.9736 
 255   0.0000       0.440714        11.9924 
 256   0.0000       0.450862        12.2686 
 257   0.0000       0.454953        12.3799 
 258   0.0000       0.456387        12.4189 
 259   0.0000       0.463454        12.6112 
 260   0.0000       0.466093        12.6830 
 261   0.0000       0.469306        12.7705 
 262   0.0000       0.471857        12.8399 
 263   0.0000       0.481017        13.0891 
 264   0.0000       0.482345        13.1253 
 265   0.0000       0.483187        13.1482 
 266   0.0000       0.502363        13.6700 
 267   0.0000       0.506993        13.7960 
 268   0.0000       0.511250        13.9118 
 269   0.0000       0.519524        14.1370 
 270   0.0000       0.520310        14.1583 
 271   0.0000       0.525592        14.3021 
 272   0.0000       0.528074        14.3696 
 273   0.0000       0.534156        14.5351 
 274   0.0000       0.537849        14.6356 
 275   0.0000       0.539813        14.6891 
 276   0.0000       0.541497        14.7349 
 277   0.0000       0.542487        14.7618 
 278   0.0000       0.546419        14.8688 
 279   0.0000       0.552792        15.0422 
 280   0.0000       0.554401        15.0860 
 281   0.0000       0.556388        15.1401 
 282   0.0000       0.557739        15.1768 
 283   0.0000       0.570286        15.5183 
 284   0.0000       0.572885        15.5890 
 285   0.0000       0.589772        16.0485 
 286   0.0000       0.594507        16.1773 
 287   0.0000       0.607794        16.5389 
 288   0.0000       0.613102        16.6833 
 289   0.0000       0.622928        16.9507 
 290   0.0000       0.671522        18.2730 
 291   0.0000       0.688134        18.7251 
 292   0.0000       0.695222        18.9180 
 293   0.0000       0.702938        19.1279 
 294   0.0000       0.719776        19.5861 
 295   0.0000       0.722778        19.6678 
 296   0.0000       0.741817        20.1859 
 297   0.0000       0.751135        20.4394 
 298   0.0000       0.753858        20.5135 
 299   0.0000       0.759052        20.6549 
 300   0.0000       0.777072        21.1452 
 301   0.0000       0.777965        21.1695 
 302   0.0000       0.780784        21.2462 
 303   0.0000       0.786859        21.4115 
 304   0.0000       0.792448        21.5636 
 305   0.0000       0.808499        22.0004 
 306   0.0000       0.825141        22.4532 
 307   0.0000       0.828799        22.5528 
 308   0.0000       0.828887        22.5552 
 309   0.0000       0.840778        22.8787 
 310   0.0000       0.840981        22.8843 
 311   0.0000       0.850921        23.1547 
 312   0.0000       0.857248        23.3269 
 313   0.0000       0.869823        23.6691 
 314   0.0000       0.879325        23.9276 
 315   0.0000       0.880497        23.9595 
 316   0.0000       0.890799        24.2399 
 317   0.0000       0.904590        24.6151 
 318   0.0000       0.907123        24.6841 
 319   0.0000       0.908479        24.7210 
 320   0.0000       0.923296        25.1242 
 321   0.0000       0.929600        25.2957 
 322   0.0000       0.933242        25.3948 
 323   0.0000       0.933568        25.4037 
 324   0.0000       0.942506        25.6469 
 325   0.0000       0.943147        25.6643 
 326   0.0000       0.951208        25.8837 
 327   0.0000       0.959048        26.0970 
 328   0.0000       0.959865        26.1192 
 329   0.0000       1.004519        27.3343 
 330   0.0000       1.073581        29.2136 
 331   0.0000       1.090677        29.6788 
 332   0.0000       1.097943        29.8765 
 333   0.0000       1.168923        31.8080 
 334   0.0000       1.242075        33.7986 
 335   0.0000       1.244010        33.8512 
 336   0.0000       1.255855        34.1735 
 337   0.0000       1.270286        34.5662 
 338   0.0000       1.282946        34.9107 
 339   0.0000       1.292314        35.1657 
 340   0.0000       1.299950        35.3734 
 341   0.0000       1.300337        35.3840 
 342   0.0000       1.311646        35.6917 
 343   0.0000       1.314282        35.7634 
 344   0.0000       1.329214        36.1698 
 345   0.0000       1.337809        36.4036 
 346   0.0000       1.343465        36.5575 
 347   0.0000       1.351464        36.7752 
 348   0.0000       1.360761        37.0282 
 349   0.0000       1.364258        37.1234 
 350   0.0000       1.375004        37.4158 
 351   0.0000       1.386425        37.7265 
 352   0.0000       1.394678        37.9511 
 353   0.0000       1.399331        38.0777 
 354   0.0000       1.409858        38.3642 
 355   0.0000       1.419972        38.6394 
 356   0.0000       1.425885        38.8003 
 357   0.0000       1.429640        38.9025 
 358   0.0000       1.435278        39.0559 
 359   0.0000       1.437696        39.1217 
 360   0.0000       1.444801        39.3150 
 361   0.0000       1.449533        39.4438 
 362   0.0000       1.450953        39.4824 
 363   0.0000       1.461956        39.7818 
 364   0.0000       1.462695        39.8020 
 365   0.0000       1.472030        40.0560 
 366   0.0000       1.476497        40.1775 
 367   0.0000       1.478832        40.2411 
 368   0.0000       1.484103        40.3845 
 369   0.0000       1.486728        40.4559 
 370   0.0000       1.488436        40.5024 
 371   0.0000       1.490785        40.5663 
 372   0.0000       1.498022        40.7632 
 373   0.0000       1.500300        40.8252 
 374   0.0000       1.503477        40.9117 
 375   0.0000       1.505325        40.9620 
 376   0.0000       1.511691        41.1352 
 377   0.0000       1.513313        41.1793 
 378   0.0000       1.516492        41.2659 
 379   0.0000       1.521972        41.4150 
 380   0.0000       1.523588        41.4589 
 381   0.0000       1.525657        41.5152 
 382   0.0000       1.526430        41.5363 
 383   0.0000       1.533707        41.7343 
 384   0.0000       1.535498        41.7830 
 385   0.0000       1.539685        41.8970 
 386   0.0000       1.539779        41.8995 
 387   0.0000       1.540451        41.9178 
 388   0.0000       1.541657        41.9506 
 389   0.0000       1.546010        42.0691 
 390   0.0000       1.549181        42.1553 
 391   0.0000       1.549509        42.1643 
 392   0.0000       1.550138        42.1814 
 393   0.0000       1.550603        42.1941 
 394   0.0000       1.551619        42.2217 
 395   0.0000       1.552520        42.2462 
 396   0.0000       1.555081        42.3159 
 397   0.0000       1.555727        42.3335 
 398   0.0000       1.559857        42.4459 
 399   0.0000       1.560513        42.4637 
 400   0.0000       1.561984        42.5038 
 401   0.0000       1.563559        42.5466 
 402   0.0000       1.565643        42.6033 
 403   0.0000       1.565832        42.6085 
 404   0.0000       1.567372        42.6504 
 405   0.0000       1.568504        42.6812 
 406   0.0000       1.570345        42.7313 
 407   0.0000       1.573088        42.8059 
 408   0.0000       1.573893        42.8278 
 409   0.0000       1.575629        42.8750 
 410   0.0000       1.576149        42.8892 
 411   0.0000       1.577555        42.9275 
 412   0.0000       1.580927        43.0192 
 413   0.0000       1.582744        43.0687 
 414   0.0000       1.584174        43.1076 
 415   0.0000       1.586064        43.1590 
 416   0.0000       1.587653        43.2022 
 417   0.0000       1.588792        43.2332 
 418   0.0000       1.590038        43.2671 
 419   0.0000       1.590856        43.2894 
 420   0.0000       1.594204        43.3805 
 421   0.0000       1.596817        43.4516 
 422   0.0000       1.597309        43.4650 
 423   0.0000       1.598316        43.4924 
 424   0.0000       1.598363        43.4937 
 425   0.0000       1.600366        43.5482 
 426   0.0000       1.601086        43.5678 
 427   0.0000       1.604463        43.6597 
 428   0.0000       1.605647        43.6919 
 429   0.0000       1.610508        43.8241 
 430   0.0000       1.611839        43.8604 
 431   0.0000       1.616389        43.9842 
 432   0.0000       1.619620        44.0721 
 433   0.0000       1.620175        44.0872 
 434   0.0000       1.623241        44.1706 
 435   0.0000       1.624486        44.2045 
 436   0.0000       1.629858        44.3507 
 437   0.0000       1.631248        44.3885 
 438   0.0000       1.633184        44.4412 
 439   0.0000       1.634630        44.4805 
 440   0.0000       1.634774        44.4845 
 441   0.0000       1.637214        44.5509 
 442   0.0000       1.641970        44.6803 
 443   0.0000       1.645721        44.7823 
 444   0.0000       1.648205        44.8499 
 445   0.0000       1.649083        44.8738 
 446   0.0000       1.650775        44.9199 
 447   0.0000       1.655051        45.0362 
 448   0.0000       1.658374        45.1266 
 449   0.0000       1.660361        45.1807 
 450   0.0000       1.661895        45.2225 
 451   0.0000       1.665199        45.3124 
 452   0.0000       1.665715        45.3264 
 453   0.0000       1.670561        45.4583 
 454   0.0000       1.676154        45.6105 
 455   0.0000       1.684185        45.8290 
 456   0.0000       1.684625        45.8410 
 457   0.0000       1.688964        45.9591 
 458   0.0000       1.689136        45.9637 
 459   0.0000       1.694054        46.0976 
 460   0.0000       1.694222        46.1021 
 461   0.0000       1.699104        46.2350 
 462   0.0000       1.700779        46.2806 
 463   0.0000       1.705090        46.3979 
 464   0.0000       1.707432        46.4616 
 465   0.0000       1.719630        46.7935 
 466   0.0000       1.720837        46.8264 
 467   0.0000       1.723008        46.8854 
 468   0.0000       1.727011        46.9944 
 469   0.0000       1.731661        47.1209 
 470   0.0000       1.732189        47.1353 
 471   0.0000       1.741340        47.3843 
 472   0.0000       1.742391        47.4129 
 473   0.0000       1.754440        47.7407 
 474   0.0000       1.758416        47.8489 
 475   0.0000       1.769518        48.1510 
 476   0.0000       1.777554        48.3697 
 477   0.0000       1.796793        48.8932 
 478   0.0000       1.799152        48.9574 
 479   0.0000       1.810913        49.2774 
 480   0.0000       1.830196        49.8022 
 481   0.0000       1.831643        49.8415 
 482   0.0000       1.837802        50.0091 
 483   0.0000       1.843177        50.1554 
 484   0.0000       1.849541        50.3286 
 485   0.0000       1.858503        50.5724 
 486   0.0000       1.860001        50.6132 
 487   0.0000       1.866283        50.7842 
 488   0.0000       1.876298        51.0567 
 489   0.0000       1.883628        51.2561 
 490   0.0000       1.887046        51.3491 
 491   0.0000       1.893019        51.5117 
 492   0.0000       1.894339        51.5476 
 493   0.0000       1.902955        51.7820 
 494   0.0000       1.912401        52.0391 
 495   0.0000       1.915853        52.1330 
 496   0.0000       1.936673        52.6995 
 497   0.0000       1.964976        53.4697 
 498   0.0000       1.965534        53.4849 
 499   0.0000       1.978620        53.8410 
 500   0.0000       2.019401        54.9507 
 501   0.0000       2.042278        55.5732 
 502   0.0000       2.108663        57.3796 
 503   0.0000       2.221121        60.4398 
 504   0.0000       2.240061        60.9552 
 505   0.0000       2.243947        61.0609 
 506   0.0000       2.301577        62.6291 
 507   0.0000       2.304475        62.7079 
 508   0.0000       2.343297        63.7644 
 509   0.0000       2.410467        65.5922 
 510   0.0000       2.459303        66.9210 
 511   0.0000       2.461264        66.9744 
 512   0.0000       2.477996        67.4297 
 513   0.0000       2.523672        68.6726 
 514   0.0000       2.529596        68.8338 
 515   0.0000       2.546749        69.3006 
 516   0.0000       2.589034        70.4512 
 517   0.0000       2.594829        70.6089 
 518   0.0000       2.608619        70.9841 
 519   0.0000       2.615749        71.1781 
 520   0.0000       2.625414        71.4411 
 521   0.0000       2.681579        72.9695 
 522   0.0000       3.119354        84.8819 
 523   0.0000       3.313834        90.1740 
 524   0.0000       3.318322        90.2961 
 525   0.0000       3.323830        90.4460 
 526   0.0000       3.326314        90.5136 
 527   0.0000       3.332532        90.6828 
 528   0.0000       3.335280        90.7576 
 529   0.0000       3.348020        91.1043 
 530   0.0000       3.381149        92.0057 
 531   0.0000       3.428981        93.3073 
 532   0.0000       3.573998        97.2534 
 533   0.0000       3.631955        98.8305 
 534   0.0000       3.638441        99.0070 
 535   0.0000      23.900383       650.3625 
 536   0.0000      23.920156       650.9005 
 537   0.0000      24.249904       659.8734 
 538   0.0000      24.356123       662.7638 
 539   0.0000      24.416223       664.3992 
 540   0.0000      24.882697       677.0926 
 541   0.0000      24.928731       678.3453 
 542   0.0000      24.933835       678.4842 
 543   0.0000      25.181592       685.2259 
 544   0.0000      25.268372       687.5874 
 545   0.0000      25.479772       693.3399 
 546   0.0000      25.552551       695.3203 
 547   0.0000      25.663994       698.3528 
 548   0.0000      25.812059       702.3818 
 549   0.0000      26.026580       708.2192 
 550   0.0000      26.082798       709.7490 
 551   0.0000      26.115325       710.6341 
 552   0.0000      26.307590       715.8659 
 553   0.0000      26.441412       719.5074 
 554   0.0000      26.504365       721.2204 
 555   0.0000      26.568639       722.9694 
 556   0.0000      26.651305       725.2189 
 557   0.0000      26.747593       727.8390 
 558   0.0000      26.899769       731.9799 
 559   0.0000      26.920852       732.5536 
 560   0.0000      27.035644       735.6773 
 561   0.0000      27.103026       737.5108 
 562   0.0000      27.165001       739.1973 
 563   0.0000      27.356777       744.4157 
 564   0.0000      27.367274       744.7014 
 565   0.0000      27.507439       748.5155 
 566   0.0000      27.561650       749.9906 
 567   0.0000      27.719933       754.2977 
 568   0.0000      27.731840       754.6217 
 569   0.0000      27.787727       756.1425 
 570   0.0000      27.838343       757.5198 
 571   0.0000      28.111249       764.9460 
 572   0.0000      28.363007       771.7967 
 573   0.0000      28.632205       779.1219 
 574   0.0000      30.136668       820.0604 
 575   0.0000      31.464724       856.1987 
 576   0.0000      31.672797       861.8606 
 577   0.0000      44.394249      1208.0289 
 578   0.0000      44.499901      1210.9039 
 579   0.0000      44.524820      1211.5819 
 580   0.0000      44.533284      1211.8123 
 581   0.0000      44.565038      1212.6763 
 582   0.0000      44.601864      1213.6784 
 583   0.0000      44.604996      1213.7637 
 584   0.0000      44.626330      1214.3442 
 585   0.0000      44.658772      1215.2270 
 586   0.0000      44.664254      1215.3761 
 587   0.0000      44.686852      1215.9911 
 588   0.0000      44.700022      1216.3494 
 589   0.0000      44.710447      1216.6331 
 590   0.0000      44.761938      1218.0343 
 591   0.0000     205.254114      5585.2484 
 592   0.0000     205.296955      5586.4142 
 593   0.0000     205.307099      5586.6902 
 594   0.0000     205.309863      5586.7654 
 595   0.0000     205.325298      5587.1854 
 596   0.0000     205.342000      5587.6399 
 597   0.0000     205.342434      5587.6517 
 598   0.0000     205.354906      5587.9911 
 599   0.0000     205.364662      5588.2566 
 600   0.0000     205.366245      5588.2996 
 601   0.0000     205.376571      5588.5806 
 602   0.0000     205.379370      5588.6568 
 603   0.0000     205.382380      5588.7387 
 604   0.0000     205.405935      5589.3797 

                 SPIN DOWN ORBITALS
  NO   OCC          E(Eh)            E(eV) 
   0   1.0000    -235.046690     -6395.9456 
   1   1.0000     -27.135012      -738.3812 
   2   1.0000     -23.202835      -631.3812 
   3   1.0000     -23.202531      -631.3730 
   4   1.0000     -23.202186      -631.3636 
   5   1.0000      -4.124121      -112.2230 
   6   1.0000      -4.123950      -112.2184 
   7   1.0000      -4.121730      -112.1580 
   8   1.0000      -4.121629      -112.1552 
   9   1.0000      -4.120137      -112.1146 
  10   1.0000      -4.119969      -112.1100 
  11   1.0000      -4.119024      -112.0843 
  12   1.0000      -4.118820      -112.0788 
  13   1.0000      -4.116898      -112.0265 
  14   1.0000      -4.116815      -112.0242 
  15   1.0000      -4.114876      -111.9715 
  16   1.0000      -4.113903      -111.9450 
  17   1.0000      -4.113732      -111.9403 
  18   1.0000      -4.101768      -111.6148 
  19   1.0000      -3.034698       -82.5783 
  20   1.0000      -2.313648       -62.9576 
  21   1.0000      -2.313392       -62.9506 
  22   1.0000      -2.312178       -62.9176 
  23   1.0000      -2.310478       -62.8713 
  24   1.0000      -2.310014       -62.8587 
  25   1.0000      -2.309734       -62.8511 
  26   1.0000      -2.309697       -62.8500 
  27   1.0000      -2.309465       -62.8437 
  28   1.0000      -2.308006       -62.8040 
  29   1.0000      -2.307965       -62.8029 
  30   1.0000      -2.306780       -62.7707 
  31   1.0000      -2.306380       -62.7598 
  32   1.0000      -2.306232       -62.7558 
  33   1.0000      -2.305953       -62.7482 
  34   1.0000      -2.305316       -62.7308 
  35   1.0000      -2.305277       -62.7298 
  36   1.0000      -2.304958       -62.7211 
  37   1.0000      -2.304760       -62.7157 
  38   1.0000      -2.304549       -62.7100 
  39   1.0000      -2.304280       -62.7027 
  40   1.0000      -2.303722       -62.6875 
  41   1.0000      -2.303424       -62.6794 
  42   1.0000      -2.303070       -62.6697 
  43   1.0000      -2.302800       -62.6624 
  44   1.0000      -2.302614       -62.6573 
  45   1.0000      -2.302505       -62.6544 
  46   1.0000      -2.302275       -62.6481 
  47   1.0000      -2.302089       -62.6430 
  48   1.0000      -2.301597       -62.6296 
  49   1.0000      -2.301426       -62.6250 
  50   1.0000      -2.300295       -62.5942 
  51   1.0000      -2.299816       -62.5812 
  52   1.0000      -2.299711       -62.5783 
  53   1.0000      -2.299256       -62.5659 
  54   1.0000      -2.299024       -62.5596 
  55   1.0000      -2.298370       -62.5418 
  56   1.0000      -2.297184       -62.5096 
  57   1.0000      -2.297144       -62.5085 
  58   1.0000      -2.296531       -62.4918 
  59   1.0000      -2.289227       -62.2930 
  60   1.0000      -2.286938       -62.2308 
  61   1.0000      -2.286262       -62.2124 
  62   1.0000      -1.892986       -51.5108 
  63   1.0000      -1.892571       -51.4995 
  64   1.0000      -1.892431       -51.4957 
  65   1.0000      -0.430606       -11.7174 
  66   1.0000      -0.394699       -10.7403 
  67   1.0000      -0.390619       -10.6293 
  68   1.0000      -0.389056       -10.5868 
  69   1.0000      -0.379436       -10.3250 
  70   1.0000      -0.375170       -10.2089 
  71   1.0000      -0.374261       -10.1842 
  72   1.0000      -0.372595       -10.1388 
  73   1.0000      -0.369190       -10.0462 
  74   1.0000      -0.365167        -9.9367 
  75   1.0000      -0.363884        -9.9018 
  76   1.0000      -0.362620        -9.8674 
  77   1.0000      -0.359220        -9.7749 
  78   1.0000      -0.357159        -9.7188 
  79   1.0000      -0.355885        -9.6841 
  80   1.0000      -0.354677        -9.6513 
  81   1.0000      -0.351069        -9.5531 
  82   1.0000      -0.350067        -9.5258 
  83   1.0000      -0.349305        -9.5051 
  84   1.0000      -0.347494        -9.4558 
  85   1.0000      -0.346075        -9.4172 
  86   1.0000      -0.343371        -9.3436 
  87   1.0000      -0.339579        -9.2404 
  88   1.0000      -0.335059        -9.1174 
  89   1.0000      -0.332775        -9.0553 
  90   1.0000      -0.331244        -9.0136 
  91   1.0000      -0.327540        -8.9128 
  92   1.0000      -0.327424        -8.9097 
  93   1.0000      -0.326302        -8.8791 
  94   1.0000      -0.323325        -8.7981 
  95   1.0000      -0.319306        -8.6887 
  96   1.0000      -0.317044        -8.6272 
  97   1.0000      -0.312849        -8.5131 
  98   1.0000      -0.310887        -8.4597 
  99   1.0000      -0.310570        -8.4510 
 100   1.0000      -0.310385        -8.4460 
 101   1.0000      -0.307095        -8.3565 
 102   1.0000      -0.306294        -8.3347 
 103   1.0000      -0.302983        -8.2446 
 104   1.0000      -0.300322        -8.1722 
 105   1.0000      -0.297264        -8.0890 
 106   1.0000      -0.294636        -8.0174 
 107   1.0000      -0.294276        -8.0077 
 108   1.0000      -0.290197        -7.8967 
 109   1.0000      -0.289568        -7.8795 
 110   1.0000      -0.286928        -7.8077 
 111   1.0000      -0.282894        -7.6979 
 112   1.0000      -0.282341        -7.6829 
 113   1.0000      -0.281237        -7.6528 
 114   1.0000      -0.280518        -7.6333 
 115   1.0000      -0.278962        -7.5909 
 116   1.0000      -0.276934        -7.5357 
 117   1.0000      -0.273275        -7.4362 
 118   1.0000      -0.270871        -7.3708 
 119   1.0000      -0.268719        -7.3122 
 120   1.0000      -0.268145        -7.2966 
 121   1.0000      -0.267680        -7.2839 
 122   1.0000      -0.265426        -7.2226 
 123   1.0000      -0.264729        -7.2037 
 124   1.0000      -0.263208        -7.1623 
 125   1.0000      -0.262426        -7.1410 
 126   1.0000      -0.261785        -7.1235 
 127   1.0000      -0.261178        -7.1070 
 128   1.0000      -0.259703        -7.0669 
 129   1.0000      -0.258351        -7.0301 
 130   1.0000      -0.256172        -6.9708 
 131   1.0000      -0.255369        -6.9490 
 132   1.0000      -0.254272        -6.9191 
 133   1.0000      -0.252006        -6.8574 
 134   1.0000      -0.251528        -6.8444 
 135   1.0000      -0.250165        -6.8073 
 136   1.0000      -0.249292        -6.7836 
 137   1.0000      -0.248961        -6.7746 
 138   1.0000      -0.232581        -6.3289 
 139   1.0000      -0.227285        -6.1848 
 140   1.0000      -0.214711        -5.8426 
 141   1.0000      -0.212672        -5.7871 
 142   1.0000      -0.205311        -5.5868 
 143   0.0000      -0.178244        -4.8503 
 144   0.0000      -0.148666        -4.0454 
 145   0.0000      -0.130033        -3.5384 
 146   0.0000      -0.119374        -3.2483 
 147   0.0000      -0.118911        -3.2357 
 148   0.0000      -0.109820        -2.9883 
 149   0.0000      -0.108544        -2.9536 
 150   0.0000      -0.108395        -2.9496 
 151   0.0000      -0.106656        -2.9022 
 152   0.0000      -0.105660        -2.8752 
 153   0.0000      -0.102273        -2.7830 
 154   0.0000      -0.100157        -2.7254 
 155   0.0000      -0.073213        -1.9922 
 156   0.0000      -0.061740        -1.6800 
 157   0.0000      -0.058269        -1.5856 
 158   0.0000      -0.044895        -1.2217 
 159   0.0000      -0.044555        -1.2124 
 160   0.0000      -0.031974        -0.8700 
 161   0.0000      -0.012253        -0.3334 
 162   0.0000      -0.008891        -0.2419 
 163   0.0000      -0.007827        -0.2130 
 164   0.0000       0.013979         0.3804 
 165   0.0000       0.014401         0.3919 
 166   0.0000       0.018081         0.4920 
 167   0.0000       0.022103         0.6015 
 168   0.0000       0.022716         0.6181 
 169   0.0000       0.037435         1.0187 
 170   0.0000       0.052471         1.4278 
 171   0.0000       0.052560         1.4302 
 172   0.0000       0.058128         1.5818 
 173   0.0000       0.059947         1.6312 
 174   0.0000       0.063485         1.7275 
 175   0.0000       0.072283         1.9669 
 176   0.0000       0.077277         2.1028 
 177   0.0000       0.078465         2.1351 
 178   0.0000       0.083270         2.2659 
 179   0.0000       0.083924         2.2837 
 180   0.0000       0.086334         2.3493 
 181   0.0000       0.090909         2.4738 
 182   0.0000       0.094393         2.5686 
 183   0.0000       0.098182         2.6717 
 184   0.0000       0.103925         2.8280 
 185   0.0000       0.108328         2.9478 
 186   0.0000       0.108510         2.9527 
 187   0.0000       0.118158         3.2152 
 188   0.0000       0.122620         3.3366 
 189   0.0000       0.138020         3.7557 
 190   0.0000       0.143167         3.8958 
 191   0.0000       0.146641         3.9903 
 192   0.0000       0.150754         4.1022 
 193   0.0000       0.161029         4.3818 
 194   0.0000       0.161621         4.3979 
 195   0.0000       0.163605         4.4519 
 196   0.0000       0.174040         4.7359 
 197   0.0000       0.177425         4.8280 
 198   0.0000       0.180853         4.9213 
 199   0.0000       0.181154         4.9294 
 200   0.0000       0.185070         5.0360 
 201   0.0000       0.189070         5.1449 
 202   0.0000       0.191209         5.2031 
 203   0.0000       0.194318         5.2877 
 204   0.0000       0.199280         5.4227 
 205   0.0000       0.210869         5.7381 
 206   0.0000       0.215855         5.8737 
 207   0.0000       0.220608         6.0030 
 208   0.0000       0.227640         6.1944 
 209   0.0000       0.230669         6.2768 
 210   0.0000       0.234213         6.3733 
 211   0.0000       0.243730         6.6322 
 212   0.0000       0.243876         6.6362 
 213   0.0000       0.250525         6.8171 
 214   0.0000       0.252180         6.8622 
 215   0.0000       0.256538         6.9808 
 216   0.0000       0.259628         7.0648 
 217   0.0000       0.267034         7.2664 
 218   0.0000       0.270800         7.3688 
 219   0.0000       0.271364         7.3842 
 220   0.0000       0.275737         7.5032 
 221   0.0000       0.278023         7.5654 
 222   0.0000       0.292721         7.9653 
 223   0.0000       0.298043         8.1102 
 224   0.0000       0.299912         8.1610 
 225   0.0000       0.309812         8.4304 
 226   0.0000       0.312367         8.4999 
 227   0.0000       0.313460         8.5297 
 228   0.0000       0.317574         8.6416 
 229   0.0000       0.320647         8.7253 
 230   0.0000       0.325289         8.8516 
 231   0.0000       0.333681         9.0799 
 232   0.0000       0.334063         9.0903 
 233   0.0000       0.337306         9.1786 
 234   0.0000       0.343962         9.3597 
 235   0.0000       0.356047         9.6885 
 236   0.0000       0.357957         9.7405 
 237   0.0000       0.359905         9.7935 
 238   0.0000       0.363869         9.9014 
 239   0.0000       0.367992        10.0136 
 240   0.0000       0.368410        10.0250 
 241   0.0000       0.377464        10.2713 
 242   0.0000       0.385709        10.4957 
 243   0.0000       0.388275        10.5655 
 244   0.0000       0.394909        10.7460 
 245   0.0000       0.396777        10.7968 
 246   0.0000       0.400627        10.9016 
 247   0.0000       0.409799        11.1512 
 248   0.0000       0.410393        11.1673 
 249   0.0000       0.417693        11.3660 
 250   0.0000       0.421209        11.4617 
 251   0.0000       0.424893        11.5619 
 252   0.0000       0.429924        11.6988 
 253   0.0000       0.434453        11.8221 
 254   0.0000       0.441046        12.0015 
 255   0.0000       0.442424        12.0390 
 256   0.0000       0.453728        12.3466 
 257   0.0000       0.456182        12.4134 
 258   0.0000       0.463639        12.6163 
 259   0.0000       0.468434        12.7467 
 260   0.0000       0.471702        12.8357 
 261   0.0000       0.476695        12.9715 
 262   0.0000       0.480824        13.0839 
 263   0.0000       0.483146        13.1471 
 264   0.0000       0.485616        13.2143 
 265   0.0000       0.488607        13.2957 
 266   0.0000       0.503656        13.7052 
 267   0.0000       0.510333        13.8869 
 268   0.0000       0.514263        13.9938 
 269   0.0000       0.521236        14.1836 
 270   0.0000       0.522649        14.2220 
 271   0.0000       0.527410        14.3515 
 272   0.0000       0.529865        14.4184 
 273   0.0000       0.539669        14.6851 
 274   0.0000       0.542267        14.7558 
[...]
      f+1     :     0.000742
      f-1     :     0.000505
      f+2     :     0.000596
      f-2     :     0.001347
      f+3     :     0.000739
      f-3     :     0.000843
  5 Aus       :     2.593313  s :     2.593313
      pz      :     2.192941  p :     6.476038
      px      :     2.127103
      py      :     2.155993
      dz2     :     1.980165  d :     9.871024
      dxz     :     1.970515
      dyz     :     1.971038
      dx2y2   :     1.982346
      dxy     :     1.966960
      f0      :     0.000861  f :     0.005309
      f+1     :     0.000701
      f-1     :     0.000837
      f+2     :     0.000657
      f-2     :     0.000786
      f+3     :     0.000620
      f-3     :     0.000847
  6 Aus       :     2.571578  s :     2.571578
      pz      :     2.149167  p :     6.570617
      px      :     2.131785
      py      :     2.289665
      dz2     :     1.989349  d :     9.878231
      dxz     :     1.961805
      dyz     :     1.981359
      dx2y2   :     1.966351
      dxy     :     1.979367
      f0      :     0.000959  f :     0.006821
      f+1     :     0.000554
      f-1     :     0.000902
      f+2     :     0.000905
      f-2     :     0.000698
      f+3     :     0.001099
      f-3     :     0.001703
  7 Aus       :     2.542555  s :     2.542555
      pz      :     2.196165  p :     6.536984
      px      :     2.118121
      py      :     2.222698
      dz2     :     1.985977  d :     9.886564
      dxz     :     1.970717
      dyz     :     1.972706
      dx2y2   :     1.982464
      dxy     :     1.974700
      f0      :     0.001141  f :     0.006274
      f+1     :     0.000650
      f-1     :     0.000685
      f+2     :     0.000702
      f-2     :     0.001265
      f+3     :     0.000727
      f-3     :     0.001104
  8 Aus       :     2.542388  s :     2.542388
      pz      :     2.101399  p :     6.537662
      px      :     2.251111
      py      :     2.185151
      dz2     :     1.954401  d :     9.886488
      dxz     :     1.999614
      dyz     :     1.978259
      dx2y2   :     1.980469
      dxy     :     1.973745
      f0      :     0.000804  f :     0.006295
      f+1     :     0.000810
      f-1     :     0.000716
      f+2     :     0.000682
      f-2     :     0.001291
      f+3     :     0.000788
      f-3     :     0.001204
  9 Aus       :     2.522339  s :     2.522339
      pz      :     2.122197  p :     6.460823
      px      :     2.184786
      py      :     2.153839
      dz2     :     1.996283  d :     9.968175
      dxz     :     2.007316
      dyz     :     1.987681
      dx2y2   :     1.988051
      dxy     :     1.988844
      f0      :     0.000967  f :     0.004824
      f+1     :     0.000608
      f-1     :     0.000578
      f+2     :     0.000506
      f-2     :     0.000722
      f+3     :     0.000592
      f-3     :     0.000850
 10 Aus       :     2.572414  s :     2.572414
      pz      :     2.188065  p :     6.570024
      px      :     2.265022
      py      :     2.116937
      dz2     :     1.966414  d :     9.878271
      dxz     :     1.974648
      dyz     :     1.985459
      dx2y2   :     1.966786
      dxy     :     1.984964
      f0      :     0.001188  f :     0.006823
      f+1     :     0.000823
      f-1     :     0.000627
      f+2     :     0.000924
      f-2     :     0.001339
      f+3     :     0.000924
      f-3     :     0.000999
 11 Aus       :     2.605157  s :     2.605157
      pz      :     2.187581  p :     6.443332
      px      :     2.109346
      py      :     2.146406
      dz2     :     1.977998  d :     9.880405
      dxz     :     1.973901
      dyz     :     1.980892
      dx2y2   :     1.983019
      dxy     :     1.964595
      f0      :     0.000851  f :     0.004521
      f+1     :     0.000544
      f-1     :     0.000599
      f+2     :     0.000514
      f-2     :     0.000734
      f+3     :     0.000462
      f-3     :     0.000817
 12 Aus       :     2.630987  s :     2.630987
      pz      :     2.142538  p :     6.437133
      px      :     2.114679
      py      :     2.179916
      dz2     :     1.986774  d :     9.889985
      dxz     :     1.967025
      dyz     :     1.979526
      dx2y2   :     1.979970
      dxy     :     1.976690
      f0      :     0.000956  f :     0.005414
      f+1     :     0.000576
      f-1     :     0.000656
      f+2     :     0.000561
      f-2     :     0.000825
      f+3     :     0.000692
      f-3     :     0.001150
 13 Aus       :     2.593489  s :     2.593489
      pz      :     2.173665  p :     6.475743
      px      :     2.112341
      py      :     2.189737
      dz2     :     1.988578  d :     9.871220
      dxz     :     1.961422
      dyz     :     1.973207
      dx2y2   :     1.984837
      dxy     :     1.963176
      f0      :     0.000969  f :     0.005309
      f+1     :     0.000598
      f-1     :     0.000688
      f+2     :     0.000641
      f-2     :     0.000849
      f+3     :     0.000607
      f-3     :     0.000958
 14 Mns       :     6.251161  s :     6.251161
      pz      :     4.183797  p :    12.545672
      px      :     4.191103
      py      :     4.170772
      dz2     :     1.357054  d :     6.723714
      dxz     :     1.416436
      dyz     :     1.255835
      dx2y2   :     1.318277
      dxy     :     1.376112
      f0      :     0.000172  f :     0.000824
      f+1     :     0.000094
      f-1     :     0.000086
      f+2     :     0.000074
      f-2     :     0.000170
      f+3     :     0.000071
      f-3     :     0.000158

SPIN
  0 Aus       :     0.012845  s :     0.012845
      pz      :    -0.031207  p :    -0.063635
      px      :    -0.021299
      py      :    -0.011130
      dz2     :    -0.005225  d :    -0.050767
      dxz     :    -0.009056
      dyz     :    -0.014223
      dx2y2   :    -0.017973
      dxy     :    -0.004290
      f0      :    -0.000014  f :    -0.000100
      f+1     :    -0.000009
      f-1     :    -0.000037
      f+2     :    -0.000009
      f-2     :    -0.000001
      f+3     :     0.000002
      f-3     :    -0.000032
  1 Aus       :    -0.078913  s :    -0.078913
      pz      :    -0.003558  p :    -0.032202
      px      :     0.001342
      py      :    -0.029986
      dz2     :     0.011146  d :     0.005805
      dxz     :     0.001905
      dyz     :    -0.002713
      dx2y2   :    -0.004351
      dxy     :    -0.000182
      f0      :     0.000141  f :     0.000125
      f+1     :     0.000050
      f-1     :     0.000040
      f+2     :    -0.000014
      f-2     :    -0.000019
      f+3     :    -0.000004
      f-3     :    -0.000070
  2 Aus       :    -0.010594  s :    -0.010594
      pz      :    -0.024303  p :    -0.071040
      px      :    -0.017353
      py      :    -0.029384
      dz2     :     0.001676  d :     0.009268
      dxz     :     0.006499
      dyz     :    -0.002062
      dx2y2   :     0.000183
      dxy     :     0.002971
      f0      :    -0.000007  f :     0.000080
      f+1     :    -0.000002
      f-1     :    -0.000019
      f+2     :     0.000021
      f-2     :     0.000019
      f+3     :     0.000016
      f-3     :     0.000051
  3 Aus       :    -0.078917  s :    -0.078917
      pz      :    -0.018292  p :    -0.032195
      px      :    -0.014667
      py      :     0.000764
      dz2     :     0.001146  d :     0.005756
      dxz     :     0.001353
      dyz     :    -0.006107
      dx2y2   :     0.004500
      dxy     :     0.004863
      f0      :     0.000022  f :     0.000126
      f+1     :     0.000019
      f-1     :    -0.000022
      f+2     :     0.000019
      f-2     :     0.000030
      f+3     :    -0.000002
      f-3     :     0.000060
  4 Aus       :    -0.010451  s :    -0.010451
      pz      :    -0.028168  p :    -0.030250
      px      :    -0.004671
      py      :     0.002588
      dz2     :    -0.006066  d :    -0.009632
      dxz     :     0.000431
      dyz     :    -0.009265
      dx2y2   :     0.007615
      dxy     :    -0.002347
      f0      :    -0.000031  f :    -0.000013
      f+1     :    -0.000015
      f-1     :     0.000017
      f+2     :    -0.000019
      f-2     :    -0.000012
      f+3     :    -0.000008
      f-3     :     0.000056
  5 Aus       :    -0.010889  s :    -0.010889
      pz      :    -0.013184  p :    -0.044125
      px      :    -0.027606
      py      :    -0.003335
      dz2     :    -0.011230  d :    -0.007179
      dxz     :     0.002511
      dyz     :     0.001748
      dx2y2   :    -0.001658
      dxy     :     0.001451
      f0      :     0.000009  f :     0.000017
      f+1     :    -0.000031
      f-1     :     0.000001
      f+2     :    -0.000013
      f-2     :     0.000044
      f+3     :     0.000008
      f-3     :    -0.000001
  6 Aus       :    -0.029240  s :    -0.029240
      pz      :    -0.009044  p :    -0.039999
      px      :    -0.028504
      py      :    -0.002450
      dz2     :     0.001649  d :    -0.026384
      dxz     :     0.000017
      dyz     :    -0.011753
      dx2y2   :    -0.004307
      dxy     :    -0.011989
      f0      :    -0.000007  f :     0.000074
      f+1     :     0.000025
      f-1     :    -0.000007
      f+2     :     0.000038
      f-2     :     0.000016
      f+3     :     0.000000
      f-3     :     0.000009
  7 Aus       :    -0.052776  s :    -0.052776
      pz      :    -0.028629  p :    -0.052420
      px      :    -0.018841
      py      :    -0.004949
      dz2     :     0.001689  d :    -0.005068
      dxz     :    -0.007861
      dyz     :    -0.005011
      dx2y2   :     0.001869
      dxy     :     0.004247
      f0      :     0.000020  f :     0.000125
      f+1     :     0.000000
      f-1     :    -0.000001
      f+2     :     0.000019
      f-2     :     0.000029
      f+3     :    -0.000003
      f-3     :     0.000060
  8 Aus       :    -0.052571  s :    -0.052571
      pz      :    -0.007915  p :    -0.052711
      px      :     0.004869
      py      :    -0.049666
      dz2     :     0.006415  d :    -0.005284
      dxz     :     0.001053
      dyz     :     0.004147
      dx2y2   :    -0.017764
      dxy     :     0.000865
      f0      :     0.000110  f :     0.000123
      f+1     :     0.000034
      f-1     :     0.000031
      f+2     :    -0.000018
      f-2     :    -0.000015
      f+3     :    -0.000008
      f-3     :    -0.000012
  9 Aus       :    -0.150895  s :    -0.150895
      pz      :    -0.010545  p :    -0.006355
      px      :     0.000632
      py      :     0.003558
      dz2     :    -0.004455  d :    -0.016125
      dxz     :    -0.002069
      dyz     :    -0.002333
      dx2y2   :    -0.005295
      dxy     :    -0.001972
      f0      :    -0.000013  f :    -0.000039
      f+1     :    -0.000002
      f-1     :    -0.000009
      f+2     :    -0.000005
      f-2     :     0.000003
      f+3     :     0.000001
      f-3     :    -0.000013
 10 Aus       :    -0.028554  s :    -0.028554
      pz      :    -0.034294  p :    -0.040409
      px      :    -0.008476
      py      :     0.002361
      dz2     :    -0.029865  d :    -0.026426
      dxz     :    -0.002091
      dyz     :    -0.000545
      dx2y2   :     0.003121
      dxy     :     0.002954
      f0      :     0.000001  f :     0.000072
      f+1     :     0.000001
      f-1     :     0.000032
      f+2     :    -0.000006
      f-2     :    -0.000005
      f+3     :     0.000014
      f-3     :     0.000035
 11 Aus       :    -0.023993  s :    -0.023993
      pz      :    -0.011768  p :    -0.041035
      px      :    -0.013683
      py      :    -0.015585
      dz2     :     0.002141  d :     0.009301
      dxz     :     0.001398
      dyz     :    -0.000912
      dx2y2   :    -0.001726
      dxy     :     0.008400
      f0      :     0.000001  f :     0.000100
      f+1     :     0.000021
      f-1     :    -0.000020
      f+2     :    -0.000018
      f-2     :     0.000026
      f+3     :     0.000033
      f-3     :     0.000056
 12 Aus       :    -0.010392  s :    -0.010392
      pz      :    -0.006917  p :    -0.030059
      px      :    -0.020286
      py      :    -0.002856
      dz2     :    -0.003709  d :    -0.009298
      dxz     :     0.006599
      dyz     :    -0.004860
      dx2y2   :    -0.005516
      dxy     :    -0.001812
      f0      :    -0.000002  f :    -0.000011
      f+1     :     0.000015
      f-1     :     0.000004
      f+2     :     0.000004
      f-2     :     0.000019
      f+3     :    -0.000020
      f-3     :    -0.000030
 13 Aus       :    -0.010873  s :    -0.010873
      pz      :    -0.009928  p :    -0.043851
      px      :    -0.028616
      py      :    -0.005308
      dz2     :    -0.003511  d :    -0.007192
      dxz     :     0.004041
      dyz     :    -0.001908
      dx2y2   :    -0.002479
      dxy     :    -0.003335
      f0      :    -0.000013  f :     0.000016
      f+1     :    -0.000021
      f-1     :    -0.000021
      f+2     :    -0.000011
      f-2     :     0.000051
      f+3     :     0.000011
      f-3     :     0.000020
 14 Mns       :     0.019958  s :     0.019958
      pz      :     0.008650  p :     0.027914
      px      :     0.009465
      py      :     0.009799
      dz2     :     0.821520  d :     4.201103
      dxz     :     0.855490
      dyz     :     0.844359
      dx2y2   :     0.829550
      dxy     :     0.850184
      f0      :     0.000011  f :     0.000057
      f+1     :     0.000008
      f-1     :     0.000006
      f+2     :     0.000005
      f-2     :     0.000011
      f+3     :     0.000006
      f-3     :     0.000010


                      *****************************
                      * MAYER POPULATION ANALYSIS *
                      *****************************

  NA   - Mulliken gross atomic population
  ZA   - Total nuclear charge
  QA   - Mulliken gross atomic charge
  VA   - Mayer's total valence
  BVA  - Mayer's bonded valence
  FA   - Mayer's free valence

  ATOM       NA         ZA         QA         VA         BVA        FA
  0 Au    18.5804    19.0000     0.4196     1.4253     1.4192     0.0061
  1 Au    18.7628    19.0000     0.2372     1.5938     1.5657     0.0281
  2 Au    18.9580    19.0000     0.0420     1.7041     1.7001     0.0040
  3 Au    18.7625    19.0000     0.2375     1.5944     1.5663     0.0281
  4 Au    18.7962    19.0000     0.2038     1.5523     1.5504     0.0019
  5 Au    18.7624    19.0000     0.2376     1.6413     1.6374     0.0039
  6 Au    19.1320    19.0000    -0.1320     1.9921     1.9796     0.0125
  7 Au    18.8439    19.0000     0.1561     1.6881     1.6704     0.0177
  8 Au    18.8437    19.0000     0.1563     1.6895     1.6718     0.0176
  9 Au    18.7660    19.0000     0.2340     1.5241     1.4252     0.0989
 10 Au    19.1318    19.0000    -0.1318     1.9918     1.9796     0.0122
 11 Au    18.7934    19.0000     0.2066     1.5348     1.5307     0.0042
 12 Au    18.7976    19.0000     0.2024     1.5529     1.5510     0.0019
 13 Au    18.7624    19.0000     0.2376     1.6411     1.6373     0.0038
 14 Mn    27.3070    25.0000    -2.3070     8.9919     5.0690     3.9229

  Mayer bond orders larger than 0.100000
B(  0-Au,  2-Au) :   0.2776 B(  0-Au,  6-Au) :   0.3253 B(  0-Au,  9-Au) :   0.1656 
B(  0-Au, 10-Au) :   0.3266 B(  1-Au,  2-Au) :   0.2538 B(  1-Au,  3-Au) :   0.1730 
B(  1-Au, 12-Au) :   0.2392 B(  1-Au, 13-Au) :   0.1768 B(  1-Au, 14-Mn) :   0.4433 
B(  2-Au,  3-Au) :   0.2551 B(  2-Au,  6-Au) :   0.1262 B(  2-Au, 10-Au) :   0.1256 
B(  2-Au, 14-Mn) :   0.4501 B(  3-Au,  4-Au) :   0.2392 B(  3-Au,  5-Au) :   0.1766 
B(  3-Au, 14-Mn) :   0.4427 B(  4-Au,  5-Au) :   0.2747 B(  4-Au, 11-Au) :   0.1709 
B(  4-Au, 12-Au) :   0.2295 B(  4-Au, 14-Mn) :   0.3419 B(  5-Au,  6-Au) :   0.3792 
B(  5-Au,  8-Au) :   0.1611 B(  5-Au, 14-Mn) :   0.3974 B(  6-Au,  8-Au) :   0.2393 
B(  6-Au,  9-Au) :   0.2447 B(  6-Au, 14-Mn) :   0.3809 B(  7-Au,  8-Au) :   0.1445 
B(  7-Au,  9-Au) :   0.2405 B(  7-Au, 10-Au) :   0.2396 B(  7-Au, 11-Au) :   0.2237 
B(  7-Au, 13-Au) :   0.1603 B(  7-Au, 14-Mn) :   0.4314 B(  8-Au,  9-Au) :   0.2429 
B(  8-Au, 11-Au) :   0.2247 B(  8-Au, 14-Mn) :   0.4293 B(  9-Au, 10-Au) :   0.2436 
B(  9-Au, 14-Mn) :   0.1122 B( 10-Au, 13-Au) :   0.3813 B( 10-Au, 14-Mn) :   0.3789 
B( 11-Au, 12-Au) :   0.1699 B( 11-Au, 14-Mn) :   0.4768 B( 12-Au, 13-Au) :   0.2743 
B( 12-Au, 14-Mn) :   0.3440 B( 13-Au, 14-Mn) :   0.3962 

-------
TIMINGS
-------

Total SCF time: 0 days 0 hours 3 min 34 sec 

Total time                  ....     214.721 sec
Sum of individual times     ....     211.379 sec  ( 98.4%)

Fock matrix formation       ....     198.860 sec  ( 92.6%)
  Split-RI-J                ....      39.079 sec  ( 19.7% of F)
  XC integration            ....     158.856 sec  ( 79.9% of F)
    Basis function eval.    ....       8.308 sec  (  5.2% of XC)
    Density eval.           ....      78.981 sec  ( 49.7% of XC)
    XC-Functional eval.     ....       4.227 sec  (  2.7% of XC)
    XC-Potential eval.      ....      54.121 sec  ( 34.1% of XC)
Diagonalization             ....       8.298 sec  (  3.9%)
Density matrix formation    ....       0.342 sec  (  0.2%)
Population analysis         ....       0.509 sec  (  0.2%)
Initial guess               ....       0.623 sec  (  0.3%)
Orbital Transformation      ....       0.000 sec  (  0.0%)
Orbital Orthonormalization  ....       0.564 sec  (  0.3%)
DIIS solution               ....       0.000 sec  (  0.0%)
Grid generation             ....       2.748 sec  (  1.3%)

Maximum memory used throughout the entire SCF-calculation: 104.2 MB

-------------------------   --------------------
FINAL SINGLE POINT ENERGY     -3052.859352856102
-------------------------   --------------------


                            ***************************************
                            *     ORCA property calculations      *
                            ***************************************

                                    ---------------------
                                    Active property flags
                                    ---------------------
   (+) Dipole Moment


------------------------------------------------------------------------------
                       ORCA ELECTRIC PROPERTIES CALCULATION
------------------------------------------------------------------------------

Dipole Moment Calculation                       ... on
Quadrupole Moment Calculation                   ... off
Polarizability Calculation                      ... off
GBWName                                         ... scan_job2.gbw
Electron density                                ... scan_job2.scfp
The origin for moment calculation is the CENTER OF MASS  = (14.453481, 13.725338 14.237532)

-------------
DIPOLE MOMENT
-------------
                                X             Y             Z
Electronic contribution:     -5.14399      13.95172       9.53179
Nuclear contribution   :      5.02016     -13.67044      -9.35925
                        -----------------------------------------
Total Dipole Moment    :     -0.12383       0.28128       0.17254
                        -----------------------------------------
Magnitude (a.u.)       :      0.35245
Magnitude (Debye)      :      0.89585



--------------------
Rotational spectrum 
--------------------
 
Rotational constants in cm-1:     0.001238     0.000941     0.000935 
Rotational constants in MHz :    37.100535    28.221771    28.034831 

 Dipole components along the rotational axes: 
x,y,z [a.u.] :    -0.350973    -0.032019    -0.003632 
x,y,z [Debye]:    -0.892102    -0.081387    -0.009231 

 

Timings for individual modules:

Sum of individual times         ...      238.700 sec (=   3.978 min)
GTO integral calculation        ...       23.691 sec (=   0.395 min)   9.9 %
SCF iterations                  ...      215.009 sec (=   3.583 min)  90.1 %



                             ****ORCA TERMINATED NORMALLY****
TOTAL RUN TIME: 0 days 0 hours 10 minutes 44 seconds 521 msec
