
                                 *****************
                                 * O   R   C   A *
                                 *****************

                                            #,                                       
                                            ###                                      
                                            ####                                     
                                            #####                                    
                                            ######                                   
                                           ########,                                 
                                     ,,################,,,,,                         
                               ,,#################################,,                 
                          ,,##########################################,,             
                       ,#########################################, ''#####,          
                    ,#############################################,,   '####,        
                  ,##################################################,,,,####,       
                ,###########''''           ''''###############################       
              ,#####''   ,,,,##########,,,,          '''####'''          '####       
            ,##' ,,,,###########################,,,                        '##       
           ' ,,###''''                  '''############,,,                           
         ,,##''                                '''############,,,,        ,,,,,,###''
      ,#''                                            '''#######################'''  
     '                                                          ''''####''''         
             ,#######,   #######,   ,#######,      ##                                
            ,#'     '#,  ##    ##  ,#'     '#,    #''#        ######   ,####,        
            ##       ##  ##   ,#'  ##            #'  '#       #        #'  '#        
            ##       ##  #######   ##           ,######,      #####,   #    #        
            '#,     ,#'  ##    ##  '#,     ,#' ,#      #,         ##   #,  ,#        
             '#######'   ##     ##  '#######'  #'      '#     #####' # '####'        



                  #######################################################
                  #                        -***-                        #
                  #          Department of theory and spectroscopy      #
                  #    Directorship and core code : Frank Neese         #
                  #        Max Planck Institute fuer Kohlenforschung    #
                  #                Kaiser Wilhelm Platz 1               #
                  #                 D-45470 Muelheim/Ruhr               #
                  #                      Germany                        #
                  #                                                     #
                  #                  All rights reserved                #
                  #                        -***-                        #
                  #######################################################


                         Program Version 5.0.3 -  RELEASE  -


 With contributions from (in alphabetic order):
   Daniel Aravena         : Magnetic Suceptibility
   Michael Atanasov       : Ab Initio Ligand Field Theory (pilot matlab implementation)
   Alexander A. Auer      : GIAO ZORA, VPT2 properties, NMR spectrum
   Ute Becker             : Parallelization
   Giovanni Bistoni       : ED, misc. LED, open-shell LED, HFLD
   Martin Brehm           : Molecular dynamics
   Dmytro Bykov           : SCF Hessian
   Vijay G. Chilkuri      : MRCI spin determinant printing, contributions to CSF-ICE
   Dipayan Datta          : RHF DLPNO-CCSD density
   Achintya Kumar Dutta   : EOM-CC, STEOM-CC
   Dmitry Ganyushin       : Spin-Orbit,Spin-Spin,Magnetic field MRCI
   Miquel Garcia          : C-PCM and meta-GGA Hessian, CC/C-PCM, Gaussian charge scheme
   Yang Guo               : DLPNO-NEVPT2, F12-NEVPT2, CIM, IAO-localization
   Andreas Hansen         : Spin unrestricted coupled pair/coupled cluster methods
   Benjamin Helmich-Paris : MC-RPA, TRAH-SCF, COSX integrals
   Lee Huntington         : MR-EOM, pCC
   Robert Izsak           : Overlap fitted RIJCOSX, COSX-SCS-MP3, EOM
   Marcus Kettner         : VPT2
   Christian Kollmar      : KDIIS, OOCD, Brueckner-CCSD(T), CCSD density, CASPT2, CASPT2-K
   Simone Kossmann        : Meta GGA functionals, TD-DFT gradient, OOMP2, MP2 Hessian
   Martin Krupicka        : Initial AUTO-CI
   Lucas Lang             : DCDCAS
   Marvin Lechner         : AUTO-CI (C++ implementation), FIC-MRCC
   Dagmar Lenk            : GEPOL surface, SMD
   Dimitrios Liakos       : Extrapolation schemes; Compound Job, initial MDCI parallelization
   Dimitrios Manganas     : Further ROCIS development; embedding schemes
   Dimitrios Pantazis     : SARC Basis sets
   Anastasios Papadopoulos: AUTO-CI, single reference methods and gradients
   Taras Petrenko         : DFT Hessian,TD-DFT gradient, ASA, ECA, R-Raman, ABS, FL, XAS/XES, NRVS
   Peter Pinski           : DLPNO-MP2, DLPNO-MP2 Gradient
   Christoph Reimann      : Effective Core Potentials
   Marius Retegan         : Local ZFS, SOC
   Christoph Riplinger    : Optimizer, TS searches, QM/MM, DLPNO-CCSD(T), (RO)-DLPNO pert. Triples
   Tobias Risthaus        : Range-separated hybrids, TD-DFT gradient, RPA, STAB
   Michael Roemelt        : Original ROCIS implementation
   Masaaki Saitow         : Open-shell DLPNO-CCSD energy and density
   Barbara Sandhoefer     : DKH picture change effects
   Avijit Sen             : IP-ROCIS
   Kantharuban Sivalingam : CASSCF convergence, NEVPT2, FIC-MRCI
   Bernardo de Souza      : ESD, SOC TD-DFT
   Georgi Stoychev        : AutoAux, RI-MP2 NMR, DLPNO-MP2 response
   Willem Van den Heuvel  : Paramagnetic NMR
   Boris Wezisla          : Elementary symmetry handling
   Frank Wennmohs         : Technical directorship


 We gratefully acknowledge several colleagues who have allowed us to
 interface, adapt or use parts of their codes:
   Stefan Grimme, W. Hujo, H. Kruse, P. Pracht,  : VdW corrections, initial TS optimization,
                  C. Bannwarth, S. Ehlert          DFT functionals, gCP, sTDA/sTD-DF
   Ed Valeev, F. Pavosevic, A. Kumar             : LibInt (2-el integral package), F12 methods
   Garnet Chan, S. Sharma, J. Yang, R. Olivares  : DMRG
   Ulf Ekstrom                                   : XCFun DFT Library
   Mihaly Kallay                                 : mrcc  (arbitrary order and MRCC methods)
   Jiri Pittner, Ondrej Demel                    : Mk-CCSD
   Frank Weinhold                                : gennbo (NPA and NBO analysis)
   Christopher J. Cramer and Donald G. Truhlar   : smd solvation model
   Lars Goerigk                                  : TD-DFT with DH, B97 family of functionals
   V. Asgeirsson, H. Jonsson                     : NEB implementation
   FAccTs GmbH                                   : IRC, NEB, NEB-TS, DLPNO-Multilevel, CI-OPT
                                                   MM, QMMM, 2- and 3-layer-ONIOM, Crystal-QMMM,
                                                   LR-CPCM, SF, NACMEs, symmetry and pop. for TD-DFT,
                                                   nearIR, NL-DFT gradient (VV10), updates on ESD,
                                                   ML-optimized integration grids
   S Lehtola, MJT Oliveira, MAL Marques          : LibXC Library
   Liviu Ungur et al                             : ANISO software


 Your calculation uses the libint2 library for the computation of 2-el integrals
 For citations please refer to: http://libint.valeyev.net

 Your ORCA version has been built with support for libXC version: 5.1.0
 For citations please refer to: https://tddft.org/programs/libxc/

 This ORCA versions uses:
   CBLAS   interface :  Fast vector & matrix operations
   LAPACKE interface :  Fast linear algebra routines
   SCALAPACK package :  Parallel linear algebra routines
   Shared memory     :  Shared parallel matrices
   BLAS/LAPACK       :  OpenBLAS 0.3.15  USE64BITINT DYNAMIC_ARCH NO_AFFINITY Haswell SINGLE_THREADED
        Core in use  :  Haswell
   Copyright (c) 2011-2014, The OpenBLAS Project




***************************************
The coordinates will be read from file: pbe.xyz
***************************************


================================================================================

cite the ECPs for Au [Def2-ECP] as follows:
Ce-Yb(ecp-28): M. Dolg, H. Stoll, H.Preuss, J. Chem. Phys., 1989, 90, 1730-1734.
Y-Cd(ecp-28), Hf-Hg(ecp-46): D. Andrae,U. Haeussermann, M. Dolg, H. Stoll, H. Preuss, Theor. Chim. Acta, 1990, 77, 123-141.
In-Sb(ecp-28), Tl-Bi(ecp-46): B. Metz, H. Stoll, M. Dolg, J. Chem. Phys., 2000, 113, 2563-2569.
Te-Xe(ecp-28), Po-Rn(ecp-46): K. A. Peterson, D. Figgen, E. Goll, H. Stoll, M. Dolg, J. Chem. Phys., 2003, 119, 11113-11123.
Rb(ecp-28), Cs(ecp-46): T. Leininger, A. Nicklass, W. Kuechle, H. Stoll, M. Dolg, A. Bergner, Chem. Phys. Lett., 1996, 255, 274-280.
Sr(ecp-28), Ba(ecp-46): M. Kaupp, P. V. Schleyer, H. Stoll and H. Preuss, J. Chem. Phys., 1991, 94, 1360-1366.
La(ecp-46): M. Dolg, H. Stoll, A. Savin, H. Preuss, Theor. Chim. Acta, 1989, 75, 173-194.
Lu(ecp-28): X. Cao, M. Dolg, J. Chem. Phys., 2001, 115, 7348-7355.

ECP parameters for Au [Def2-ECP] have been obtained from:
TURBOMOLE (7.0.2)

----- Orbital basis set information -----
Your calculation utilizes the basis: def2-TZVP
   F. Weigend and R. Ahlrichs, Phys. Chem. Chem. Phys. 7, 3297 (2005).

----- AuxJ basis set information -----
Your calculation utilizes the auxiliary basis: def2/J
   F. Weigend, Phys. Chem. Chem. Phys. 8, 1057 (2006).

----- AuxC basis set information -----
Your calculation utilizes the auxiliary basis: def2-TZVP/C
  H-La, Hf-Rn : A. Hellweg, C. Hattig, S. Hofener and W. Klopper, Theor. Chem. Acc. 117, 587 (2007).
        Ce-Lu : J. Chmela and M. E. Harding, Mol. Phys. (2018).

================================================================================
                                        WARNINGS
                       Please study these warnings very carefully!
================================================================================


WARNING: your system is open-shell and RHF/RKS was chosen
  ===> : WILL SWITCH to UHF/UKS


WARNING: No MP2 level density has been requested!
         To caclulate MP2 level properties use
         %mp2 Density relaxed end
         or
         %mp2 Density unrelaxed end
         Otherwise for double-hybrid DFT only the energy is correct!

WARNING: The frozen-core approximation is turned on by default for 
         the MP2 part of double-hybrid DFT.

INFO   : the flag for use of the SHARK integral package has been found!



***************************************
The coordinates will be read from file: pbe.xyz
***************************************


================================================================================

cite the ECPs for Au [Def2-ECP] as follows:
Ce-Yb(ecp-28): M. Dolg, H. Stoll, H.Preuss, J. Chem. Phys., 1989, 90, 1730-1734.
Y-Cd(ecp-28), Hf-Hg(ecp-46): D. Andrae,U. Haeussermann, M. Dolg, H. Stoll, H. Preuss, Theor. Chim. Acta, 1990, 77, 123-141.
In-Sb(ecp-28), Tl-Bi(ecp-46): B. Metz, H. Stoll, M. Dolg, J. Chem. Phys., 2000, 113, 2563-2569.
Te-Xe(ecp-28), Po-Rn(ecp-46): K. A. Peterson, D. Figgen, E. Goll, H. Stoll, M. Dolg, J. Chem. Phys., 2003, 119, 11113-11123.
Rb(ecp-28), Cs(ecp-46): T. Leininger, A. Nicklass, W. Kuechle, H. Stoll, M. Dolg, A. Bergner, Chem. Phys. Lett., 1996, 255, 274-280.
Sr(ecp-28), Ba(ecp-46): M. Kaupp, P. V. Schleyer, H. Stoll and H. Preuss, J. Chem. Phys., 1991, 94, 1360-1366.
La(ecp-46): M. Dolg, H. Stoll, A. Savin, H. Preuss, Theor. Chim. Acta, 1989, 75, 173-194.
Lu(ecp-28): X. Cao, M. Dolg, J. Chem. Phys., 2001, 115, 7348-7355.

ECP parameters for Au [Def2-ECP] have been obtained from:
TURBOMOLE (7.0.2)

----- Orbital basis set information -----
Your calculation utilizes the basis: def2-TZVP
   F. Weigend and R. Ahlrichs, Phys. Chem. Chem. Phys. 7, 3297 (2005).

----- AuxJ basis set information -----
Your calculation utilizes the auxiliary basis: def2/J
   F. Weigend, Phys. Chem. Chem. Phys. 8, 1057 (2006).

----- AuxC basis set information -----
Your calculation utilizes the auxiliary basis: def2-TZVP/C
  H-La, Hf-Rn : A. Hellweg, C. Hattig, S. Hofener and W. Klopper, Theor. Chem. Acc. 117, 587 (2007).
        Ce-Lu : J. Chmela and M. E. Harding, Mol. Phys. (2018).

================================================================================
                                        WARNINGS
                       Please study these warnings very carefully!
================================================================================


WARNING: No MP2 level density has been requested!
         To caclulate MP2 level properties use
         %mp2 Density relaxed end
         or
         %mp2 Density unrelaxed end
         Otherwise for double-hybrid DFT only the energy is correct!

WARNING: The frozen-core approximation is turned on by default for 
         the MP2 part of double-hybrid DFT.

INFO   : the flag for use of the SHARK integral package has been found!

================================================================================
                                       INPUT FILE
================================================================================
NAME = b2plyp.inp
|  1> !RI-B2PLYP def2-TZVP def2-TZVP/C
|  2> !RIJCOSX VERYSLOWCONV
|  3> 
|  4> %scf
|  5>   AutoTRAHIter 200
|  6>   maxiter 400
|  7> end
|  8> 
|  9> 
| 10> %pal nprocs 6 end 
| 11> 
| 12> *xyzfile 0 5 pbe.xyz
| 13> 
| 14> $new_job
| 15> 
| 16> !RI-B2PLYP def2-TZVP def2-TZVP/C
| 17> !RIJCOSX VERYSLOWCONV
| 18> 
| 19> %scf
| 20>   AutoTRAHIter 200
| 21>   maxiter 400
| 22> end
| 23> 
| 24> 
| 25> %pal nprocs 6 end 
| 26> 
| 27> *xyzfile 0 3 pbe.xyz
| 28> 
| 29> 
| 30> 
| 31> 
| 32> 
| 33>                          ****END OF INPUT****
================================================================================


                 $$$$$$$$$$$$$$$$$$$$$$$$$$$$$$$$$$$$$$$$$$$$$$ 
                 $ THERE ARE  2 JOBS TO BE PROCESSED THIS RUN $
                 $$$$$$$$$$$$$$$$$$$$$$$$$$$$$$$$$$$$$$$$$$$$$$ 




                 $$$$$$$$$$$$$$$$  JOB NUMBER  1 $$$$$$$$$$$$$$


                       ****************************
                       * Single Point Calculation *
                       ****************************

---------------------------------
CARTESIAN COORDINATES (ANGSTROEM)
---------------------------------
  Au     7.869494    7.748588    5.274060
  Au    10.520025    6.465044    5.450092
  Au     6.003454    9.618160    6.308971
  Au     6.110440    6.746900    7.275676
  Au     8.432692   10.591225    5.843691
  Au    10.433049    9.069563    4.589608
  Au    11.092165   10.839533    6.669445
  Au     4.305095    8.582530    8.170673
  Au     8.612063    5.863013    7.421071
  Au    11.266017    6.350917    8.155977
  Au     6.961470    8.913843    8.869135
  Au     9.250475    7.682329    9.630383
  Au    11.666471    9.052456    8.735896
  Au     9.140030   10.512746    8.689760
  Cr     9.671370    8.430422    7.100756

----------------------------
CARTESIAN COORDINATES (A.U.)
----------------------------
  NO LB      ZA    FRAG     MASS         X           Y           Z
   0 Au   19.0000*   0   196.966   14.871189   14.642710    9.966529
   1 Au   19.0000*   0   196.966   19.879966   12.217163   10.299181
   2 Au   19.0000*   0   196.966   11.344885   18.175688   11.922226
   3 Au   19.0000*   0   196.966   11.547059   12.749793   13.749034
   4 Au   19.0000*   0   196.966   15.935478   20.014516   11.042976
   5 Au   19.0000*   0   196.966   19.715606   17.138991    8.673103
   6 Au   19.0000*   0   196.966   20.961155   20.483749   12.603424
   7 Au   19.0000*   0   196.966    8.135451   16.218632   15.440334
   8 Au   19.0000*   0   196.966   16.274440   11.079489   14.023791
   9 Au   19.0000*   0   196.966   21.289686   12.001494   15.412563
  10 Au   19.0000*   0   196.966   13.155272   16.844721   16.760237
  11 Au   19.0000*   0   196.966   17.480864   14.517498   18.198787
  12 Au   19.0000*   0   196.966   22.046434   17.106662   16.508452
  13 Au   19.0000*   0   196.966   17.272154   19.866211   16.421266
  14 Cr   24.0000    0    52.000   18.276240   15.931189   13.418484
* core charge reduced due to ECP

--------------------------------
INTERNAL COORDINATES (ANGSTROEM)
--------------------------------
 Au     0   0   0     0.000000000000     0.00000000     0.00000000
 Au     1   0   0     2.950217971607     0.00000000     0.00000000
 Au     1   2   0     2.836977598541   148.85756487     0.00000000
 Au     1   2   3     2.846773015316   111.10656261   284.75012937
 Au     3   1   2     2.657919694274    64.92766137    51.95229570
 Au     2   1   3     2.744361013082    62.60772975   287.50441497
 Au     5   3   1     2.795768971083   148.23534010   281.99851670
 Au     3   1   2     2.724497745065   114.12918246   269.51281652
 Au     4   1   2     2.657162086517    64.77197955     5.29262470
 Au     9   4   1     2.796714031394   148.18484250    77.79628301
 Au     8   3   1     2.766576116548    61.86553625    70.56572020
 Au    11   8   3     2.708443670832   145.89167683   242.47954330
 Au     7   5   3     2.791719170250   110.94434646    12.58762441
 Au    11   8   3     2.708282363027   145.72498244    39.81705921
 Cr    13   7   5     2.653495437354    62.56480655    24.65114107

---------------------------
INTERNAL COORDINATES (A.U.)
---------------------------
 Au     0   0   0     0.000000000000     0.00000000     0.00000000
 Au     1   0   0     5.575104001710     0.00000000     0.00000000
 Au     1   2   0     5.361110709312   148.85756487     0.00000000
 Au     1   2   3     5.379621364385   111.10656261   284.75012937
 Au     3   1   2     5.022740308134    64.92766137    51.95229570
 Au     2   1   3     5.186090727336    62.60772975   287.50441497
 Au     5   3   1     5.283237689061   148.23534010   281.99851670
 Au     3   1   2     5.148554590658   114.12918246   269.51281652
 Au     4   1   2     5.021308636956    64.77197955     5.29262470
 Au     9   4   1     5.285023594229   148.18484250    77.79628301
 Au     8   3   1     5.228071188923    61.86553625    70.56572020
 Au    11   8   3     5.118216787024   145.89167683   242.47954330
 Au     7   5   3     5.275584674589   110.94434646    12.58762441
 Au    11   8   3     5.117911959451   145.72498244    39.81705921
 Cr    13   7   5     5.014379674208    62.56480655    24.65114107

---------------------
BASIS SET INFORMATION
---------------------
There are 2 groups of distinct atoms

 Group   1 Type Au  : 8s7p6d1f contracted to 6s4p3d1f pattern {311111/4111/411/1}
 Group   2 Type Cr  : 17s11p7d1f contracted to 6s4p4d1f pattern {842111/6311/4111/1}

Atom   0Au   basis set group =>   1
Atom   1Au   basis set group =>   1
Atom   2Au   basis set group =>   1
Atom   3Au   basis set group =>   1
Atom   4Au   basis set group =>   1
Atom   5Au   basis set group =>   1
Atom   6Au   basis set group =>   1
Atom   7Au   basis set group =>   1
Atom   8Au   basis set group =>   1
Atom   9Au   basis set group =>   1
Atom  10Au   basis set group =>   1
Atom  11Au   basis set group =>   1
Atom  12Au   basis set group =>   1
Atom  13Au   basis set group =>   1
Atom  14Cr   basis set group =>   2
---------------------------------
AUXILIARY/J BASIS SET INFORMATION
---------------------------------
There are 2 groups of distinct atoms

 Group   1 Type Au  : 11s5p5d3f3g contracted to 8s5p5d2f3g pattern {41111111/11111/11111/21/111}
 Group   2 Type Cr  : 19s5p5d3f3g contracted to 8s5p5d2f3g pattern {121111111/11111/11111/21/111}

Atom   0Au   basis set group =>   1
Atom   1Au   basis set group =>   1
Atom   2Au   basis set group =>   1
Atom   3Au   basis set group =>   1
Atom   4Au   basis set group =>   1
Atom   5Au   basis set group =>   1
Atom   6Au   basis set group =>   1
Atom   7Au   basis set group =>   1
Atom   8Au   basis set group =>   1
Atom   9Au   basis set group =>   1
Atom  10Au   basis set group =>   1
Atom  11Au   basis set group =>   1
Atom  12Au   basis set group =>   1
Atom  13Au   basis set group =>   1
Atom  14Cr   basis set group =>   2
---------------------------------
AUXILIARY/C BASIS SET INFORMATION
---------------------------------
There are 2 groups of distinct atoms

 Group   1 Type Au  : 8s8p7d5f3g2h contracted to 8s8p7d5f3g2h pattern {11111111/11111111/1111111/11111/111/11}
 Group   2 Type Cr  : 11s9p8d6f5g2h contracted to 9s8p8d6f5g2h pattern {311111111/21111111/11111111/111111/11111/11}

Atom   0Au   basis set group =>   1
Atom   1Au   basis set group =>   1
Atom   2Au   basis set group =>   1
Atom   3Au   basis set group =>   1
Atom   4Au   basis set group =>   1
Atom   5Au   basis set group =>   1
Atom   6Au   basis set group =>   1
Atom   7Au   basis set group =>   1
Atom   8Au   basis set group =>   1
Atom   9Au   basis set group =>   1
Atom  10Au   basis set group =>   1
Atom  11Au   basis set group =>   1
Atom  12Au   basis set group =>   1
Atom  13Au   basis set group =>   1
Atom  14Cr   basis set group =>   2
-------------------------
ECP PARAMETER INFORMATION
-------------------------

 Group 1, Type Au ECP Def2-ECP (replacing 60 core electrons, lmax=3)

Atom   0Au   ECP group =>   1
Atom   1Au   ECP group =>   1
Atom   2Au   ECP group =>   1
Atom   3Au   ECP group =>   1
Atom   4Au   ECP group =>   1
Atom   5Au   ECP group =>   1
Atom   6Au   ECP group =>   1
Atom   7Au   ECP group =>   1
Atom   8Au   ECP group =>   1
Atom   9Au   ECP group =>   1
Atom  10Au   ECP group =>   1
Atom  11Au   ECP group =>   1
Atom  12Au   ECP group =>   1
Atom  13Au   ECP group =>   1



           ************************************************************
           *        Program running with 6 parallel MPI-processes     *
           *              working on a common directory               *
           ************************************************************
------------------------------------------------------------------------------
                           ORCA GTO INTEGRAL CALCULATION
                           -- RI-GTO INTEGRALS CHOSEN --
------------------------------------------------------------------------------
------------------------------------------------------------------------------
                   ___                                                        
                  /   \      - P O W E R E D   B Y -                         
                 /     \                                                     
                 |  |  |   _    _      __       _____    __    __             
                 |  |  |  | |  | |    /  \     |  _  \  |  |  /  |          
                  \  \/   | |  | |   /    \    | | | |  |  | /  /          
                 / \  \   | |__| |  /  /\  \   | |_| |  |  |/  /          
                |  |  |   |  __  | /  /__\  \  |    /   |      \           
                |  |  |   | |  | | |   __   |  |    \   |  |\   \          
                \     /   | |  | | |  |  |  |  | |\  \  |  | \   \       
                 \___/    |_|  |_| |__|  |__|  |_| \__\ |__|  \__/        
                                                                              
                      - O R C A' S   B I G   F R I E N D -                    
                                      &                                       
                       - I N T E G R A L  F E E D E R -                       
                                                                              
 v1 FN, 2020, v2 2021                                                         
------------------------------------------------------------------------------


Reading SHARK input file b2plyp.SHARKINP.tmp ... ok
----------------------
SHARK INTEGRAL PACKAGE
----------------------

Number of atoms                             ...     15
Number of basis functions                   ...    605
Number of shells                            ...    211
Maximum angular momentum                    ...      3
Integral batch strategy                     ... SHARK/LIBINT Hybrid
RI-J (if used) integral strategy            ... SPLIT-RIJ (Revised 2003 algorithm where possible)
Printlevel                                  ...      1
Contraction scheme used                     ... SEGMENTED contraction
Coulomb Range Separation                    ... NOT USED
Exchange Range Separation                   ... NOT USED
Finite Nucleus Model                        ... NOT USED
Auxiliary Coulomb fitting basis             ... AVAILABLE
   # of basis functions in Aux-J            ...   1335
   # of shells in Aux-J                     ...    345
   Maximum angular momentum in Aux-J        ...      4
Auxiliary J/K fitting basis                 ... NOT available
Auxiliary Correlation fitting basis         ... AVAILABLE
   # of basis functions in Aux-C            ...   2296
   # of shells in Aux-C                     ...    500
   Maximum angular momentum in Aux-C        ...      5
Auxiliary 'external' fitting basis          ... NOT available
Integral threshold                          ...     1.000000e-10
Primitive cut-off                           ...     1.000000e-11
Primitive pair pre-selection threshold      ...     1.000000e-11

Calculating pre-screening integrals         ... done (  0.3 sec) Dimension = 211
Organizing shell pair data                  ... done (  0.7 sec)
Shell pair information
Total number of shell pairs                 ...     22366
Shell pairs after pre-screening             ...     17683
Total number of primitive shell pairs       ...     59609
Primitive shell pairs kept                  ...     34152
          la=0 lb=0:   2777 shell pairs
          la=1 lb=0:   4039 shell pairs
          la=1 lb=1:   1525 shell pairs
          la=2 lb=0:   3511 shell pairs
          la=2 lb=1:   2468 shell pairs
          la=2 lb=2:   1017 shell pairs
          la=3 lb=0:    928 shell pairs
          la=3 lb=1:    706 shell pairs
          la=3 lb=2:    616 shell pairs
          la=3 lb=3:     96 shell pairs

Calculating one electron integrals          ... done (  0.3 sec)
Calculating ECP integrals                   ... done ( 21.0 sec)
Calculating RI/J V-Matrix + Cholesky decomp.... done (  1.4 sec)
Calculating RI/C V-Matrix + Cholesky decomp.... done (  2.4 sec)
Calculating Nuclear repulsion               ... done (  0.0 sec) ENN=   5536.350542631488 Eh

SHARK setup successfully completed in  27.6 seconds

Maximum memory used throughout the entire GTOINT-calculation: 49.3 MB


           ************************************************************
           *        Program running with 6 parallel MPI-processes     *
           *              working on a common directory               *
           ************************************************************
-------------------------------------------------------------------------------
                                 ORCA SCF
-------------------------------------------------------------------------------

------------
SCF SETTINGS
------------
Hamiltonian:
 Density Functional     Method          .... DFT(GTOs)
 Exchange Functional    Exchange        .... B88
   X-Alpha parameter    XAlpha          ....  0.666667
   Becke's b parameter  XBeta           ....  0.004200
 Correlation Functional Correlation     .... LYP
 LDA part of GGA corr.  LDAOpt          .... VWN-3
 Gradients option       PostSCFGGA      .... off
 Hybrid DFT is turned on
   Fraction HF Exchange ScalHFX         ....  0.530000
   Scaling of DF-GGA-X  ScalDFX         ....  0.470000
   Scaling of DF-GGA-C  ScalDFC         ....  0.730000
   Scaling of DF-LDA-C  ScalLDAC        ....  0.730000
   Perturbative correction              ....  0.270000
   Density functional embedding theory  .... OFF
   NL short-range parameter             ....  7.800000
 RI-approximation to the Coulomb term is turned on
   Number of AuxJ basis functions       .... 1335
   RIJ-COSX (HFX calculated with COS-X)).... on


General Settings:
 Integral files         IntName         .... b2plyp
 Hartree-Fock type      HFTyp           .... UHF
 Total Charge           Charge          ....    0
 Multiplicity           Mult            ....    5
 Number of Electrons    NEL             ....  290
 Basis Dimension        Dim             ....  605
 Nuclear Repulsion      ENuc            ....   5536.3505426315 Eh

Convergence Acceleration:
 DIIS                   CNVDIIS         .... on
   Start iteration      DIISMaxIt       ....     0
   Startup error        DIISStart       ....  0.200000
   # of expansion vecs  DIISMaxEq       ....     5
   Bias factor          DIISBfac        ....   1.050
   Max. coefficient     DIISMaxC        ....  10.000
 Trust-Rad. Augm. Hess. CNVTRAH         .... auto
   Auto Start mean grad. ratio tolernc. ....  1.125000
   Auto Start start iteration           ....   200
   Auto Start num. interpolation iter.  ....    10
   Max. Number of Micro iterations      ....    16
   Max. Number of Macro iterations      .... Maxiter - #DIIS iter
   Number of Davidson start vectors     ....     2
   Converg. threshold I  (grad. norm)   ....   5.000e-05
   Converg. threshold II (energy diff.) ....   1.000e-06
   Grad. Scal. Fac. for Micro threshold ....   0.100
   Minimum threshold for Micro iter.    ....   0.010
   NR start threshold (gradient norm)   ....   0.001
   Initial trust radius                 ....   0.400
   Minimum AH scaling param. (alpha)    ....   1.000
   Maximum AH scaling param. (alpha)    .... 1000.000
   Orbital update algorithm             .... Taylor
   White noise on init. David. guess    .... on
   Maximum white noise                  ....   0.010
   Quad. conv. algorithm                .... NR
 SOSCF                  CNVSOSCF        .... off
 Level Shifting         CNVShift        .... on
   Level shift para.    LevelShift      ....    0.2500
   Turn off err/grad.   ShiftErr        ....    0.0000
 Zerner damping         CNVZerner       .... off
 Static damping         CNVDamp         .... on
   Fraction old density DampFac         ....    0.9200
   Max. Damping (<1)    DampMax         ....    0.9800
   Min. Damping (>=0)   DampMin         ....    0.0000
   Turn off err/grad.   DampErr         ....    0.0030
 Fernandez-Rico         CNVRico         .... off

SCF Procedure:
 Maximum # iterations   MaxIter         ....   400
 SCF integral mode      SCFMode         .... Direct
   Integral package                     .... SHARK and LIBINT hybrid scheme
 Reset frequency        DirectResetFreq ....    20
 Integral Threshold     Thresh          ....  1.000e-10 Eh
 Primitive CutOff       TCut            ....  1.000e-11 Eh

Convergence Tolerance:
 Convergence Check Mode ConvCheckMode   .... Total+1el-Energy
 Convergence forced     ConvForced      .... 0
 Energy Change          TolE            ....  1.000e-06 Eh
 1-El. energy change                    ....  1.000e-03 Eh
 DIIS Error             TolErr          ....  1.000e-06


Diagonalization of the overlap matrix:
Smallest eigenvalue                        ... 8.464e-05
Time for diagonalization                   ...    0.120 sec
Threshold for overlap eigenvalues          ... 1.000e-08
Number of eigenvalues below threshold      ... 0
Time for construction of square roots      ...    0.254 sec
Total time needed                          ...    0.714 sec

Time for model grid setup =    2.605 sec

------------------------------
INITIAL GUESS: MODEL POTENTIAL
------------------------------
Loading Hartree-Fock densities                     ... done
  calling /media/Programs/ORCA501/orca b2plyp_atom79.inp > b2plyp_atom79.out in order to generate an atomic fitting density for atom 0 (Au with ECP) on-the-fly... 
    atom 0 (Au), assumed electronic state with S=2: 1s2 2s2 2p6 3s2 3p6 4s2 3d10 4p6 5s2 4d10 5p6 6s1 4f14 5d10           ... done
Calculating cut-offs                               ... done
Initializing the effective Hamiltonian             ... done
Setting up the integral package (SHARK)            ... done
Starting the Coulomb interaction                   ... done (   2.2 sec)
Reading the grid                                   ... done
Mapping shells                                     ... done
Starting the XC term evaluation                    ... done (   1.2 sec)
  promolecular density results
     # of electrons  =   1130.014440036
     EX              =  -5190.741754842
     EC              =    -22.962579672
     EX+EC           =  -5213.704334514
Transforming the Hamiltonian                       ... done (   0.8 sec)
Diagonalizing the Hamiltonian                      ... done (   0.6 sec)
Back transforming the eigenvectors                 ... done (   0.1 sec)
Now organizing SCF variables                       ... done
                      ------------------
                      INITIAL GUESS DONE (   9.4 sec)
                      ------------------
-------------------
DFT GRID GENERATION
-------------------

General Integration Accuracy     IntAcc      ... 4.388
Radial Grid Type                 RadialGrid  ... OptM3 with GC (2021)
Angular Grid (max. ang.)         AngularGrid ... 4 (Lebedev-302)
Angular grid pruning method      GridPruning ... 4 (adaptive)
Weight generation scheme         WeightScheme... Becke
Basis function cutoff            BFCut       ... 1.0000e-10
Integration weight cutoff        WCut        ... 1.0000e-14
Angular grids for H and He will be reduced by one unit
Partially contracted basis set               ... off
Rotationally invariant grid construction     ... off

Total number of grid points                  ...   165973
Total number of batches                      ...     2600
Average number of points per batch           ...       63
Average number of grid points per atom       ...    11065
Time for grid setup =    7.339 sec

--------------------
COSX GRID GENERATION
--------------------

GRIDX 1
-------
General Integration Accuracy     IntAcc      ... 3.816
Radial Grid Type                 RadialGrid  ... OptM3 with GC (2021)
Angular Grid (max. ang.)         AngularGrid ... 1 (Lebedev-50)
Angular grid pruning method      GridPruning ... 4 (adaptive)
Weight generation scheme         WeightScheme... Becke
Basis function cutoff            BFCut       ... 1.0000e-10
Integration weight cutoff        WCut        ... 1.0000e-14
Angular grids for H and He will be reduced by one unit
Partially contracted basis set               ... on
Rotationally invariant grid construction     ... off

Total number of grid points                  ...    17422
Total number of batches                      ...      280
Average number of points per batch           ...       62
Average number of grid points per atom       ...     1161
UseSFitting                                  ... on

GRIDX 2
-------
General Integration Accuracy     IntAcc      ... 4.020
Radial Grid Type                 RadialGrid  ... OptM3 with GC (2021)
Angular Grid (max. ang.)         AngularGrid ... 2 (Lebedev-110)
Angular grid pruning method      GridPruning ... 4 (adaptive)
Weight generation scheme         WeightScheme... Becke
Basis function cutoff            BFCut       ... 1.0000e-10
Integration weight cutoff        WCut        ... 1.0000e-14
Angular grids for H and He will be reduced by one unit
Partially contracted basis set               ... on
Rotationally invariant grid construction     ... off

Total number of grid points                  ...    52715
Total number of batches                      ...      831
Average number of points per batch           ...       63
Average number of grid points per atom       ...     3514
UseSFitting                                  ... on

GRIDX 3
-------
General Integration Accuracy     IntAcc      ... 4.338
Radial Grid Type                 RadialGrid  ... OptM3 with GC (2021)
Angular Grid (max. ang.)         AngularGrid ... 3 (Lebedev-194)
Angular grid pruning method      GridPruning ... 4 (adaptive)
Weight generation scheme         WeightScheme... Becke
Basis function cutoff            BFCut       ... 1.0000e-10
Integration weight cutoff        WCut        ... 1.0000e-14
Angular grids for H and He will be reduced by one unit
Partially contracted basis set               ... on
Rotationally invariant grid construction     ... off

Total number of grid points                  ...    95987
Total number of batches                      ...     1508
Average number of points per batch           ...       63
Average number of grid points per atom       ...     6399
UseSFitting                                  ... on

Time for X-Grid setup             =    6.746 sec

--------------
SCF ITERATIONS
--------------
ITER       Energy         Delta-E        Max-DP      RMS-DP      [F,P]     Damp
               ***  Starting incremental Fock matrix formation  ***
  0  -2938.3076985709   0.000000000000 0.06422322  0.00051374  0.3044939 0.9200
  1  -2938.6897986774  -0.382100106539 0.10150182  0.00050066  0.2514902 0.9200
                               ***Turning on DIIS***
  2  -2938.9118024010  -0.222003723542 0.11987481  0.00044758  0.2312235 0.9200
  3  -2939.0181335682  -0.106331167266 0.08751587  0.00031839  0.2125944 0.9200
  4  -2939.0947883182  -0.076654749992 0.05161481  0.00026183  0.1954835 0.9200
  5  -2939.1663800406  -0.071591722398 0.06195464  0.00025228  0.1798256 0.9200
  6  -2939.2254497247  -0.059069684061 0.08786547  0.00025933  0.1654649 0.9200
  7  -2939.2850507969  -0.059601072180 0.09930468  0.00027626  0.1522997 0.9200
  8  -2939.3532712090  -0.068220412178 0.08983383  0.00025803  0.1401745 0.9200
  9  -2939.4147419748  -0.061470765723 0.07613673  0.00021835  0.1289745 0.9200
 10  -2939.4708464798  -0.056104505033 0.05933291  0.00018918  0.1186599 0.9200
 11  -2939.5208790799  -0.050032600102 0.06348289  0.00018423  0.1091631 0.9200
 12  -2939.5679679785  -0.047088898585 0.07035989  0.00018611  0.1004367 0.9200
 13  -2939.6141422174  -0.046174238925 0.06665136  0.00017670  0.0924241 0.9200
 14  -2939.6573872849  -0.043245067544 0.05462578  0.00015324  0.0850549 0.9200
 15  -2939.6973237508  -0.039936465831 0.04439101  0.00013514  0.0782634 0.9200
 16  -2939.7341145895  -0.036790838721 0.04302363  0.00012747  0.0720077 0.9200
 17  -2939.7684388468  -0.034324257294 0.04490202  0.00012401  0.0662528 0.9200
 18  -2939.8008582648  -0.032419418042 0.04295164  0.00011712  0.0609629 0.9200
 19  -2939.8312117931  -0.030353528247 0.03619437  0.00010517  0.0560984 0.9200
               *** Restarting incremental Fock matrix formation ***
                                   *** Resetting DIIS ***
 20  -2939.8593943520  -0.028182558927 0.03197895  0.00009393  0.0516195 0.9200
 21  -2939.8860874913  -0.026693139284 0.02880676  0.00008510  0.0475159 0.9200
 22  -2939.9108925110  -0.024805019679 0.02623837  0.00007825  0.0437360 0.9200
 23  -2939.9338720697  -0.022979558769 0.02526569  0.00007457  0.0402533 0.9200
 24  -2939.9551568840  -0.021284814299 0.02470598  0.00007184  0.0370460 0.9200
 25  -2939.9749021586  -0.019745274603 0.02365254  0.00006848  0.0340934 0.9200
 26  -2939.9932610890  -0.018358930403 0.02113025  0.00006355  0.0313759 0.9200
 27  -2940.0103148325  -0.017053743475 0.01829472  0.00005844  0.0288736 0.9200
 28  -2940.0261541480  -0.015839315531 0.01636596  0.00005442  0.0265695 0.9200
 29  -2940.0408697395  -0.014715591441 0.01526276  0.00005125  0.0244488 0.9200
 30  -2940.0545496115  -0.013679872024 0.01423652  0.00004827  0.0224977 0.9200
 31  -2940.0672694170  -0.012719805482 0.01282778  0.00004510  0.0207028 0.9200
 32  -2940.0790946263  -0.011825209277 0.01126553  0.00004197  0.0190513 0.9200
 33  -2940.0900867284  -0.010992102161 0.00996967  0.00003922  0.0175315 0.9200
 34  -2940.1003030947  -0.010216366264 0.00906072  0.00003688  0.0161328 0.9200
 35  -2940.1097975468  -0.009494452109 0.00828062  0.00003474  0.0148458 0.9200
 36  -2940.1186200633  -0.008822516491 0.00743251  0.00003266  0.0136614 0.9200
 37  -2940.1268168327  -0.008196769366 0.00654301  0.00003067  0.0125717 0.9200
 38  -2940.1344307808  -0.007613948099 0.00575550  0.00002887  0.0115689 0.9200
 39  -2940.1415017083  -0.007070927550 0.00415987  0.00002704  0.0106461 0.9200
               *** Restarting incremental Fock matrix formation ***
                                   *** Resetting DIIS ***
 40  -2940.1480692163  -0.006567507954 0.00514768  0.00002209  0.0097970 0.9200
 41  -2940.1542392160  -0.006169999697 0.00490577  0.00001963  0.0090205 0.9200
 42  -2940.1599616433  -0.005722427333 0.00428112  0.00001846  0.0083052 0.9200
 43  -2940.1652542472  -0.005292603938 0.00367722  0.00001813  0.0076460 0.9200
 44  -2940.1701440745  -0.004889827299 0.00318793  0.00001814  0.0070383 0.9200
 45  -2940.1746594900  -0.004515415449 0.00287011  0.00001782  0.0064780 0.9200
 46  -2940.1788336791  -0.004174189138 0.00253199  0.00001743  0.0061295 0.9200
 47  -2940.1826938153  -0.003860136130 0.00232542  0.00001699  0.0057958 0.9200
 48  -2940.1862646929  -0.003570877598 0.00264456  0.00001650  0.0054669 0.9200
 49  -2940.1895691442  -0.003304451340 0.00284431  0.00001599  0.0051527 0.9200
 50  -2940.1926279346  -0.003058790398 0.00293184  0.00001547  0.0048571 0.9200
 51  -2940.1954597529  -0.002831818289 0.00294723  0.00001493  0.0045774 0.9200
 52  -2940.1980817609  -0.002622008042 0.00297891  0.00001440  0.0043097 0.9200
 53  -2940.2005097689  -0.002428008026 0.00302206  0.00001387  0.0040537 0.9200
 54  -2940.2027583606  -0.002248591679 0.00305783  0.00001335  0.0038111 0.9200
 55  -2940.2048408801  -0.002082519486 0.00303187  0.00001284  0.0035824 0.9200
 56  -2940.2067695842  -0.001928704091 0.00294806  0.00001232  0.0033666 0.9200
 57  -2940.2085557776  -0.001786193365 0.00282357  0.00001179  0.0031622 0.9200
 58  -2940.2102099677  -0.001654190141 0.03347654  0.00014093  0.0029686 0.0000
 59  -2940.2304123490  -0.020202381311 0.01726105  0.00003354  0.0010235 0.0000
               *** Restarting incremental Fock matrix formation ***
                                   *** Resetting DIIS ***
 60  -2940.2304999522  -0.000087603208 0.00409020  0.00001280  0.0012352 0.0000
 61  -2940.2305339359  -0.000033983703 0.00129624  0.00000841  0.0012071 0.0000
 62  -2940.2305597550  -0.000025819097 0.00664257  0.00001628  0.0006618 0.0000
               *** Restarting incremental Fock matrix formation ***
                                   *** Resetting DIIS ***
 63  -2940.2303070604   0.000252694625 0.00996625  0.00014894  0.0007969 0.0000
 64  -2940.2305202205  -0.000213160085 0.00899309  0.00005265  0.0006029 0.0000
 65  -2940.2305563303  -0.000036109834 0.00118624  0.00001869  0.0005815 0.0000
 66  -2940.2305710934  -0.000014763100 0.00111843  0.00000989  0.0002640 0.0000
 67  -2940.2305800378  -0.000008944424 0.00161535  0.00000626  0.0002922 0.0000
 68  -2940.2305863670  -0.000006329182 0.00135000  0.00000664  0.0002187 0.0000
 69  -2940.2305923945  -0.000006027502 0.00050497  0.00000506  0.0002200 0.0000
 70  -2940.2305969726  -0.000004578041 0.00124073  0.00000556  0.0001863 0.0000
 71  -2940.2306013975  -0.000004424975 0.00046957  0.00000438  0.0001615 0.0000
 72  -2940.2306047559  -0.000003358349 0.00058759  0.00000426  0.0001495 0.0000
 73  -2940.2306081926  -0.000003436679 0.00045575  0.00000419  0.0001349 0.0000
 74  -2940.2306113158  -0.000003123253 0.00035754  0.00000340  0.0001331 0.0000
 75  -2940.2306141734  -0.000002857528 0.00036205  0.00000241  0.0001391 0.0000
 76  -2940.2306161127  -0.000001939353 0.00039756  0.00000300  0.0001438 0.0000
 77  -2940.2306185656  -0.000002452854 0.00045412  0.00000248  0.0001463 0.0000
 78  -2940.2306206758  -0.000002110257 0.00041516  0.00000191  0.0001517 0.0000
 79  -2940.2306222910  -0.000001615183 0.00028031  0.00000124  0.0001573 0.0000
 80  -2940.2306234827  -0.000001191668 0.00012429  0.00000087  0.0001640 0.0000
 81  -2940.2306243730  -0.000000890354 0.00010453  0.00000068  0.0001687 0.0000
                 **** Energy Check signals convergence ****

               *****************************************************
               *                     SUCCESS                       *
               *           SCF CONVERGED AFTER  82 CYCLES          *
               *****************************************************

Old exchange energy                            =   -113.743530270 Eh
New exchange energy                            =   -113.743415418 Eh
Exchange energy change after final integration =      0.000114852 Eh
Total energy after final integration           =  -2940.230510189 Eh
Final COS-X integration done in                =    51.690 sec

----------------
TOTAL SCF ENERGY
----------------

Total Energy       :        -2940.23051019 Eh          -80007.73970 eV

Components:
Nuclear Repulsion  :         5536.35054263 Eh          150651.75725 eV
Electronic Energy  :        -8476.58105282 Eh         -230659.49695 eV
One Electron Energy:       -15846.86526573 Eh         -431215.12643 eV
Two Electron Energy:         7370.28421291 Eh          200555.62948 eV
Max COSX asymmetry :            0.00000722 Eh               0.00020 eV

Virial components:
Potential Energy   :        -4626.89989240 Eh         -125904.34693 eV
Kinetic Energy     :         1686.66938221 Eh           45896.60723 eV
Virial Ratio       :            2.74321686


DFT components:
N(Alpha)           :      146.999981527250 electrons
N(Beta)            :      142.999983666752 electrons
N(Total)           :      289.999965194002 electrons
E(X)               :     -102.515390925192 Eh       
E(C)               :       -7.968094903952 Eh       
E(XC)              :     -110.483485829145 Eh       
DFET-embed. en.    :        0.000000000000 Eh       

---------------
SCF CONVERGENCE
---------------

  Last Energy change         ...   -6.6761e-07  Tolerance :   1.0000e-06
  Last MAX-Density change    ...    0.0000e+00  Tolerance :   1.0000e-05
  Last RMS-Density change    ...    0.0000e+00  Tolerance :   1.0000e-06
  Last DIIS Error            ...    1.7162e-04  Tolerance :   1.0000e-06

             **** THE GBW FILE WAS UPDATED (b2plyp.gbw) ****
             **** DENSITY b2plyp.scfp WAS UPDATED ****
             **** ENERGY FILE WAS UPDATED (b2plyp.en.tmp) ****
----------------------
UHF SPIN CONTAMINATION
----------------------

Warning: in a DFT calculation there is little theoretical justification to 
         calculate <S**2> as in Hartree-Fock theory. We will do it anyways
         but you should keep in mind that the values have only limited relevance

Expectation value of <S**2>     :     6.526717
Ideal value S*(S+1) for S=2.0   :     6.000000
Deviation                       :     0.526717

             **** THE GBW FILE WAS UPDATED (b2plyp.gbw) ****
             **** DENSITY b2plyp.scfp WAS UPDATED ****
----------------
ORBITAL ENERGIES
----------------
                 SPIN UP ORBITALS
  NO   OCC          E(Eh)            E(eV) 
   0   1.0000    -217.719908     -5924.4599 
   1   1.0000     -25.401829      -691.2189 
   2   1.0000     -21.540521      -586.1474 
   3   1.0000     -21.540030      -586.1340 
   4   1.0000     -21.537675      -586.0699 
   5   1.0000      -4.405532      -119.8806 
   6   1.0000      -4.405335      -119.8753 
   7   1.0000      -4.398671      -119.6939 
   8   1.0000      -4.398515      -119.6897 
   9   1.0000      -4.398325      -119.6845 
  10   1.0000      -4.395651      -119.6117 
  11   1.0000      -4.395519      -119.6082 
  12   1.0000      -4.394682      -119.5854 
  13   1.0000      -4.394488      -119.5801 
  14   1.0000      -4.392509      -119.5263 
  15   1.0000      -4.390454      -119.4703 
  16   1.0000      -4.384179      -119.2996 
  17   1.0000      -4.382949      -119.2661 
  18   1.0000      -4.382759      -119.2609 
  19   1.0000      -3.197903       -87.0194 
  20   1.0000      -2.526894       -68.7603 
  21   1.0000      -2.525517       -68.7228 
  22   1.0000      -2.524593       -68.6977 
  23   1.0000      -2.523767       -68.6752 
  24   1.0000      -2.521279       -68.6075 
  25   1.0000      -2.521124       -68.6033 
  26   1.0000      -2.520326       -68.5816 
  27   1.0000      -2.519034       -68.5464 
  28   1.0000      -2.518871       -68.5420 
  29   1.0000      -2.518541       -68.5330 
  30   1.0000      -2.516771       -68.4848 
  31   1.0000      -2.515735       -68.4566 
  32   1.0000      -2.515229       -68.4429 
  33   1.0000      -2.514986       -68.4362 
  34   1.0000      -2.514549       -68.4244 
  35   1.0000      -2.513893       -68.4065 
  36   1.0000      -2.513658       -68.4001 
  37   1.0000      -2.513561       -68.3975 
  38   1.0000      -2.513101       -68.3849 
  39   1.0000      -2.512323       -68.3638 
  40   1.0000      -2.512078       -68.3571 
  41   1.0000      -2.511990       -68.3547 
  42   1.0000      -2.511584       -68.3437 
  43   1.0000      -2.511519       -68.3419 
  44   1.0000      -2.510776       -68.3217 
  45   1.0000      -2.510126       -68.3040 
  46   1.0000      -2.509935       -68.2988 
  47   1.0000      -2.509753       -68.2939 
  48   1.0000      -2.508982       -68.2729 
  49   1.0000      -2.507245       -68.2256 
  50   1.0000      -2.506378       -68.2020 
  51   1.0000      -2.506306       -68.2000 
  52   1.0000      -2.505984       -68.1913 
  53   1.0000      -2.504206       -68.1429 
  54   1.0000      -2.503163       -68.1145 
  55   1.0000      -2.500490       -68.0418 
  56   1.0000      -2.498892       -67.9983 
  57   1.0000      -2.498755       -67.9946 
  58   1.0000      -2.498201       -67.9795 
  59   1.0000      -2.497801       -67.9686 
  60   1.0000      -2.497621       -67.9637 
  61   1.0000      -2.497326       -67.9557 
  62   1.0000      -2.088616       -56.8341 
  63   1.0000      -2.084949       -56.7343 
  64   1.0000      -2.083996       -56.7084 
  65   1.0000      -0.498560       -13.5665 
  66   1.0000      -0.478970       -13.0334 
  67   1.0000      -0.476345       -12.9620 
  68   1.0000      -0.474328       -12.9071 
  69   1.0000      -0.464959       -12.6522 
  70   1.0000      -0.464507       -12.6399 
  71   1.0000      -0.460093       -12.5198 
  72   1.0000      -0.457438       -12.4475 
  73   1.0000      -0.456948       -12.4342 
  74   1.0000      -0.456515       -12.4224 
  75   1.0000      -0.453125       -12.3302 
  76   1.0000      -0.451903       -12.2969 
  77   1.0000      -0.450559       -12.2603 
  78   1.0000      -0.449482       -12.2310 
  79   1.0000      -0.449060       -12.2195 
  80   1.0000      -0.445308       -12.1174 
  81   1.0000      -0.442011       -12.0277 
  82   1.0000      -0.438117       -11.9218 
  83   1.0000      -0.436551       -11.8792 
  84   1.0000      -0.431458       -11.7406 
  85   1.0000      -0.428621       -11.6634 
  86   1.0000      -0.427408       -11.6304 
  87   1.0000      -0.426887       -11.6162 
  88   1.0000      -0.425565       -11.5802 
  89   1.0000      -0.422163       -11.4876 
  90   1.0000      -0.418968       -11.4007 
  91   1.0000      -0.416758       -11.3406 
  92   1.0000      -0.414930       -11.2908 
  93   1.0000      -0.413870       -11.2620 
  94   1.0000      -0.410800       -11.1784 
  95   1.0000      -0.410316       -11.1653 
  96   1.0000      -0.407344       -11.0844 
  97   1.0000      -0.404052       -10.9948 
  98   1.0000      -0.403512       -10.9801 
  99   1.0000      -0.398888       -10.8543 
 100   1.0000      -0.394928       -10.7465 
 101   1.0000      -0.394020       -10.7218 
 102   1.0000      -0.392087       -10.6692 
 103   1.0000      -0.387617       -10.5476 
 104   1.0000      -0.384216       -10.4551 
 105   1.0000      -0.380557       -10.3555 
 106   1.0000      -0.379572       -10.3287 
 107   1.0000      -0.378602       -10.3023 
 108   1.0000      -0.377954       -10.2846 
 109   1.0000      -0.371553       -10.1105 
 110   1.0000      -0.370256       -10.0752 
 111   1.0000      -0.367168        -9.9911 
 112   1.0000      -0.366686        -9.9780 
 113   1.0000      -0.365789        -9.9536 
 114   1.0000      -0.363712        -9.8971 
 115   1.0000      -0.363230        -9.8840 
 116   1.0000      -0.360655        -9.8139 
 117   1.0000      -0.359702        -9.7880 
 118   1.0000      -0.359538        -9.7835 
 119   1.0000      -0.359089        -9.7713 
 120   1.0000      -0.357511        -9.7284 
 121   1.0000      -0.354908        -9.6575 
 122   1.0000      -0.351621        -9.5681 
 123   1.0000      -0.350806        -9.5459 
 124   1.0000      -0.348789        -9.4910 
 125   1.0000      -0.345752        -9.4084 
 126   1.0000      -0.344883        -9.3847 
 127   1.0000      -0.343903        -9.3581 
 128   1.0000      -0.342755        -9.3268 
 129   1.0000      -0.339603        -9.2411 
 130   1.0000      -0.335785        -9.1372 
 131   1.0000      -0.333950        -9.0873 
 132   1.0000      -0.330782        -9.0010 
 133   1.0000      -0.327247        -8.9048 
 134   1.0000      -0.326558        -8.8861 
 135   1.0000      -0.326264        -8.8781 
 136   1.0000      -0.323130        -8.7928 
 137   1.0000      -0.318301        -8.6614 
 138   1.0000      -0.316453        -8.6111 
 139   1.0000      -0.310520        -8.4497 
 140   1.0000      -0.305833        -8.3221 
 141   1.0000      -0.300629        -8.1805 
 142   1.0000      -0.281094        -7.6489 
 143   1.0000      -0.253408        -6.8956 
 144   1.0000      -0.245337        -6.6760 
 145   1.0000      -0.220195        -5.9918 
 146   1.0000      -0.207507        -5.6465 
 147   0.0000      -0.113783        -3.0962 
 148   0.0000      -0.098990        -2.6937 
 149   0.0000      -0.071269        -1.9393 
 150   0.0000      -0.062158        -1.6914 
 151   0.0000      -0.059607        -1.6220 
 152   0.0000      -0.044497        -1.2108 
 153   0.0000      -0.040772        -1.1095 
 154   0.0000      -0.033641        -0.9154 
 155   0.0000      -0.011025        -0.3000 
 156   0.0000      -0.008235        -0.2241 
 157   0.0000       0.000347         0.0094 
 158   0.0000       0.001122         0.0305 
 159   0.0000       0.008125         0.2211 
 160   0.0000       0.013914         0.3786 
 161   0.0000       0.032221         0.8768 
 162   0.0000       0.034556         0.9403 
 163   0.0000       0.047895         1.3033 
 164   0.0000       0.061780         1.6811 
 165   0.0000       0.069305         1.8859 
 166   0.0000       0.071904         1.9566 
 167   0.0000       0.073315         1.9950 
 168   0.0000       0.073892         2.0107 
 169   0.0000       0.084661         2.3037 
 170   0.0000       0.085386         2.3235 
 171   0.0000       0.087077         2.3695 
 172   0.0000       0.092075         2.5055 
 173   0.0000       0.094798         2.5796 
 174   0.0000       0.098942         2.6924 
 175   0.0000       0.100666         2.7393 
 176   0.0000       0.103581         2.8186 
 177   0.0000       0.111095         3.0231 
 178   0.0000       0.113710         3.0942 
 179   0.0000       0.114169         3.1067 
 180   0.0000       0.119784         3.2595 
 181   0.0000       0.134388         3.6569 
 182   0.0000       0.137160         3.7323 
 183   0.0000       0.138254         3.7621 
 184   0.0000       0.141984         3.8636 
 185   0.0000       0.145268         3.9529 
 186   0.0000       0.147372         4.0102 
 187   0.0000       0.151605         4.1254 
 188   0.0000       0.161394         4.3917 
 189   0.0000       0.165798         4.5116 
 190   0.0000       0.166711         4.5364 
 191   0.0000       0.179020         4.8714 
 192   0.0000       0.183111         4.9827 
 193   0.0000       0.186131         5.0649 
 194   0.0000       0.187765         5.1093 
 195   0.0000       0.192819         5.2469 
 196   0.0000       0.195165         5.3107 
 197   0.0000       0.199008         5.4153 
 198   0.0000       0.199661         5.4331 
 199   0.0000       0.204015         5.5515 
 200   0.0000       0.210576         5.7301 
 201   0.0000       0.211236         5.7480 
 202   0.0000       0.214809         5.8452 
 203   0.0000       0.221290         6.0216 
 204   0.0000       0.222286         6.0487 
 205   0.0000       0.268839         7.3155 
 206   0.0000       0.286490         7.7958 
 207   0.0000       0.287182         7.8146 
 208   0.0000       0.288446         7.8490 
 209   0.0000       0.288902         7.8614 
 210   0.0000       0.299471         8.1490 
 211   0.0000       0.305789         8.3210 
 212   0.0000       0.309024         8.4090 
 213   0.0000       0.310539         8.4502 
 214   0.0000       0.312686         8.5086 
 215   0.0000       0.324870         8.8402 
 216   0.0000       0.328017         8.9258 
 217   0.0000       0.333599         9.0777 
 218   0.0000       0.335639         9.1332 
 219   0.0000       0.339133         9.2283 
 220   0.0000       0.346025         9.4158 
 221   0.0000       0.349552         9.5118 
 222   0.0000       0.362702         9.8696 
 223   0.0000       0.364333         9.9140 
 224   0.0000       0.367128         9.9901 
 225   0.0000       0.370650        10.0859 
 226   0.0000       0.377542        10.2734 
 227   0.0000       0.379250        10.3199 
 228   0.0000       0.388203        10.5636 
 229   0.0000       0.392408        10.6780 
 230   0.0000       0.393282        10.7018 
 231   0.0000       0.398852        10.8533 
 232   0.0000       0.400988        10.9114 
 233   0.0000       0.405132        11.0242 
 234   0.0000       0.418052        11.3758 
 235   0.0000       0.419366        11.4115 
 236   0.0000       0.421651        11.4737 
 237   0.0000       0.424534        11.5522 
 238   0.0000       0.428072        11.6484 
 239   0.0000       0.436020        11.8647 
 240   0.0000       0.440360        11.9828 
 241   0.0000       0.447465        12.1761 
 242   0.0000       0.449897        12.2423 
 243   0.0000       0.455409        12.3923 
 244   0.0000       0.455747        12.4015 
 245   0.0000       0.459177        12.4948 
 246   0.0000       0.462375        12.5819 
 247   0.0000       0.467306        12.7160 
 248   0.0000       0.471940        12.8421 
 249   0.0000       0.475240        12.9319 
 250   0.0000       0.476083        12.9549 
 251   0.0000       0.484052        13.1717 
 252   0.0000       0.485913        13.2224 
 253   0.0000       0.489145        13.3103 
 254   0.0000       0.496731        13.5168 
 255   0.0000       0.508678        13.8418 
 256   0.0000       0.511390        13.9156 
 257   0.0000       0.518516        14.1095 
 258   0.0000       0.522927        14.2296 
 259   0.0000       0.530245        14.4287 
 260   0.0000       0.540637        14.7115 
 261   0.0000       0.546085        14.8597 
 262   0.0000       0.549738        14.9591 
 263   0.0000       0.551508        15.0073 
 264   0.0000       0.557311        15.1652 
 265   0.0000       0.561810        15.2876 
 266   0.0000       0.565775        15.3955 
 267   0.0000       0.566727        15.4214 
 268   0.0000       0.573312        15.6006 
 269   0.0000       0.578229        15.7344 
 270   0.0000       0.579652        15.7731 
 271   0.0000       0.584688        15.9102 
 272   0.0000       0.592811        16.1312 
 273   0.0000       0.596844        16.2410 
 274   0.0000       0.597825        16.2676 
 275   0.0000       0.599479        16.3127 
 276   0.0000       0.604891        16.4599 
 277   0.0000       0.619832        16.8665 
 278   0.0000       0.625210        17.0128 
 279   0.0000       0.626521        17.0485 
 280   0.0000       0.630467        17.1559 
 281   0.0000       0.634203        17.2575 
 282   0.0000       0.636032        17.3073 
 283   0.0000       0.640898        17.4397 
 284   0.0000       0.644881        17.5481 
 285   0.0000       0.657548        17.8928 
 286   0.0000       0.659984        17.9591 
 287   0.0000       0.667406        18.1610 
 288   0.0000       0.677114        18.4252 
 289   0.0000       0.679395        18.4873 
 290   0.0000       0.684573        18.6282 
 291   0.0000       0.685440        18.6518 
 292   0.0000       0.691071        18.8050 
 293   0.0000       0.703391        19.1402 
 294   0.0000       0.708154        19.2699 
 295   0.0000       0.795831        21.6557 
 296   0.0000       0.804715        21.8974 
 297   0.0000       0.823221        22.4010 
 298   0.0000       0.825856        22.4727 
 299   0.0000       0.826338        22.4858 
 300   0.0000       0.840227        22.8638 
 301   0.0000       0.842228        22.9182 
 302   0.0000       0.867467        23.6050 
 303   0.0000       0.883477        24.0406 
 304   0.0000       0.887168        24.1411 
 305   0.0000       0.900992        24.5172 
 306   0.0000       0.910868        24.7860 
 307   0.0000       0.923934        25.1415 
 308   0.0000       0.927724        25.2447 
 309   0.0000       0.940709        25.5980 
 310   0.0000       0.950673        25.8691 
 311   0.0000       0.959769        26.1166 
 312   0.0000       0.972620        26.4663 
 313   0.0000       0.980209        26.6728 
 314   0.0000       0.992631        27.0109 
 315   0.0000       1.005028        27.3482 
 316   0.0000       1.007053        27.4033 
 317   0.0000       1.021917        27.8078 
 318   0.0000       1.025759        27.9123 
 319   0.0000       1.041471        28.3399 
 320   0.0000       1.042622        28.3712 
 321   0.0000       1.049880        28.5687 
 322   0.0000       1.050548        28.5869 
 323   0.0000       1.061609        28.8879 
 324   0.0000       1.078065        29.3356 
 325   0.0000       1.087835        29.6015 
 326   0.0000       1.097720        29.8705 
 327   0.0000       1.117353        30.4047 
 328   0.0000       1.134855        30.8810 
 329   0.0000       1.135517        30.8990 
 330   0.0000       1.146369        31.1943 
 331   0.0000       1.174833        31.9688 
 332   0.0000       1.224388        33.3173 
 333   0.0000       1.278403        34.7871 
 334   0.0000       1.339764        36.4568 
 335   0.0000       1.360791        37.0290 
 336   0.0000       1.391969        37.8774 
 337   0.0000       1.393193        37.9107 
 338   0.0000       1.405755        38.2525 
 339   0.0000       1.417698        38.5775 
 340   0.0000       1.430362        38.9221 
 341   0.0000       1.450463        39.4691 
 342   0.0000       1.458292        39.6821 
 343   0.0000       1.458911        39.6990 
 344   0.0000       1.463746        39.8306 
 345   0.0000       1.473776        40.1035 
 346   0.0000       1.478013        40.2188 
 347   0.0000       1.498642        40.7801 
 348   0.0000       1.502750        40.8919 
 349   0.0000       1.509551        41.0770 
 350   0.0000       1.512810        41.1657 
 351   0.0000       1.515942        41.2509 
 352   0.0000       1.528846        41.6020 
 353   0.0000       1.533064        41.7168 
 354   0.0000       1.542710        41.9793 
 355   0.0000       1.553600        42.2756 
 356   0.0000       1.554887        42.3106 
 357   0.0000       1.563931        42.5567 
 358   0.0000       1.569856        42.7180 
 359   0.0000       1.575623        42.8749 
 360   0.0000       1.579885        42.9908 
 361   0.0000       1.584995        43.1299 
 362   0.0000       1.591062        43.2950 
 363   0.0000       1.592786        43.3419 
 364   0.0000       1.596603        43.4458 
 365   0.0000       1.599755        43.5316 
 366   0.0000       1.602880        43.6166 
 367   0.0000       1.609519        43.7972 
 368   0.0000       1.613227        43.8981 
 369   0.0000       1.614056        43.9207 
 370   0.0000       1.620924        44.1076 
 371   0.0000       1.625965        44.2448 
 372   0.0000       1.628820        44.3224 
 373   0.0000       1.635743        44.5108 
 374   0.0000       1.636410        44.5290 
 375   0.0000       1.639310        44.6079 
 376   0.0000       1.642856        44.7044 
 377   0.0000       1.644108        44.7384 
 378   0.0000       1.646476        44.8029 
 379   0.0000       1.649991        44.8985 
 380   0.0000       1.652317        44.9618 
 381   0.0000       1.657960        45.1154 
 382   0.0000       1.660433        45.1827 
 383   0.0000       1.665244        45.3136 
 384   0.0000       1.666284        45.3419 
 385   0.0000       1.670090        45.4455 
 386   0.0000       1.670376        45.4532 
 387   0.0000       1.674168        45.5564 
 388   0.0000       1.676331        45.6153 
 389   0.0000       1.677315        45.6421 
 390   0.0000       1.677767        45.6543 
 391   0.0000       1.679031        45.6887 
 392   0.0000       1.684075        45.8260 
 393   0.0000       1.684257        45.8310 
 394   0.0000       1.687366        45.9156 
 395   0.0000       1.687483        45.9188 
 396   0.0000       1.689315        45.9686 
 397   0.0000       1.691995        46.0415 
 398   0.0000       1.694117        46.0993 
 399   0.0000       1.694379        46.1064 
 400   0.0000       1.695151        46.1274 
 401   0.0000       1.696698        46.1695 
 402   0.0000       1.697439        46.1897 
 403   0.0000       1.698450        46.2172 
 404   0.0000       1.700583        46.2752 
 405   0.0000       1.702550        46.3288 
 406   0.0000       1.703759        46.3616 
 407   0.0000       1.704926        46.3934 
 408   0.0000       1.706435        46.4345 
 409   0.0000       1.706906        46.4473 
 410   0.0000       1.708364        46.4870 
 411   0.0000       1.709497        46.5178 
 412   0.0000       1.710915        46.5564 
 413   0.0000       1.713358        46.6228 
 414   0.0000       1.713484        46.6263 
 415   0.0000       1.714442        46.6523 
 416   0.0000       1.718477        46.7621 
 417   0.0000       1.719066        46.7782 
 418   0.0000       1.721477        46.8438 
 419   0.0000       1.722356        46.8677 
 420   0.0000       1.722889        46.8822 
 421   0.0000       1.723698        46.9042 
 422   0.0000       1.728394        47.0320 
 423   0.0000       1.729822        47.0709 
 424   0.0000       1.733114        47.1604 
 425   0.0000       1.733850        47.1805 
 426   0.0000       1.735987        47.2386 
 427   0.0000       1.740169        47.3524 
 428   0.0000       1.743091        47.4319 
 429   0.0000       1.748006        47.5657 
 430   0.0000       1.750043        47.6211 
 431   0.0000       1.751448        47.6593 
 432   0.0000       1.751805        47.6690 
 433   0.0000       1.756626        47.8002 
 434   0.0000       1.757540        47.8251 
 435   0.0000       1.760710        47.9114 
 436   0.0000       1.762933        47.9718 
 437   0.0000       1.763135        47.9774 
 438   0.0000       1.766541        48.0700 
 439   0.0000       1.768847        48.1328 
 440   0.0000       1.770528        48.1785 
 441   0.0000       1.770673        48.1824 
 442   0.0000       1.772933        48.2439 
 443   0.0000       1.778224        48.3879 
 444   0.0000       1.780849        48.4594 
 445   0.0000       1.783330        48.5269 
 446   0.0000       1.785782        48.5936 
 447   0.0000       1.786805        48.6214 
 448   0.0000       1.787565        48.6421 
 449   0.0000       1.789612        48.6978 
 450   0.0000       1.791085        48.7379 
 451   0.0000       1.795466        48.8571 
 452   0.0000       1.795926        48.8696 
 453   0.0000       1.796796        48.8933 
 454   0.0000       1.801026        49.0084 
 455   0.0000       1.802769        49.0558 
 456   0.0000       1.805334        49.1256 
 457   0.0000       1.811711        49.2992 
 458   0.0000       1.811873        49.3036 
 459   0.0000       1.815917        49.4136 
 460   0.0000       1.818118        49.4735 
 461   0.0000       1.821495        49.5654 
 462   0.0000       1.828181        49.7473 
 463   0.0000       1.828581        49.7582 
 464   0.0000       1.838208        50.0202 
 465   0.0000       1.839230        50.0480 
 466   0.0000       1.843652        50.1683 
 467   0.0000       1.856618        50.5211 
 468   0.0000       1.858677        50.5772 
 469   0.0000       1.860291        50.6211 
 470   0.0000       1.867018        50.8042 
 471   0.0000       1.885921        51.3185 
 472   0.0000       1.895507        51.5794 
 473   0.0000       1.899556        51.6895 
 474   0.0000       1.904943        51.8361 
 475   0.0000       1.907731        51.9120 
 476   0.0000       1.921258        52.2801 
 477   0.0000       1.922244        52.3069 
 478   0.0000       1.924356        52.3644 
 479   0.0000       1.932301        52.5806 
 480   0.0000       1.939149        52.7669 
 481   0.0000       1.951120        53.0927 
 482   0.0000       1.963760        53.4366 
 483   0.0000       1.966940        53.5231 
 484   0.0000       1.978747        53.8445 
 485   0.0000       1.980631        53.8957 
 486   0.0000       1.990264        54.1578 
 487   0.0000       1.999554        54.4106 
 488   0.0000       1.999686        54.4142 
 489   0.0000       2.011661        54.7401 
 490   0.0000       2.019773        54.9608 
 491   0.0000       2.024274        55.0833 
 492   0.0000       2.031671        55.2846 
 493   0.0000       2.037647        55.4472 
 494   0.0000       2.039808        55.5060 
 495   0.0000       2.045353        55.6569 
 496   0.0000       2.056168        55.9512 
 497   0.0000       2.066595        56.2349 
 498   0.0000       2.069370        56.3104 
 499   0.0000       2.079115        56.5756 
 500   0.0000       2.081456        56.6393 
 501   0.0000       2.117791        57.6280 
 502   0.0000       2.134198        58.0745 
 503   0.0000       2.152632        58.5761 
 504   0.0000       2.187723        59.5310 
 505   0.0000       2.206151        60.0324 
 506   0.0000       2.428146        66.0732 
 507   0.0000       2.488769        67.7228 
 508   0.0000       2.525590        68.7248 
 509   0.0000       2.536027        69.0088 
 510   0.0000       2.583364        70.2969 
 511   0.0000       2.584288        70.3221 
 512   0.0000       2.625029        71.4307 
 513   0.0000       2.633853        71.6708 
 514   0.0000       2.642231        71.8988 
 515   0.0000       2.648062        72.0574 
 516   0.0000       2.664883        72.5152 
 517   0.0000       2.684591        73.0514 
 518   0.0000       2.719613        74.0044 
 519   0.0000       2.724434        74.1356 
 520   0.0000       2.751903        74.8831 
 521   0.0000       2.777205        75.5716 
 522   0.0000       2.811582        76.5070 
 523   0.0000       2.839035        77.2541 
 524   0.0000       2.873103        78.1811 
 525   0.0000       2.900480        78.9261 
 526   0.0000       2.904258        79.0289 
 527   0.0000       3.080656        83.8289 
 528   0.0000       3.087795        84.0232 
 529   0.0000       3.095549        84.2342 
 530   0.0000       3.102475        84.4226 
 531   0.0000       3.108487        84.5862 
 532   0.0000       3.151174        85.7478 
 533   0.0000       3.160691        86.0068 
 534   0.0000       3.261690        88.7551 
 535   0.0000      23.782603       647.1575 
 536   0.0000      24.019606       653.6067 
 537   0.0000      24.163496       657.5222 
 538   0.0000      24.584148       668.9687 
 539   0.0000      24.694315       671.9665 
 540   0.0000      24.820727       675.4063 
 541   0.0000      24.903985       677.6719 
 542   0.0000      25.104878       683.1385 
 543   0.0000      25.306374       688.6214 
 544   0.0000      25.387227       690.8216 
 545   0.0000      25.491469       693.6581 
 546   0.0000      25.524915       694.5682 
 547   0.0000      25.734399       700.2686 
 548   0.0000      25.769994       701.2372 
 549   0.0000      25.813808       702.4294 
 550   0.0000      25.893866       704.6079 
 551   0.0000      26.018368       707.9958 
 552   0.0000      26.042771       708.6598 
 553   0.0000      26.099305       710.1982 
 554   0.0000      26.370469       717.5769 
 555   0.0000      26.421560       718.9672 
 556   0.0000      26.689688       726.2633 
 557   0.0000      26.749787       727.8987 
 558   0.0000      26.868925       731.1406 
 559   0.0000      26.994152       734.5482 
 560   0.0000      27.045980       735.9585 
 561   0.0000      27.084947       737.0189 
 562   0.0000      27.222912       740.7731 
 563   0.0000      27.267308       741.9812 
 564   0.0000      27.359675       744.4946 
 565   0.0000      27.589867       750.7584 
 566   0.0000      27.725152       754.4397 
 567   0.0000      27.766631       755.5684 
 568   0.0000      27.824300       757.1377 
 569   0.0000      27.954423       760.6785 
 570   0.0000      28.190940       767.1145 
 571   0.0000      28.259763       768.9872 
 572   0.0000      28.360677       771.7333 
 573   0.0000      29.100842       791.8742 
 574   0.0000      29.337379       798.3107 
 575   0.0000      29.365836       799.0850 
 576   0.0000      30.738010       836.4238 
 577   0.0000      44.147938      1201.3265 
 578   0.0000      44.202545      1202.8124 
 579   0.0000      44.269915      1204.6456 
 580   0.0000      44.273610      1204.7462 
 581   0.0000      44.279016      1204.8933 
 582   0.0000      44.326387      1206.1823 
 583   0.0000      44.343523      1206.6486 
 584   0.0000      44.353908      1206.9312 
 585   0.0000      44.364377      1207.2161 
 586   0.0000      44.378226      1207.5929 
 587   0.0000      44.393832      1208.0176 
 588   0.0000      44.411796      1208.5064 
 589   0.0000      44.445680      1209.4284 
 590   0.0000      44.515610      1211.3313 
 591   0.0000     202.689618      5515.4649 
 592   0.0000     202.714372      5516.1385 
 593   0.0000     202.737604      5516.7707 
 594   0.0000     202.739246      5516.8153 
 595   0.0000     202.745289      5516.9798 
 596   0.0000     202.767759      5517.5912 
 597   0.0000     202.771992      5517.7064 
 598   0.0000     202.775503      5517.8020 
 599   0.0000     202.780618      5517.9412 
 600   0.0000     202.785456      5518.0728 
 601   0.0000     202.795019      5518.3330 
 602   0.0000     202.799777      5518.4625 
 603   0.0000     202.816175      5518.9087 
 604   0.0000     202.842012      5519.6117 

                 SPIN DOWN ORBITALS
  NO   OCC          E(Eh)            E(eV) 
   0   1.0000    -217.718699     -5924.4270 
   1   1.0000     -25.329917      -689.2621 
   2   1.0000     -21.477005      -584.4190 
   3   1.0000     -21.475748      -584.3848 
   4   1.0000     -21.466402      -584.1305 
   5   1.0000      -4.404402      -119.8499 
   6   1.0000      -4.404174      -119.8437 
   7   1.0000      -4.397904      -119.6730 
   8   1.0000      -4.397401      -119.6594 
   9   1.0000      -4.397199      -119.6539 
  10   1.0000      -4.394298      -119.5749 
  11   1.0000      -4.394169      -119.5714 
  12   1.0000      -4.393514      -119.5536 
  13   1.0000      -4.393307      -119.5480 
  14   1.0000      -4.392344      -119.5218 
  15   1.0000      -4.389794      -119.4524 
  16   1.0000      -4.384024      -119.2954 
  17   1.0000      -4.382752      -119.2607 
  18   1.0000      -4.382553      -119.2553 
  19   1.0000      -2.974104       -80.9295 
  20   1.0000      -2.525191       -68.7139 
  21   1.0000      -2.523749       -68.6747 
  22   1.0000      -2.523405       -68.6653 
  23   1.0000      -2.522694       -68.6460 
  24   1.0000      -2.520287       -68.5805 
  25   1.0000      -2.519433       -68.5572 
  26   1.0000      -2.519188       -68.5506 
  27   1.0000      -2.517525       -68.5053 
  28   1.0000      -2.517168       -68.4956 
  29   1.0000      -2.516968       -68.4902 
  30   1.0000      -2.515125       -68.4400 
  31   1.0000      -2.514678       -68.4279 
  32   1.0000      -2.513686       -68.4009 
  33   1.0000      -2.513494       -68.3957 
  34   1.0000      -2.513088       -68.3846 
  35   1.0000      -2.512623       -68.3720 
  36   1.0000      -2.512433       -68.3668 
  37   1.0000      -2.511890       -68.3520 
  38   1.0000      -2.511837       -68.3506 
  39   1.0000      -2.511068       -68.3296 
  40   1.0000      -2.510478       -68.3136 
  41   1.0000      -2.510247       -68.3073 
  42   1.0000      -2.509974       -68.2999 
  43   1.0000      -2.509664       -68.2914 
  44   1.0000      -2.509304       -68.2816 
  45   1.0000      -2.508422       -68.2576 
  46   1.0000      -2.508276       -68.2537 
  47   1.0000      -2.508129       -68.2497 
  48   1.0000      -2.507848       -68.2420 
  49   1.0000      -2.506236       -68.1981 
  50   1.0000      -2.505883       -68.1885 
  51   1.0000      -2.505555       -68.1796 
  52   1.0000      -2.505518       -68.1786 
  53   1.0000      -2.503726       -68.1298 
  54   1.0000      -2.502830       -68.1055 
  55   1.0000      -2.500210       -68.0342 
  56   1.0000      -2.498799       -67.9958 
  57   1.0000      -2.498512       -67.9880 
  58   1.0000      -2.498211       -67.9798 
  59   1.0000      -2.497555       -67.9619 
  60   1.0000      -2.497414       -67.9581 
  61   1.0000      -2.497263       -67.9540 
  62   1.0000      -1.837583       -50.0032 
  63   1.0000      -1.834314       -49.9142 
  64   1.0000      -1.812534       -49.3215 
  65   1.0000      -0.488411       -13.2903 
  66   1.0000      -0.475132       -12.9290 
  67   1.0000      -0.467039       -12.7088 
  68   1.0000      -0.464009       -12.6263 
  69   1.0000      -0.460155       -12.5215 
  70   1.0000      -0.459972       -12.5165 
  71   1.0000      -0.455792       -12.4027 
  72   1.0000      -0.455380       -12.3915 
  73   1.0000      -0.454215       -12.3598 
  74   1.0000      -0.452606       -12.3160 
  75   1.0000      -0.451655       -12.2901 
  76   1.0000      -0.448938       -12.2162 
  77   1.0000      -0.447952       -12.1894 
  78   1.0000      -0.444890       -12.1061 
  79   1.0000      -0.444751       -12.1023 
  80   1.0000      -0.441920       -12.0253 
  81   1.0000      -0.440515       -11.9870 
  82   1.0000      -0.435016       -11.8374 
  83   1.0000      -0.434731       -11.8296 
  84   1.0000      -0.429233       -11.6800 
  85   1.0000      -0.426505       -11.6058 
  86   1.0000      -0.425753       -11.5853 
  87   1.0000      -0.424216       -11.5435 
  88   1.0000      -0.422560       -11.4984 
  89   1.0000      -0.419680       -11.4201 
  90   1.0000      -0.417313       -11.3557 
  91   1.0000      -0.414657       -11.2834 
  92   1.0000      -0.411933       -11.2093 
  93   1.0000      -0.410046       -11.1579 
  94   1.0000      -0.406996       -11.0749 
  95   1.0000      -0.405109       -11.0236 
  96   1.0000      -0.404228       -10.9996 
  97   1.0000      -0.400032       -10.8854 
  98   1.0000      -0.396631       -10.7929 
  99   1.0000      -0.395440       -10.7605 
 100   1.0000      -0.393774       -10.7151 
 101   1.0000      -0.390559       -10.6277 
 102   1.0000      -0.386908       -10.5283 
 103   1.0000      -0.386656       -10.5214 
 104   1.0000      -0.380428       -10.3520 
 105   1.0000      -0.378617       -10.3027 
 106   1.0000      -0.377882       -10.2827 
 107   1.0000      -0.376137       -10.2352 
 108   1.0000      -0.371613       -10.1121 
 109   1.0000      -0.369854       -10.0642 
 110   1.0000      -0.369134       -10.0447 
 111   1.0000      -0.366416        -9.9707 
 112   1.0000      -0.365227        -9.9383 
 113   1.0000      -0.363965        -9.9040 
 114   1.0000      -0.363229        -9.8840 
 115   1.0000      -0.361591        -9.8394 
 116   1.0000      -0.359837        -9.7917 
 117   1.0000      -0.358400        -9.7526 
 118   1.0000      -0.357525        -9.7288 
 119   1.0000      -0.357066        -9.7163 
 120   1.0000      -0.356655        -9.7051 
 121   1.0000      -0.353682        -9.6242 
[...]
      pz      :    -0.036350  p :    -0.073700
      px      :    -0.010436
      py      :    -0.026914
      dz2     :    -0.000869  d :     0.000508
      dxz     :    -0.003260
      dyz     :     0.004402
      dx2y2   :    -0.002339
      dxy     :     0.002574
      f0      :     0.000046  f :     0.000256
      f+1     :    -0.000017
      f-1     :     0.000020
      f+2     :     0.000045
      f-2     :     0.000083
      f+3     :     0.000060
      f-3     :     0.000019
  5 Aus       :    -0.084764  s :    -0.084764
      pz      :    -0.005788  p :    -0.073299
      px      :    -0.004092
      py      :    -0.063419
      dz2     :     0.002595  d :     0.003154
      dxz     :     0.005371
      dyz     :    -0.000958
      dx2y2   :    -0.002917
      dxy     :    -0.000937
      f0      :     0.000136  f :     0.000362
      f+1     :     0.000136
      f-1     :     0.000070
      f+2     :     0.000012
      f-2     :     0.000017
      f+3     :    -0.000012
      f-3     :     0.000002
  6 Aus       :    -0.027259  s :    -0.027259
      pz      :    -0.071963  p :    -0.101349
      px      :    -0.015128
      py      :    -0.014257
      dz2     :    -0.000218  d :    -0.005812
      dxz     :    -0.005358
      dyz     :    -0.002074
      dx2y2   :    -0.001636
      dxy     :     0.003475
      f0      :     0.000019  f :     0.000230
      f+1     :     0.000011
      f-1     :     0.000040
      f+2     :     0.000006
      f-2     :     0.000009
      f+3     :     0.000113
      f-3     :     0.000032
  7 Aus       :     0.007382  s :     0.007382
      pz      :    -0.004175  p :    -0.006094
      px      :    -0.000208
      py      :    -0.001712
      dz2     :    -0.000359  d :    -0.006525
      dxz     :    -0.002483
      dyz     :     0.000194
      dx2y2   :    -0.000077
      dxy     :    -0.003801
      f0      :    -0.000004  f :    -0.000046
      f+1     :    -0.000010
      f-1     :    -0.000003
      f+2     :    -0.000005
      f-2     :     0.000001
      f+3     :    -0.000002
      f-3     :    -0.000023
  8 Aus       :    -0.054455  s :    -0.054455
      pz      :    -0.049706  p :    -0.074136
      px      :    -0.013117
      py      :    -0.011313
      dz2     :     0.000997  d :     0.000433
      dxz     :    -0.005270
      dyz     :    -0.002572
      dx2y2   :     0.002544
      dxy     :     0.004734
      f0      :     0.000013  f :     0.000247
      f+1     :     0.000013
      f-1     :     0.000062
      f+2     :     0.000018
      f-2     :     0.000001
      f+3     :     0.000083
      f-3     :     0.000056
  9 Aus       :    -0.028589  s :    -0.028589
      pz      :    -0.047177  p :    -0.100808
      px      :    -0.012200
      py      :    -0.041432
      dz2     :     0.000470  d :    -0.005585
      dxz     :    -0.005975
      dyz     :     0.003763
      dx2y2   :    -0.006996
      dxy     :     0.003152
      f0      :     0.000041  f :     0.000235
      f+1     :    -0.000008
      f-1     :     0.000016
      f+2     :     0.000007
      f-2     :     0.000074
      f+3     :     0.000071
      f-3     :     0.000033
 10 Aus       :    -0.017809  s :    -0.017809
      pz      :    -0.009514  p :    -0.038466
      px      :     0.000040
      py      :    -0.028992
      dz2     :     0.001405  d :    -0.000430
      dxz     :     0.001627
      dyz     :     0.000490
      dx2y2   :    -0.000565
      dxy     :    -0.003386
      f0      :    -0.000003  f :    -0.000032
      f+1     :     0.000009
      f-1     :    -0.000002
      f+2     :     0.000009
      f-2     :     0.000001
      f+3     :    -0.000011
      f-3     :    -0.000034
 11 Aus       :    -0.079302  s :    -0.079302
      pz      :    -0.005610  p :    -0.060946
      px      :    -0.013445
      py      :    -0.041892
      dz2     :     0.003792  d :     0.000714
      dxz     :     0.005747
      dyz     :    -0.001260
      dx2y2   :    -0.005118
      dxy     :    -0.002447
      f0      :     0.000216  f :     0.000416
      f+1     :     0.000090
      f-1     :     0.000106
      f+2     :    -0.000004
      f-2     :     0.000017
      f+3     :    -0.000005
      f-3     :    -0.000004
 12 Aus       :    -0.093715  s :    -0.093715
      pz      :    -0.005498  p :    -0.026408
      px      :    -0.003348
      py      :    -0.017562
      dz2     :     0.004186  d :    -0.002477
      dxz     :    -0.003904
      dyz     :     0.000614
      dx2y2   :     0.000126
      dxy     :    -0.003500
      f0      :     0.000038  f :     0.000378
      f+1     :     0.000091
      f-1     :    -0.000006
      f+2     :     0.000118
      f-2     :     0.000070
      f+3     :     0.000025
      f-3     :     0.000041
 13 Aus       :    -0.080195  s :    -0.080195
      pz      :    -0.023165  p :    -0.061075
      px      :    -0.014924
      py      :    -0.022986
      dz2     :    -0.003535  d :     0.000818
      dxz     :     0.001576
      dyz     :     0.003643
      dx2y2   :    -0.003188
      dxy     :     0.002322
      f0      :     0.000015  f :     0.000416
      f+1     :    -0.000009
      f-1     :     0.000121
      f+2     :     0.000139
      f-2     :     0.000076
      f+3     :     0.000054
      f-3     :     0.000020
 14 Crs       :     0.019584  s :     0.019584
      pz      :     0.020067  p :     0.053856
      px      :     0.015816
      py      :     0.017974
      dz2     :     0.637722  d :     3.344022
      dxz     :     0.408577
      dyz     :     0.652400
      dx2y2   :     0.803142
      dxy     :     0.842180
      f0      :     0.000029  f :     0.000113
      f+1     :     0.000039
      f-1     :     0.000004
      f+2     :     0.000020
      f-2     :     0.000011
      f+3     :     0.000004
      f-3     :     0.000006


                      *****************************
                      * MAYER POPULATION ANALYSIS *
                      *****************************

  NA   - Mulliken gross atomic population
  ZA   - Total nuclear charge
  QA   - Mulliken gross atomic charge
  VA   - Mayer's total valence
  BVA  - Mayer's bonded valence
  FA   - Mayer's free valence

  ATOM       NA         ZA         QA         VA         BVA        FA
  0 Au    18.6986    19.0000     0.3014     1.6467     1.6375     0.0092
  1 Au    18.5713    19.0000     0.4287     1.4907     1.4764     0.0143
  2 Au    18.8768    19.0000     0.1232     1.5618     1.5607     0.0011
  3 Au    18.8790    19.0000     0.1210     1.5628     1.5616     0.0012
  4 Au    18.7200    19.0000     0.2800     1.7510     1.7394     0.0115
  5 Au    18.5730    19.0000     0.4270     1.4916     1.4774     0.0142
  6 Au    18.4959    19.0000     0.5041     1.3705     1.3638     0.0067
  7 Au    18.5882    19.0000     0.4118     1.1958     1.1954     0.0003
  8 Au    18.7221    19.0000     0.2779     1.7512     1.7398     0.0114
  9 Au    18.4968    19.0000     0.5032     1.3715     1.3646     0.0069
 10 Au    19.3357    19.0000    -0.3357     2.0776     2.0751     0.0024
 11 Au    18.4316    19.0000     0.5684     1.4463     1.4352     0.0111
 12 Au    18.5772    19.0000     0.4228     1.4821     1.4637     0.0184
 13 Au    18.4339    19.0000     0.5661     1.4464     1.4350     0.0114
 14 Cr    28.6000    24.0000    -4.6000    10.5029     6.4151     4.0878

  Mayer bond orders larger than 0.100000
B(  0-Au,  2-Au) :   0.1861 B(  0-Au,  3-Au) :   0.1821 B(  0-Au,  4-Au) :   0.1565 
B(  0-Au,  8-Au) :   0.1582 B(  0-Au, 12-Au) :   0.1231 B(  0-Au, 14-Cr) :   0.5049 
B(  1-Au,  5-Au) :   0.2623 B(  1-Au,  8-Au) :   0.1266 B(  1-Au,  9-Au) :   0.2011 
B(  1-Au, 14-Cr) :   0.5764 B(  2-Au,  3-Au) :   0.1237 B(  2-Au,  4-Au) :   0.2996 
B(  2-Au,  7-Au) :   0.2954 B(  2-Au, 10-Au) :   0.2586 B(  2-Au, 14-Cr) :   0.4027 
B(  3-Au,  7-Au) :   0.2949 B(  3-Au,  8-Au) :   0.3032 B(  3-Au, 10-Au) :   0.2592 
B(  3-Au, 14-Cr) :   0.4014 B(  4-Au,  5-Au) :   0.1269 B(  4-Au,  6-Au) :   0.1773 
B(  4-Au, 13-Au) :   0.1703 B(  4-Au, 14-Cr) :   0.5117 B(  5-Au,  6-Au) :   0.2016 
B(  5-Au, 14-Cr) :   0.5791 B(  6-Au, 12-Au) :   0.2095 B(  6-Au, 13-Au) :   0.1310 
B(  6-Au, 14-Cr) :   0.4440 B(  7-Au, 10-Au) :   0.4179 B(  8-Au,  9-Au) :   0.1755 
B(  8-Au, 11-Au) :   0.1707 B(  8-Au, 14-Cr) :   0.5111 B(  9-Au, 11-Au) :   0.1297 
B(  9-Au, 12-Au) :   0.2100 B(  9-Au, 14-Cr) :   0.4466 B( 10-Au, 11-Au) :   0.2393 
B( 10-Au, 13-Au) :   0.2401 B( 10-Au, 14-Cr) :   0.4523 B( 11-Au, 12-Au) :   0.1064 
B( 11-Au, 14-Cr) :   0.5022 B( 12-Au, 13-Au) :   0.1055 B( 12-Au, 14-Cr) :   0.5705 
B( 13-Au, 14-Cr) :   0.5019 

-------
TIMINGS
-------

Total SCF time: 0 days 1 hours 0 min 2 sec 

Total time                  ....    3602.676 sec
Sum of individual times     ....    3564.109 sec  ( 98.9%)

Fock matrix formation       ....    2810.194 sec  ( 78.0%)
  Split-RI-J                ....     267.865 sec  (  9.5% of F)
  Chain of spheres X        ....    2043.752 sec  ( 72.7% of F)
  XC integration            ....     310.570 sec  ( 11.1% of F)
    Basis function eval.    ....      37.570 sec  ( 12.1% of XC)
    Density eval.           ....     126.342 sec  ( 40.7% of XC)
    XC-Functional eval.     ....       5.958 sec  (  1.9% of XC)
    XC-Potential eval.      ....      91.643 sec  ( 29.5% of XC)
Diagonalization             ....     302.264 sec  (  8.4%)
Density matrix formation    ....      12.921 sec  (  0.4%)
Population analysis         ....       2.454 sec  (  0.1%)
Initial guess               ....       0.815 sec  (  0.0%)
Orbital Transformation      ....       0.000 sec  (  0.0%)
Orbital Orthonormalization  ....       0.516 sec  (  0.0%)
DIIS solution               ....     424.584 sec  ( 11.8%)
Grid generation             ....      10.877 sec  (  0.3%)

Maximum memory used throughout the entire SCF-calculation: 147.4 MB


           ************************************************************
           *        Program running with 6 parallel MPI-processes     *
           *              working on a common directory               *
           ************************************************************

------------------------------------------------------------------------------
                                ORCA  MP2 
------------------------------------------------------------------------------

Freezing NCore=10 chemical core electrons

   <<< Use J-auxbasis for calculation of Separable RI-J derivative contributions (Dim=1335) >>> 


-------------
RI-MP2 ENERGY
-------------
Dimension of the basis                    ...  605
Memory devoted to MP2                     ...  256 MB   
Data format for buffers                   ... DOUBLE
Compression type for matrix containers    ... UNCOMPRESSED
Overall scaling of the MP2 energy         ...   2.700e-01
Calculating two index integrals           ... done (    0.116 sec)
Cholesky decomposition of V**-1           ... done (   24.921 sec)

-----------------
RI-TRANSFORMATION (AUX index driven)
-----------------

Dimension of the orbital-basis         ... 605
Dimension of the aux-basis             ... 2296
Transformation of internal/external MOs...    5- 145 to  146- 604
Number Format for Storage              ... Double (8 Byte)
Integral mode                          ... Direct

First Phase: integral generation and transformation of MO indices
  Aux angular momentum 0               ... done (    0.466 sec)
  Aux angular momentum 1               ... done (    1.191 sec)
  Aux angular momentum 2               ... done (    1.687 sec)
  Aux angular momentum 3               ... done (    1.566 sec)
  Aux angular momentum 4               ... done (    1.292 sec)
  Aux angular momentum 5               ... done (    1.000 sec)
Closing buffer VIA ( 1.11 GB; CompressionRatio= 1.00)
  Phase 1 completed in     8.103 sec
Second Phase: sorting and transformation of aux index

IA-Transformation
Memory available                       ... 164 MB 
Max. # MO pairs treated in a batch     ... 19    
# of internal orbitals                 ... 141
# batches for internal orbitals        ... 2
Closing buffer IAV ( 1.11 GB; CompressionRatio= 1.00)
(ia|v) transformation done in     7.168 sec

  Phase 2 completed in     7.471 sec
RI-Integral transformation completed in    15.718 sec

-----------------
RI-TRANSFORMATION (AUX index driven)
-----------------

Dimension of the orbital-basis         ... 605
Dimension of the aux-basis             ... 2296
Transformation of internal/external MOs...    5- 143 to  144- 604
Number Format for Storage              ... Double (8 Byte)
Integral mode                          ... Direct

First Phase: integral generation and transformation of MO indices
  Aux angular momentum 0               ... done (    0.570 sec)
  Aux angular momentum 1               ... done (    0.831 sec)
  Aux angular momentum 2               ... done (    1.618 sec)
  Aux angular momentum 3               ... done (    1.445 sec)
  Aux angular momentum 4               ... done (    1.195 sec)
  Aux angular momentum 5               ... done (    1.068 sec)
Closing buffer VIA ( 1.10 GB; CompressionRatio= 1.00)
  Phase 1 completed in     8.012 sec
Second Phase: sorting and transformation of aux index

IA-Transformation
Memory available                       ... 164 MB 
Max. # MO pairs treated in a batch     ... 19    
# of internal orbitals                 ... 139
# batches for internal orbitals        ... 2
Closing buffer IAV ( 1.10 GB; CompressionRatio= 1.00)
(ia|v) transformation done in     7.152 sec

  Phase 2 completed in     7.439 sec
RI-Integral transformation completed in    15.603 sec
Opening buffers                              ... done

Starting loop over batches of integrals:

Operator 0  - window                       ... (  5-145)x(146-604)
Operator 0  - Memory available             ...   256 MB
Operator 0  - Memory needed per MO         ...   8.0 MB
Operator 0  - Number of orbitals per batch ... 22
Operator 0  - Number of batches            ... 2

OPERATOR  0   PASS   0:  MOs     5 ...   26 +   27 ...   48 +   49 ...   70 +   71 ...   92
                            +   93 ...  114 +  115 ...  136
  Reading integrals       ... ok
  Internal MO   7
  Internal MO  10
  Internal MO  13
  Internal MO  16
  Internal MO  19
  Internal MO  22
  Internal MO  25
OPERATOR  0   PASS   1:  MOs   137 ...  138 +  139 ...  140 +  141 ...  142 +  143 ...  143
                            +  144 ...  144 +  145 ...  145
  Reading integrals       ... ok
  Internal MO 145

Operator 1  - window                       ... (  5-143)x(144-604)
Operator 1  - Memory available             ...   256 MB
Operator 1  - Memory needed per MO         ...   8.1 MB
Operator 1  - Number of orbitals per batch ... 22
Operator 1  - Number of batches            ... 2

OPERATOR  1   PASS   0:  MOs     5 ...   26 +   27 ...   48 +   49 ...   70 +   71 ...   92
                            +   93 ...  114 +  115 ...  136
  Reading integrals       ... ok
  Internal MO   7
  Internal MO  10
  Internal MO  13
  Internal MO  16
  Internal MO  19
  Internal MO  22
  Internal MO  25
OPERATOR  1   PASS   1:  MOs   137 ...  138 +  139 ...  139 +  140 ...  140 +  141 ...  141
                            +  142 ...  142 +  143 ...  143
  Reading integrals       ... ok
Time spent in pair loops =   659.625 sec
Deleting buffer (Ka|jb)[aa] ...done
Deleting buffer (Ka|jb)[ba] ...done
Deleting buffer (Ka|jb)[ab] ...done
Deleting buffer (Ka|jb)[bb] ...done

Correlation energy components}
 E2 and T2 for alpha/alpha pairs :     -0.426823608 Eh      0.000000000
 E2 and T2 for beta/beta   pairs :     -0.415287032 Eh      0.000000000
 E2 and T2 for alpha/beta  pairs :     -1.421882873 Eh      0.000000000


-----------------------------------------------
 RI-MP2 CORRELATION ENERGY:     -2.263993512 Eh
-----------------------------------------------


-------
TIMINGS
-------

Total time                :  729.492 sec
Integral trafo            :   31.341 sec (  4.3%)
I/O of integrals          :    0.318 sec (  0.0%)
K(i,j) Operators          :  355.516 sec ( 48.7%)
T(i,j) pair energies      :    8.582 sec (  1.2%)
V-calculation             :    0.116 sec (  0.0%)
V**(-1/2)                 :   24.921 sec (  3.4%)
Gamma(ia|P)               :    0.000 sec (  0.0%)
Gamma-Trafo               :    0.000 sec (  0.0%)
D(virtual)                :    0.000 sec (  0.0%)
D(internal)               :    0.000 sec (  0.0%)
W(virtual)                :    0.000 sec (  0.0%)
W(internal)               :    0.000 sec (  0.0%)
L(virtual)                :    0.000 sec (  0.0%)
L(internal)               :    0.000 sec (  0.0%)
G(D)                      :    0.000 sec (  0.0%)
G(Z)                      :    0.000 sec (  0.0%)
Z-Vector Solution         :    0.000 sec (  0.0%)
3-Index Derivative        :    0.000 sec (  0.0%)
2-Index Derivative        :    0.000 sec (  0.0%)
Separable Gradient (RIJ)  :    0.000 sec (  0.0%)
Separable Gradient (COSX) :    0.000 sec (  0.0%)


---------------------------------------
MP2 TOTAL ENERGY:    -2942.507594397 Eh
---------------------------------------

Maximum memory used throughout the entire MP2-calculation: 300.0 MB

-------------------------   --------------------
FINAL SINGLE POINT ENERGY     -2942.507594396554
-------------------------   --------------------


                            ***************************************
                            *     ORCA property calculations      *
                            ***************************************


  WARNING: The energy has been calculated at the MP2 level but the densities
           used in the property calculations are still SCF densities
           MP2 response densities have not been calculated 
           use %mp2 Density relaxed end
           or  %mp2 Density unrelaxed end

                                    ---------------------
                                    Active property flags
                                    ---------------------
   (+) Dipole Moment


------------------------------------------------------------------------------
                       ORCA ELECTRIC PROPERTIES CALCULATION
------------------------------------------------------------------------------

Dipole Moment Calculation                       ... on
Quadrupole Moment Calculation                   ... off
Polarizability Calculation                      ... off
GBWName                                         ... b2plyp_job2.gbw
Electron density                                ... b2plyp_job2.scfp
The origin for moment calculation is the CENTER OF MASS  = (16.456434, 15.932638 13.640240)

-------------
DIPOLE MOMENT
-------------
                                X             Y             Z
Electronic contribution:    -34.34562       0.05712       4.26769
Nuclear contribution   :     34.54706      -0.02752      -4.20980
                        -----------------------------------------
Total Dipole Moment    :      0.20143       0.02960       0.05788
                        -----------------------------------------
Magnitude (a.u.)       :      0.21167
Magnitude (Debye)      :      0.53801



--------------------
Rotational spectrum 
--------------------
 
Rotational constants in cm-1:     0.001271     0.000888     0.000839 
Rotational constants in MHz :    38.115682    26.617965    25.162090 

 Dipole components along the rotational axes: 
x,y,z [a.u.] :     0.195755    -0.002563     0.080470 
x,y,z [Debye]:     0.497571    -0.006514     0.204539 

 

Timings for individual modules:

Sum of individual times         ...     4366.559 sec (=  72.776 min)
GTO integral calculation        ...       31.587 sec (=   0.526 min)   0.7 %
SCF iterations                  ...     3603.995 sec (=  60.067 min)  82.5 %
MP2 module                      ...      730.977 sec (=  12.183 min)  16.7 %



                             ****ORCA TERMINATED NORMALLY****
TOTAL RUN TIME: 0 days 2 hours 9 minutes 57 seconds 577 msec
