
                                 *****************
                                 * O   R   C   A *
                                 *****************

                                            #,                                       
                                            ###                                      
                                            ####                                     
                                            #####                                    
                                            ######                                   
                                           ########,                                 
                                     ,,################,,,,,                         
                               ,,#################################,,                 
                          ,,##########################################,,             
                       ,#########################################, ''#####,          
                    ,#############################################,,   '####,        
                  ,##################################################,,,,####,       
                ,###########''''           ''''###############################       
              ,#####''   ,,,,##########,,,,          '''####'''          '####       
            ,##' ,,,,###########################,,,                        '##       
           ' ,,###''''                  '''############,,,                           
         ,,##''                                '''############,,,,        ,,,,,,###''
      ,#''                                            '''#######################'''  
     '                                                          ''''####''''         
             ,#######,   #######,   ,#######,      ##                                
            ,#'     '#,  ##    ##  ,#'     '#,    #''#        ######   ,####,        
            ##       ##  ##   ,#'  ##            #'  '#       #        #'  '#        
            ##       ##  #######   ##           ,######,      #####,   #    #        
            '#,     ,#'  ##    ##  '#,     ,#' ,#      #,         ##   #,  ,#        
             '#######'   ##     ##  '#######'  #'      '#     #####' # '####'        



                  #######################################################
                  #                        -***-                        #
                  #          Department of theory and spectroscopy      #
                  #    Directorship and core code : Frank Neese         #
                  #        Max Planck Institute fuer Kohlenforschung    #
                  #                Kaiser Wilhelm Platz 1               #
                  #                 D-45470 Muelheim/Ruhr               #
                  #                      Germany                        #
                  #                                                     #
                  #                  All rights reserved                #
                  #                        -***-                        #
                  #######################################################


                         Program Version 5.0.3 -  RELEASE  -


 With contributions from (in alphabetic order):
   Daniel Aravena         : Magnetic Suceptibility
   Michael Atanasov       : Ab Initio Ligand Field Theory (pilot matlab implementation)
   Alexander A. Auer      : GIAO ZORA, VPT2 properties, NMR spectrum
   Ute Becker             : Parallelization
   Giovanni Bistoni       : ED, misc. LED, open-shell LED, HFLD
   Martin Brehm           : Molecular dynamics
   Dmytro Bykov           : SCF Hessian
   Vijay G. Chilkuri      : MRCI spin determinant printing, contributions to CSF-ICE
   Dipayan Datta          : RHF DLPNO-CCSD density
   Achintya Kumar Dutta   : EOM-CC, STEOM-CC
   Dmitry Ganyushin       : Spin-Orbit,Spin-Spin,Magnetic field MRCI
   Miquel Garcia          : C-PCM and meta-GGA Hessian, CC/C-PCM, Gaussian charge scheme
   Yang Guo               : DLPNO-NEVPT2, F12-NEVPT2, CIM, IAO-localization
   Andreas Hansen         : Spin unrestricted coupled pair/coupled cluster methods
   Benjamin Helmich-Paris : MC-RPA, TRAH-SCF, COSX integrals
   Lee Huntington         : MR-EOM, pCC
   Robert Izsak           : Overlap fitted RIJCOSX, COSX-SCS-MP3, EOM
   Marcus Kettner         : VPT2
   Christian Kollmar      : KDIIS, OOCD, Brueckner-CCSD(T), CCSD density, CASPT2, CASPT2-K
   Simone Kossmann        : Meta GGA functionals, TD-DFT gradient, OOMP2, MP2 Hessian
   Martin Krupicka        : Initial AUTO-CI
   Lucas Lang             : DCDCAS
   Marvin Lechner         : AUTO-CI (C++ implementation), FIC-MRCC
   Dagmar Lenk            : GEPOL surface, SMD
   Dimitrios Liakos       : Extrapolation schemes; Compound Job, initial MDCI parallelization
   Dimitrios Manganas     : Further ROCIS development; embedding schemes
   Dimitrios Pantazis     : SARC Basis sets
   Anastasios Papadopoulos: AUTO-CI, single reference methods and gradients
   Taras Petrenko         : DFT Hessian,TD-DFT gradient, ASA, ECA, R-Raman, ABS, FL, XAS/XES, NRVS
   Peter Pinski           : DLPNO-MP2, DLPNO-MP2 Gradient
   Christoph Reimann      : Effective Core Potentials
   Marius Retegan         : Local ZFS, SOC
   Christoph Riplinger    : Optimizer, TS searches, QM/MM, DLPNO-CCSD(T), (RO)-DLPNO pert. Triples
   Tobias Risthaus        : Range-separated hybrids, TD-DFT gradient, RPA, STAB
   Michael Roemelt        : Original ROCIS implementation
   Masaaki Saitow         : Open-shell DLPNO-CCSD energy and density
   Barbara Sandhoefer     : DKH picture change effects
   Avijit Sen             : IP-ROCIS
   Kantharuban Sivalingam : CASSCF convergence, NEVPT2, FIC-MRCI
   Bernardo de Souza      : ESD, SOC TD-DFT
   Georgi Stoychev        : AutoAux, RI-MP2 NMR, DLPNO-MP2 response
   Willem Van den Heuvel  : Paramagnetic NMR
   Boris Wezisla          : Elementary symmetry handling
   Frank Wennmohs         : Technical directorship


 We gratefully acknowledge several colleagues who have allowed us to
 interface, adapt or use parts of their codes:
   Stefan Grimme, W. Hujo, H. Kruse, P. Pracht,  : VdW corrections, initial TS optimization,
                  C. Bannwarth, S. Ehlert          DFT functionals, gCP, sTDA/sTD-DF
   Ed Valeev, F. Pavosevic, A. Kumar             : LibInt (2-el integral package), F12 methods
   Garnet Chan, S. Sharma, J. Yang, R. Olivares  : DMRG
   Ulf Ekstrom                                   : XCFun DFT Library
   Mihaly Kallay                                 : mrcc  (arbitrary order and MRCC methods)
   Jiri Pittner, Ondrej Demel                    : Mk-CCSD
   Frank Weinhold                                : gennbo (NPA and NBO analysis)
   Christopher J. Cramer and Donald G. Truhlar   : smd solvation model
   Lars Goerigk                                  : TD-DFT with DH, B97 family of functionals
   V. Asgeirsson, H. Jonsson                     : NEB implementation
   FAccTs GmbH                                   : IRC, NEB, NEB-TS, DLPNO-Multilevel, CI-OPT
                                                   MM, QMMM, 2- and 3-layer-ONIOM, Crystal-QMMM,
                                                   LR-CPCM, SF, NACMEs, symmetry and pop. for TD-DFT,
                                                   nearIR, NL-DFT gradient (VV10), updates on ESD,
                                                   ML-optimized integration grids
   S Lehtola, MJT Oliveira, MAL Marques          : LibXC Library
   Liviu Ungur et al                             : ANISO software


 Your calculation uses the libint2 library for the computation of 2-el integrals
 For citations please refer to: http://libint.valeyev.net

 Your ORCA version has been built with support for libXC version: 5.1.0
 For citations please refer to: https://tddft.org/programs/libxc/

 This ORCA versions uses:
   CBLAS   interface :  Fast vector & matrix operations
   LAPACKE interface :  Fast linear algebra routines
   SCALAPACK package :  Parallel linear algebra routines
   Shared memory     :  Shared parallel matrices
   BLAS/LAPACK       :  OpenBLAS 0.3.15  USE64BITINT DYNAMIC_ARCH NO_AFFINITY Haswell SINGLE_THREADED
        Core in use  :  Haswell
   Copyright (c) 2011-2014, The OpenBLAS Project




***************************************
The coordinates will be read from file: pbe.xyz
***************************************


================================================================================

cite the ECPs for Au [Def2-ECP] as follows:
Ce-Yb(ecp-28): M. Dolg, H. Stoll, H.Preuss, J. Chem. Phys., 1989, 90, 1730-1734.
Y-Cd(ecp-28), Hf-Hg(ecp-46): D. Andrae,U. Haeussermann, M. Dolg, H. Stoll, H. Preuss, Theor. Chim. Acta, 1990, 77, 123-141.
In-Sb(ecp-28), Tl-Bi(ecp-46): B. Metz, H. Stoll, M. Dolg, J. Chem. Phys., 2000, 113, 2563-2569.
Te-Xe(ecp-28), Po-Rn(ecp-46): K. A. Peterson, D. Figgen, E. Goll, H. Stoll, M. Dolg, J. Chem. Phys., 2003, 119, 11113-11123.
Rb(ecp-28), Cs(ecp-46): T. Leininger, A. Nicklass, W. Kuechle, H. Stoll, M. Dolg, A. Bergner, Chem. Phys. Lett., 1996, 255, 274-280.
Sr(ecp-28), Ba(ecp-46): M. Kaupp, P. V. Schleyer, H. Stoll and H. Preuss, J. Chem. Phys., 1991, 94, 1360-1366.
La(ecp-46): M. Dolg, H. Stoll, A. Savin, H. Preuss, Theor. Chim. Acta, 1989, 75, 173-194.
Lu(ecp-28): X. Cao, M. Dolg, J. Chem. Phys., 2001, 115, 7348-7355.

ECP parameters for Au [Def2-ECP] have been obtained from:
TURBOMOLE (7.0.2)

----- Orbital basis set information -----
Your calculation utilizes the basis: def2-TZVP
   F. Weigend and R. Ahlrichs, Phys. Chem. Chem. Phys. 7, 3297 (2005).

----- AuxJ basis set information -----
Your calculation utilizes the auxiliary basis: def2/J
   F. Weigend, Phys. Chem. Chem. Phys. 8, 1057 (2006).

----- AuxC basis set information -----
Your calculation utilizes the auxiliary basis: def2-TZVP/C
  H-La, Hf-Rn : A. Hellweg, C. Hattig, S. Hofener and W. Klopper, Theor. Chem. Acc. 117, 587 (2007).
        Ce-Lu : J. Chmela and M. E. Harding, Mol. Phys. (2018).

================================================================================
                                        WARNINGS
                       Please study these warnings very carefully!
================================================================================


INFO   : the flag for use of the SHARK integral package has been found!

================================================================================
                                       INPUT FILE
================================================================================
NAME = casscf.inp
|  1> !CASSCF def2-TZVP def2-TZVP/C
|  2> !MOREAD RIJCOSX
|  3> %maxcore 6000
|  4> %moinp "pbe.qro"
|  5> %pal nprocs 2 end 
|  6> 
|  7> %casscf
|  8>  mult 5,3
|  9>  bweight 1,1
| 10>  nroots 5,45
| 11>  nel 6
| 12>  norb 5
| 13> end
| 14> 
| 15> 
| 16> *xyzfile 0 5 pbe.xyz
| 17> 
| 18> 
| 19>                          ****END OF INPUT****
================================================================================

                       ****************************
                       * Single Point Calculation *
                       ****************************

---------------------------------
CARTESIAN COORDINATES (ANGSTROEM)
---------------------------------
  Au    10.746341    5.002736    5.049143
  Au     8.340528    7.443499    9.470186
  Au     7.254991    7.519236    6.774852
  Au     7.827527    5.275404    5.484041
  Au     9.614442    3.545775    7.131058
  Au     9.494827    5.009934    9.397671
  Au    11.075911    7.443816    8.825104
  Au     7.379847    9.760691    8.416175
  Au    11.432212    7.484836    5.884043
  Au     9.659249    9.127979    7.071932
  Fe     9.542505    6.227423    7.116707

----------------------------
CARTESIAN COORDINATES (A.U.)
----------------------------
  NO LB      ZA    FRAG     MASS         X           Y           Z
   0 Au   19.0000*   0   196.966   20.307641    9.453801    9.541498
   1 Au   19.0000*   0   196.966   15.761313   14.066174   17.896058
   2 Au   19.0000*   0   196.966   13.709945   14.209296   12.802614
   3 Au   19.0000*   0   196.966   14.791882    9.969069   10.363336
   4 Au   19.0000*   0   196.966   18.168662    6.700544   13.475746
   5 Au   19.0000*   0   196.966   17.942623    9.467404   17.759024
   6 Au   19.0000*   0   196.966   20.930438   14.066774   16.677030
   7 Au   19.0000*   0   196.966   13.945889   18.445033   15.904265
   8 Au   19.0000*   0   196.966   21.603749   14.144291   11.119229
   9 Au   19.0000*   0   196.966   18.253336   17.249381   13.364014
  10 Fe   26.0000    0    55.850   18.032721   11.768124   13.448626
* core charge reduced due to ECP

--------------------------------
INTERNAL COORDINATES (ANGSTROEM)
--------------------------------
 Au     0   0   0     0.000000000000     0.00000000     0.00000000
 Au     1   0   0     5.593825139851     0.00000000     0.00000000
 Au     2   1   0     2.906708444274    55.88315862     0.00000000
 Au     3   2   1     2.651182364601   110.41225120    32.91602023
 Au     1   2   3     2.781779807351    57.45427786   248.66232937
 Au     2   1   3     2.694420387193    53.15811386   138.32427277
 Au     2   1   3     2.810418090693    53.13288963   222.65045723
 Au     2   1   3     2.720887588891   102.54958643   321.80748405
 Au     1   2   3     2.707083056070    57.66598531    94.65126380
 Au     9   1   2     2.693398422926   121.91122424   329.05308424
 Fe     4   3   2     2.552074702289    61.17882884   324.24175537

---------------------------
INTERNAL COORDINATES (A.U.)
---------------------------
 Au     0   0   0     0.000000000000     0.00000000     0.00000000
 Au     1   0   0    10.570797555361     0.00000000     0.00000000
 Au     2   1   0     5.492882910834    55.88315862     0.00000000
 Au     3   2   1     5.010008600177   110.41225120    32.91602023
 Au     1   2   3     5.256802000766    57.45427786   248.66232937
 Au     2   1   3     5.091716621448    53.15811386   138.32427277
 Au     2   1   3     5.310920513228    53.13288963   222.65045723
 Au     2   1   3     5.141732384189   102.54958643   321.80748405
 Au     1   2   3     5.115645597751    57.66598531    94.65126380
 Au     9   1   2     5.089785388866   121.91122424   329.05308424
 Fe     4   3   2     4.822722260634    61.17882884   324.24175537

---------------------
BASIS SET INFORMATION
---------------------
There are 2 groups of distinct atoms

 Group   1 Type Au  : 8s7p6d1f contracted to 6s4p3d1f pattern {311111/4111/411/1}
 Group   2 Type Fe  : 17s11p7d1f contracted to 6s4p4d1f pattern {842111/6311/4111/1}

Atom   0Au   basis set group =>   1
Atom   1Au   basis set group =>   1
Atom   2Au   basis set group =>   1
Atom   3Au   basis set group =>   1
Atom   4Au   basis set group =>   1
Atom   5Au   basis set group =>   1
Atom   6Au   basis set group =>   1
Atom   7Au   basis set group =>   1
Atom   8Au   basis set group =>   1
Atom   9Au   basis set group =>   1
Atom  10Fe   basis set group =>   2
---------------------------------
AUXILIARY/J BASIS SET INFORMATION
---------------------------------
There are 2 groups of distinct atoms

 Group   1 Type Au  : 11s5p5d3f3g contracted to 8s5p5d2f3g pattern {41111111/11111/11111/21/111}
 Group   2 Type Fe  : 19s5p5d3f3g contracted to 8s5p5d2f3g pattern {121111111/11111/11111/21/111}

Atom   0Au   basis set group =>   1
Atom   1Au   basis set group =>   1
Atom   2Au   basis set group =>   1
Atom   3Au   basis set group =>   1
Atom   4Au   basis set group =>   1
Atom   5Au   basis set group =>   1
Atom   6Au   basis set group =>   1
Atom   7Au   basis set group =>   1
Atom   8Au   basis set group =>   1
Atom   9Au   basis set group =>   1
Atom  10Fe   basis set group =>   2
---------------------------------
AUXILIARY/C BASIS SET INFORMATION
---------------------------------
There are 2 groups of distinct atoms

 Group   1 Type Au  : 8s8p7d5f3g2h contracted to 8s8p7d5f3g2h pattern {11111111/11111111/1111111/11111/111/11}
 Group   2 Type Fe  : 11s9p8d6f5g2h contracted to 9s8p8d6f5g2h pattern {311111111/21111111/11111111/111111/11111/11}

Atom   0Au   basis set group =>   1
Atom   1Au   basis set group =>   1
Atom   2Au   basis set group =>   1
Atom   3Au   basis set group =>   1
Atom   4Au   basis set group =>   1
Atom   5Au   basis set group =>   1
Atom   6Au   basis set group =>   1
Atom   7Au   basis set group =>   1
Atom   8Au   basis set group =>   1
Atom   9Au   basis set group =>   1
Atom  10Fe   basis set group =>   2
-------------------------
ECP PARAMETER INFORMATION
-------------------------

 Group 1, Type Au ECP Def2-ECP (replacing 60 core electrons, lmax=3)

Atom   0Au   ECP group =>   1
Atom   1Au   ECP group =>   1
Atom   2Au   ECP group =>   1
Atom   3Au   ECP group =>   1
Atom   4Au   ECP group =>   1
Atom   5Au   ECP group =>   1
Atom   6Au   ECP group =>   1
Atom   7Au   ECP group =>   1
Atom   8Au   ECP group =>   1
Atom   9Au   ECP group =>   1



           ************************************************************
           *        Program running with 2 parallel MPI-processes     *
           *              working on a common directory               *
           ************************************************************
------------------------------------------------------------------------------
                           ORCA GTO INTEGRAL CALCULATION
                           -- RI-GTO INTEGRALS CHOSEN --
------------------------------------------------------------------------------
------------------------------------------------------------------------------
                   ___                                                        
                  /   \      - P O W E R E D   B Y -                         
                 /     \                                                     
                 |  |  |   _    _      __       _____    __    __             
                 |  |  |  | |  | |    /  \     |  _  \  |  |  /  |          
                  \  \/   | |  | |   /    \    | | | |  |  | /  /          
                 / \  \   | |__| |  /  /\  \   | |_| |  |  |/  /          
                |  |  |   |  __  | /  /__\  \  |    /   |      \           
                |  |  |   | |  | | |   __   |  |    \   |  |\   \          
                \     /   | |  | | |  |  |  |  | |\  \  |  | \   \       
                 \___/    |_|  |_| |__|  |__|  |_| \__\ |__|  \__/        
                                                                              
                      - O R C A' S   B I G   F R I E N D -                    
                                      &                                       
                       - I N T E G R A L  F E E D E R -                       
                                                                              
 v1 FN, 2020, v2 2021                                                         
------------------------------------------------------------------------------


Reading SHARK input file casscf.SHARKINP.tmp ... ok
----------------------
SHARK INTEGRAL PACKAGE
----------------------

Number of atoms                             ...     11
Number of basis functions                   ...    445
Number of shells                            ...    155
Maximum angular momentum                    ...      3
Integral batch strategy                     ... SHARK/LIBINT Hybrid
RI-J (if used) integral strategy            ... SPLIT-RIJ (Revised 2003 algorithm where possible)
Printlevel                                  ...      1
Contraction scheme used                     ... SEGMENTED contraction
Coulomb Range Separation                    ... NOT USED
Exchange Range Separation                   ... NOT USED
Finite Nucleus Model                        ... NOT USED
Auxiliary Coulomb fitting basis             ... AVAILABLE
   # of basis functions in Aux-J            ...    979
   # of shells in Aux-J                     ...    253
   Maximum angular momentum in Aux-J        ...      4
Auxiliary J/K fitting basis                 ... NOT available
Auxiliary Correlation fitting basis         ... AVAILABLE
   # of basis functions in Aux-C            ...   1692
   # of shells in Aux-C                     ...    368
   Maximum angular momentum in Aux-C        ...      5
Auxiliary 'external' fitting basis          ... NOT available
Integral threshold                          ...     1.000000e-10
Primitive cut-off                           ...     1.000000e-11
Primitive pair pre-selection threshold      ...     1.000000e-11

Calculating pre-screening integrals         ... done (  0.4 sec) Dimension = 155
Organizing shell pair data                  ... done (  0.4 sec)
Shell pair information
Total number of shell pairs                 ...     12090
Shell pairs after pre-screening             ...     10000
Total number of primitive shell pairs       ...     33105
Primitive shell pairs kept                  ...     20182
          la=0 lb=0:   1566 shell pairs
          la=1 lb=0:   2279 shell pairs
          la=1 lb=1:    859 shell pairs
          la=2 lb=0:   1984 shell pairs
          la=2 lb=1:   1391 shell pairs
          la=2 lb=2:    577 shell pairs
          la=3 lb=0:    527 shell pairs
          la=3 lb=1:    406 shell pairs
          la=3 lb=2:    352 shell pairs
          la=3 lb=3:     59 shell pairs

Calculating one electron integrals          ... done (  0.2 sec)
Calculating ECP integrals                   ... done (  9.9 sec)
Calculating RI/J V-Matrix + Cholesky decomp.... done (  0.1 sec)
Calculating RI/C V-Matrix + Cholesky decomp.... done (  1.0 sec)
Calculating Nuclear repulsion               ... done (  0.0 sec) ENN=   3230.874309384243 Eh

SHARK setup successfully completed in  12.8 seconds

Maximum memory used throughout the entire GTOINT-calculation: 52.0 MB


           ************************************************************
           *        Program running with 2 parallel MPI-processes     *
           *              working on a common directory               *
           ************************************************************
-------------------------------------------------------------------------------
                                 ORCA SCF
-------------------------------------------------------------------------------

------------
SCF SETTINGS
------------
Hamiltonian:
 Ab initio Hamiltonian  Method          .... Hartree-Fock(GTOs)
 RI-approximation to the Coulomb term is turned on
   Number of AuxJ basis functions       .... 979
   RIJ-COSX (HFX calculated with COS-X)).... on


General Settings:
 Integral files         IntName         .... casscf
 Hartree-Fock type      HFTyp           .... CASSCF
 Total Charge           Charge          ....    0
 Multiplicity           Mult            ....    5
 Number of Electrons    NEL             ....  216
 Basis Dimension        Dim             ....  445
 Nuclear Repulsion      ENuc            ....   3230.8743093842 Eh


Diagonalization of the overlap matrix:
Smallest eigenvalue                        ... 6.104e-04
Time for diagonalization                   ...    0.081 sec
Threshold for overlap eigenvalues          ... 1.000e-08
Number of eigenvalues below threshold      ... 0
Time for construction of square roots      ...    0.029 sec
Total time needed                          ...    0.110 sec

---------------------
INITIAL GUESS: MOREAD
---------------------
Guess MOs are being read from file: pbe.qro
Input Geometry matches current geometry (good)
Input basis set matches current basis set (good)
MOs were renormalized
Gram-Schmidt orthogonalization of all MOs with pivot on actives
                      ------------------
                      INITIAL GUESS DONE (   1.3 sec)
                      ------------------
--------------------
COSX GRID GENERATION
--------------------

GRIDX 1
-------
General Integration Accuracy     IntAcc      ... 3.816
Radial Grid Type                 RadialGrid  ... OptM3 with GC (2021)
Angular Grid (max. ang.)         AngularGrid ... 1 (Lebedev-50)
Angular grid pruning method      GridPruning ... 4 (adaptive)
Weight generation scheme         WeightScheme... Becke
Basis function cutoff            BFCut       ... 1.0000e-10
Integration weight cutoff        WCut        ... 1.0000e-14
Angular grids for H and He will be reduced by one unit
Partially contracted basis set               ... on
Rotationally invariant grid construction     ... off

Total number of grid points                  ...    12999
Total number of batches                      ...      208
Average number of points per batch           ...       62
Average number of grid points per atom       ...     1182
UseSFitting                                  ... on

GRIDX 2
-------
General Integration Accuracy     IntAcc      ... 4.020
Radial Grid Type                 RadialGrid  ... OptM3 with GC (2021)
Angular Grid (max. ang.)         AngularGrid ... 2 (Lebedev-110)
Angular grid pruning method      GridPruning ... 4 (adaptive)
Weight generation scheme         WeightScheme... Becke
Basis function cutoff            BFCut       ... 1.0000e-10
Integration weight cutoff        WCut        ... 1.0000e-14
Angular grids for H and He will be reduced by one unit
Partially contracted basis set               ... on
Rotationally invariant grid construction     ... off

Total number of grid points                  ...    39331
Total number of batches                      ...      620
Average number of points per batch           ...       63
Average number of grid points per atom       ...     3576
UseSFitting                                  ... on

GRIDX 3
-------
General Integration Accuracy     IntAcc      ... 4.338
Radial Grid Type                 RadialGrid  ... OptM3 with GC (2021)
Angular Grid (max. ang.)         AngularGrid ... 3 (Lebedev-194)
Angular grid pruning method      GridPruning ... 4 (adaptive)
Weight generation scheme         WeightScheme... Becke
Basis function cutoff            BFCut       ... 1.0000e-10
Integration weight cutoff        WCut        ... 1.0000e-14
Angular grids for H and He will be reduced by one unit
Partially contracted basis set               ... on
Rotationally invariant grid construction     ... off

Total number of grid points                  ...    72489
Total number of batches                      ...     1138
Average number of points per batch           ...       63
Average number of grid points per atom       ...     6590
UseSFitting                                  ... on

Time for X-Grid setup             =    3.410 sec



 ... the calculation is a CASSCF calculation -I'm leaving here GOOD LUCK!!!



           ************************************************************
           *        Program running with 2 parallel MPI-processes     *
           *              working on a common directory               *
           ************************************************************
-------------------------------------------------------------------------------
                              ORCA-CASSCF
-------------------------------------------------------------------------------

Setting up the integral package       ... done
Setting up the integral package (RI)  ... done
Building the CAS space                ... done (5 configurations for Mult=5)
Building the CAS space                ... done (35 configurations for Mult=3)

SYSTEM-SPECIFIC SETTINGS:
Number of active electrons          ...    6
Number of active orbitals           ...    5
Total number of electrons           ...  216
Total number of orbitals            ...  445
Total number aux. functions         ... 1692

Determined orbital ranges:
   Internal       0 -  104 ( 105 orbitals)
   Active       105 -  109 (   5 orbitals)
   External     110 -  444 ( 335 orbitals)
Number of rotation parameters      ...  37375

CI-STEP:
CI strategy                         ... General CI
Number of multiplicity blocks       ...    2
BLOCK  1 WEIGHT=   0.5000
  Multiplicity                      ...    5
  #(Configurations)                 ...    5
  #(CSFs)                           ...    5
  #(Roots)                          ...    5
    ROOT=0 WEIGHT=    0.100000
    ROOT=1 WEIGHT=    0.100000
    ROOT=2 WEIGHT=    0.100000
    ROOT=3 WEIGHT=    0.100000
    ROOT=4 WEIGHT=    0.100000

BLOCK  2 WEIGHT=   0.5000
  Multiplicity                      ...    3
  #(Configurations)                 ...   35
  #(CSFs)                           ...   45
  #(Roots)                          ...   45
    ROOT=0 WEIGHT=    0.011111
    ROOT=1 WEIGHT=    0.011111
    ROOT=2 WEIGHT=    0.011111
    ROOT=3 WEIGHT=    0.011111
    ROOT=4 WEIGHT=    0.011111
    ROOT=5 WEIGHT=    0.011111
    ROOT=6 WEIGHT=    0.011111
    ROOT=7 WEIGHT=    0.011111
    ROOT=8 WEIGHT=    0.011111
    ROOT=9 WEIGHT=    0.011111
    ROOT=10 WEIGHT=    0.011111
    ROOT=11 WEIGHT=    0.011111
    ROOT=12 WEIGHT=    0.011111
    ROOT=13 WEIGHT=    0.011111
    ROOT=14 WEIGHT=    0.011111
    ROOT=15 WEIGHT=    0.011111
    ROOT=16 WEIGHT=    0.011111
    ROOT=17 WEIGHT=    0.011111
    ROOT=18 WEIGHT=    0.011111
    ROOT=19 WEIGHT=    0.011111
    ROOT=20 WEIGHT=    0.011111
    ROOT=21 WEIGHT=    0.011111
    ROOT=22 WEIGHT=    0.011111
    ROOT=23 WEIGHT=    0.011111
    ROOT=24 WEIGHT=    0.011111
    ROOT=25 WEIGHT=    0.011111
    ROOT=26 WEIGHT=    0.011111
    ROOT=27 WEIGHT=    0.011111
    ROOT=28 WEIGHT=    0.011111
    ROOT=29 WEIGHT=    0.011111
    ROOT=30 WEIGHT=    0.011111
    ROOT=31 WEIGHT=    0.011111
    ROOT=32 WEIGHT=    0.011111
    ROOT=33 WEIGHT=    0.011111
    ROOT=34 WEIGHT=    0.011111
    ROOT=35 WEIGHT=    0.011111
    ROOT=36 WEIGHT=    0.011111
    ROOT=37 WEIGHT=    0.011111
    ROOT=38 WEIGHT=    0.011111
    ROOT=39 WEIGHT=    0.011111
    ROOT=40 WEIGHT=    0.011111
    ROOT=41 WEIGHT=    0.011111
    ROOT=42 WEIGHT=    0.011111
    ROOT=43 WEIGHT=    0.011111
    ROOT=44 WEIGHT=    0.011111

  PrintLevel                        ...    1
  N(GuessMat)                       ...       512
  MaxDim(CI)                        ...        10
  MaxIter(CI)                       ...        64
  Energy Tolerance CI               ...  1.00e-08
  Residual Tolerance CI             ...  1.00e-08
  Shift(CI)                         ...  1.00e-04

INTEGRAL-TRANSFORMATION-STEP:
  Algorithm                         ... RI-MO

ORBITAL-IMPROVEMENT-STEP:
  Algorithm                         ... SuperCI(PT)
  Default Parametrization           ... CAYLEY
  Act-Act rotations                 ... depends on algorithm used

  Note: SuperCI(PT) will ignore FreezeIE, FreezeAct and FreezeGrad. In general Default settings are encouraged.
        In conjunction with ShiftUp, ShiftDn or GradScaling the performance of SuperCI(PT) is less optimal.  

  MaxRot                            ... 2.00e-01 
  Max. no of vectors (DIIS)         ... 15
  DThresh (cut-off) metric          ... 1.00e-06
  Switch step at gradient           ...  3.00e-02 
  Switch step at iteration          ...        50   
  Switch step to                    ... SuperCI(PT)    

SCF-SETTINGS:
  Incremental                       ... off
  RIJCOSX approximation             ... on
  UseFinalGrid                      ... on
  RI-JK approximation               ... off
  AO integral handling              ... DIRECT
  Integral Neglect Thresh           ...  1.00e-10
  Primitive cutoff TCut             ...  1.00e-11
  Energy convergence tolerance      ...  1.00e-07
  Orbital gradient convergence      ...  1.00e-03
  Max. number of iterations         ...        75  


FINAL ORBITALS:
  Active   Orbitals                 ... natural 
  Internal Orbitals                 ... canonical 
  External Orbitals                 ... canonical 

------------------
CAS-SCF ITERATIONS
------------------


MACRO-ITERATION   1: 
   --- Inactive Energy E0 = -2600.38173828 Eh
CI-ITERATION   0: 
 -2610.071130640   0.000000000000 (    0.07)
 -2610.060319790   0.000000000000
 -2610.017618306   0.000000000000
 -2609.991663387   0.000000000000
 -2609.988415016   0.000000000000
   CI-PROBLEM SOLVED
   DENSITIES MADE
CI-ITERATION   0: 
 -2610.018618984   0.000000000000 (    0.00)
 -2610.009030428   0.000000000000
 -2609.995584305   0.000000000000
 -2609.994551238   0.000000000000
 -2609.992639350   0.000000000000
 -2609.990746381   0.000000000000
 -2609.988835250   0.000000000000
 -2609.986847433   0.000000000000
 -2609.983544991   0.000000000000
 -2609.982735414   0.000000000000
 -2609.979794003   0.000000000000
 -2609.975960124   0.000000000000
 -2609.975679332   0.000000000000
 -2609.972495896   0.000000000000
 -2609.970431813   0.000000000000
 -2609.967692939   0.000000000000
 -2609.965931018   0.000000000000
 -2609.961609958   0.000000000000
 -2609.960210134   0.000000000000
 -2609.953843304   0.000000000000
 -2609.950029862   0.000000000000
 -2609.946172645   0.000000000000
 -2609.942388133   0.000000000000
 -2609.941417761   0.000000000000
 -2609.940546567   0.000000000000
 -2609.936800670   0.000000000000
 -2609.935584850   0.000000000000
 -2609.930365660   0.000000000000
 -2609.925749320   0.000000000000
 -2609.923505921   0.000000000000
 -2609.919443667   0.000000000000
 -2609.910326773   0.000000000000
 -2609.909359579   0.000000000000
 -2609.898444689   0.000000000000
 -2609.892099073   0.000000000000
 -2609.890152561   0.000000000000
 -2609.887602330   0.000000000000
 -2609.887491475   0.000000000000
 -2609.844370506   0.000000000000
 -2609.833441271   0.000000000000
 -2609.832007459   0.000000000000
 -2609.824344857   0.000000000000
 -2609.813836173   0.000000000000
 -2609.790105597   0.000000000000
 -2609.785257930   0.000000000000
   CI-PROBLEM SOLVED
   DENSITIES MADE

                 <<<<<<<<<<<<<<<<<<INITIAL CI STATE CHECK>>>>>>>>>>>>>>>>>>

BLOCK  1 MULT= 5 NROOTS= 5 
ROOT   0:  E=   -2610.0711306398 Eh
      0.85518 [     4]: 21111
      0.12696 [     1]: 11121
      0.01778 [     3]: 12111
ROOT   1:  E=   -2610.0603197905 Eh  0.294 eV   2372.7 cm**-1
      0.92132 [     0]: 11112
      0.07859 [     2]: 11211
ROOT   2:  E=   -2610.0176183058 Eh  1.456 eV  11744.6 cm**-1
      0.74370 [     1]: 11121
      0.14476 [     4]: 21111
      0.11139 [     3]: 12111
ROOT   3:  E=   -2609.9916633867 Eh  2.162 eV  17441.0 cm**-1
      0.92115 [     2]: 11211
      0.07858 [     0]: 11112
ROOT   4:  E=   -2609.9884150163 Eh  2.251 eV  18154.0 cm**-1
      0.87059 [     3]: 12111
      0.12924 [     1]: 11121

BLOCK  2 MULT= 3 NROOTS=45 
ROOT   0:  E=   -2610.0186189835 Eh
      0.72613 [    28]: 21111
      0.12799 [    11]: 11121
      0.07364 [    31]: 21210
      0.01796 [    23]: 20121
      0.01108 [    18]: 12111
      0.00931 [     9]: 11022
      0.00838 [    14]: 11220
      0.00745 [    33]: 22101
      0.00682 [    25]: 21012
      0.00440 [    15]: 12012
      0.00329 [     7]: 10212
ROOT   1:  E=   -2610.0090304282 Eh  0.261 eV   2104.4 cm**-1
      0.67050 [    10]: 11112
      0.17726 [     0]: 01122
      0.04363 [    13]: 11211
      0.02173 [     3]: 02112
      0.01565 [    24]: 20211
      0.01451 [    22]: 20112
      0.01392 [    27]: 21102
      0.01313 [    30]: 21201
      0.00805 [     2]: 01221
      0.00506 [    26]: 21021
      0.00495 [    17]: 12102
      0.00329 [    32]: 22011
ROOT   2:  E=   -2609.9955843055 Eh  0.627 eV   5055.5 cm**-1
      0.42707 [    10]: 11112
      0.17689 [    24]: 20211
      0.09660 [    32]: 22011
      0.08066 [    27]: 21102
      0.04158 [    29]: 21120
      0.03577 [    22]: 20112
      0.03373 [     6]: 10122
      0.02889 [    13]: 11211
      0.02477 [    28]: 21111
      0.02192 [    17]: 12102
      0.00798 [     8]: 10221
      0.00689 [    16]: 12021
      0.00514 [     3]: 02112
      0.00318 [    19]: 12120
ROOT   3:  E=   -2609.9945512378 Eh  0.655 eV   5282.3 cm**-1
      0.75694 [    28]: 21111
      0.09672 [    11]: 11121
      0.03099 [     7]: 10212
      0.02153 [    33]: 22101
      0.01535 [    18]: 12111
      0.01354 [    25]: 21012
      0.01215 [    12]: 11202
      0.01112 [    10]: 11112
      0.00806 [     4]: 02121
      0.00537 [     1]: 01212
      0.00514 [    24]: 20211
      0.00419 [    31]: 21210
      0.00388 [    32]: 22011
      0.00288 [    27]: 21102
      0.00265 [    23]: 20121
ROOT   4:  E=   -2609.9926393499 Eh  0.707 eV   5701.9 cm**-1
      0.37248 [    23]: 20121
      0.18111 [    28]: 21111
      0.17098 [    33]: 22101
      0.15934 [    11]: 11121
      0.04466 [    18]: 12111
      0.04400 [     7]: 10212
      0.00911 [    31]: 21210
      0.00551 [     9]: 11022
      0.00341 [    25]: 21012
ROOT   5:  E=   -2609.9907463809 Eh  0.758 eV   6117.3 cm**-1
      0.22982 [     6]: 10122
      0.09558 [     8]: 10221
      0.08610 [    30]: 21201
      0.08151 [    27]: 21102
      0.07860 [    22]: 20112
      0.07662 [    10]: 11112
      0.07402 [    17]: 12102
      0.06705 [    26]: 21021
      0.05471 [    24]: 20211
      0.04318 [    13]: 11211
      0.03211 [     0]: 01122
      0.02793 [    16]: 12021
      0.02199 [    32]: 22011
      0.01510 [    29]: 21120
      0.00418 [    34]: 22110
      0.00361 [     3]: 02112
ROOT   6:  E=   -2609.9888352497 Eh  0.810 eV   6536.8 cm**-1
      0.25871 [    27]: 21102
      0.21610 [    10]: 11112
      0.12178 [    30]: 21201
      0.09054 [     6]: 10122
      0.08134 [    32]: 22011
      0.05301 [    29]: 21120
      0.05106 [     8]: 10221
      0.03675 [    26]: 21021
      0.03620 [    13]: 11211
      0.03313 [    17]: 12102
      0.01137 [    24]: 20211
      0.00369 [     0]: 01122
ROOT   7:  E=   -2609.9868474331 Eh  0.865 eV   6973.0 cm**-1
      0.31581 [    26]: 21021
      0.21832 [    29]: 21120
      0.11086 [    10]: 11112
      0.07577 [    17]: 12102
      0.05696 [     6]: 10122
      0.03983 [    32]: 22011
      0.03580 [    13]: 11211
      0.02671 [    30]: 21201
      0.02243 [    27]: 21102
      0.01527 [     0]: 01122
      0.01426 [    22]: 20112
      0.01269 [     8]: 10221
      0.01117 [    16]: 12021
      0.01037 [    24]: 20211
      0.01028 [    34]: 22110
      0.00680 [     3]: 02112
      0.00549 [    20]: 12201
      0.00517 [    19]: 12120
      0.00409 [     2]: 01221
ROOT   8:  E=   -2609.9835449909 Eh  0.954 eV   7697.9 cm**-1
      0.50827 [    28]: 21111
      0.15069 [    11]: 11121
      0.12629 [    23]: 20121
      0.10169 [    33]: 22101
      0.04775 [    31]: 21210
      0.04437 [    18]: 12111
      0.00607 [    25]: 21012
      0.00535 [     9]: 11022
      0.00325 [     4]: 02121
ROOT   9:  E=   -2609.9827354144 Eh  0.976 eV   7875.5 cm**-1
      0.36126 [     7]: 10212
      0.22849 [    12]: 11202
      0.09808 [    28]: 21111
      0.09765 [    11]: 11121
      0.07306 [    15]: 12012
      0.05106 [     1]: 01212
      0.02871 [    18]: 12111
      0.02098 [    33]: 22101
      0.01862 [     9]: 11022
      0.00824 [    31]: 21210
      0.00501 [    14]: 11220
      0.00442 [    23]: 20121
ROOT  10:  E=   -2609.9797940033 Eh  1.056 eV   8521.1 cm**-1
      0.36010 [    10]: 11112
      0.16186 [    24]: 20211
      0.15967 [    27]: 21102
      0.12559 [    32]: 22011
      0.04300 [     6]: 10122
      0.03839 [    13]: 11211
      0.03416 [    29]: 21120
      0.02323 [     8]: 10221
      0.02313 [    34]: 22110
      0.00796 [    26]: 21021
      0.00653 [    30]: 21201
      0.00554 [    17]: 12102
      0.00349 [     2]: 01221
ROOT  11:  E=   -2609.9759601240 Eh  1.161 eV   9362.5 cm**-1
      0.23932 [     7]: 10212
      0.18184 [    11]: 11121
      0.15034 [    12]: 11202
      0.13547 [    15]: 12012
      0.13169 [     9]: 11022
      0.09155 [    18]: 12111
      0.04375 [    28]: 21111
      0.00856 [    31]: 21210
      0.00671 [    14]: 11220
      0.00299 [     1]: 01212
ROOT  12:  E=   -2609.9756793317 Eh  1.168 eV   9424.2 cm**-1
      0.30145 [    10]: 11112
      0.23664 [    32]: 22011
      0.12358 [     6]: 10122
      0.08846 [     8]: 10221
      0.07524 [    22]: 20112
      0.05412 [    30]: 21201
      0.02947 [    16]: 12021
      0.02549 [    17]: 12102
      0.01517 [    13]: 11211
      0.01172 [    26]: 21021
      0.00973 [     0]: 01122
      0.00915 [    34]: 22110
      0.00781 [     3]: 02112
      0.00357 [    27]: 21102
      0.00284 [    29]: 21120
      0.00273 [    24]: 20211
ROOT  13:  E=   -2609.9724958955 Eh  1.255 eV  10122.8 cm**-1
      0.38768 [    11]: 11121
      0.18107 [    33]: 22101
      0.15566 [    28]: 21111
      0.09898 [     1]: 01212
      0.06043 [     9]: 11022
      0.03992 [    18]: 12111
      0.02922 [    15]: 12012
      0.02362 [    12]: 11202
      0.01028 [     7]: 10212
      0.00539 [    31]: 21210
      0.00325 [    25]: 21012
ROOT  14:  E=   -2609.9704318129 Eh  1.311 eV  10575.9 cm**-1
      0.26018 [    22]: 20112
      0.19701 [    17]: 12102
      0.12046 [    10]: 11112
      0.09575 [    29]: 21120
      0.08242 [    24]: 20211
      0.07601 [     3]: 02112
      0.04991 [    13]: 11211
      0.03999 [    32]: 22011
      0.02891 [    34]: 22110
      0.01422 [    19]: 12120
      0.01085 [    27]: 21102
      0.00624 [    26]: 21021
      0.00360 [     5]: 02211
      0.00359 [     8]: 10221
      0.00308 [     0]: 01122
      0.00258 [    16]: 12021
ROOT  15:  E=   -2609.9676929389 Eh  1.386 eV  11177.0 cm**-1
      0.39150 [    11]: 11121
      0.15137 [    33]: 22101
      0.08013 [     1]: 01212
      0.06742 [    18]: 12111
      0.06608 [    28]: 21111
      0.05583 [    12]: 11202
      0.05299 [    25]: 21012
      0.04661 [    23]: 20121
      0.04447 [     9]: 11022
      0.01314 [    14]: 11220
      0.01206 [    31]: 21210
      0.00494 [     7]: 10212
      0.00440 [    15]: 12012
      0.00434 [     4]: 02121
      0.00356 [    21]: 12210
ROOT  16:  E=   -2609.9659310179 Eh  1.434 eV  11563.7 cm**-1
      0.31618 [     0]: 01122
      0.23792 [    29]: 21120
      0.10032 [    26]: 21021
      0.06276 [    10]: 11112
      0.04740 [    13]: 11211
      0.03818 [     3]: 02112
      0.03602 [    16]: 12021
      0.02593 [    30]: 21201
      0.02286 [    27]: 21102
      0.02233 [     8]: 10221
      0.02226 [    17]: 12102
      0.01826 [    24]: 20211
      0.01458 [    32]: 22011
      0.01163 [    19]: 12120
      0.00919 [     2]: 01221
      0.00707 [     6]: 10122
ROOT  17:  E=   -2609.9616099578 Eh  1.551 eV  12512.0 cm**-1
      0.26017 [    25]: 21012
      0.24827 [    11]: 11121
      0.12055 [     9]: 11022
      0.08047 [    15]: 12012
      0.05406 [     7]: 10212
      0.05306 [    23]: 20121
      0.04901 [    28]: 21111
      0.04583 [    18]: 12111
      0.04061 [    14]: 11220
      0.02053 [     1]: 01212
      0.00921 [    33]: 22101
      0.00793 [    21]: 12210
      0.00709 [    12]: 11202
ROOT  18:  E=   -2609.9602101344 Eh  1.589 eV  12819.3 cm**-1
      0.36536 [    13]: 11211
      0.12246 [    29]: 21120
      0.11258 [    10]: 11112
      0.09302 [    27]: 21102
      0.06790 [    17]: 12102
      0.06584 [     0]: 01122
      0.06102 [     3]: 02112
      0.04262 [    26]: 21021
      0.01769 [     8]: 10221
      0.01026 [    16]: 12021
      0.00880 [    22]: 20112
      0.00876 [    19]: 12120
      0.00587 [     6]: 10122
      0.00401 [    32]: 22011
      0.00386 [     2]: 01221
      0.00373 [    20]: 12201
ROOT  19:  E=   -2609.9538433041 Eh  1.763 eV  14216.6 cm**-1
      0.23697 [    11]: 11121
      0.21504 [    25]: 21012
      0.13124 [    33]: 22101
      0.07677 [    31]: 21210
      0.06886 [    18]: 12111
      0.06340 [     1]: 01212
      0.06303 [    12]: 11202
      0.04269 [    23]: 20121
      0.03657 [    28]: 21111
      0.03577 [     9]: 11022
      0.01618 [     4]: 02121
      0.00970 [     7]: 10212
ROOT  20:  E=   -2609.9500298615 Eh  1.866 eV  15053.6 cm**-1
      0.48924 [    34]: 22110
      0.12990 [    13]: 11211
      0.09076 [    32]: 22011
      0.08706 [     8]: 10221
      0.05016 [    19]: 12120
      0.04774 [     3]: 02112
      0.03620 [    22]: 20112
      0.02056 [    10]: 11112
      0.01076 [    26]: 21021
      0.00739 [    27]: 21102
      0.00699 [    24]: 20211
      0.00370 [    29]: 21120
      0.00354 [    16]: 12021
      0.00307 [    17]: 12102
      0.00288 [     0]: 01122
ROOT  21:  E=   -2609.9461726452 Eh  1.971 eV  15900.1 cm**-1
      0.39188 [     8]: 10221
      0.09851 [    17]: 12102
      0.09057 [    16]: 12021
      0.08388 [    13]: 11211
      0.08027 [    10]: 11112
      0.06930 [    34]: 22110
      0.05888 [     6]: 10122
      0.03447 [    22]: 20112
      0.02427 [     2]: 01221
      0.01589 [    32]: 22011
      0.01558 [    24]: 20211
      0.01164 [     0]: 01122
      0.00810 [     3]: 02112
      0.00549 [    27]: 21102
      0.00352 [    20]: 12201
      0.00296 [     5]: 02211
ROOT  22:  E=   -2609.9423881326 Eh  2.074 eV  16730.7 cm**-1
      0.40349 [    18]: 12111
      0.12166 [    11]: 11121
      0.11474 [     4]: 02121
      0.08625 [     1]: 01212
      0.08545 [    33]: 22101
      0.07811 [    28]: 21111
      0.03683 [    23]: 20121
      0.02408 [    12]: 11202
      0.01905 [    31]: 21210
      0.01444 [    15]: 12012
      0.01054 [    25]: 21012
ROOT  23:  E=   -2609.9414177610 Eh  2.101 eV  16943.7 cm**-1
      0.26255 [    13]: 11211
      0.14816 [    30]: 21201
      0.11203 [    24]: 20211
      0.08492 [    10]: 11112
      0.08256 [    32]: 22011
      0.07696 [     2]: 01221
      0.07187 [    17]: 12102
      0.06485 [     3]: 02112
      0.02562 [    29]: 21120
      0.01599 [     6]: 10122
      0.01235 [    16]: 12021
      0.01112 [     5]: 02211
      0.00814 [    26]: 21021
      0.00719 [    20]: 12201
      0.00535 [    22]: 20112
      0.00305 [    34]: 22110
ROOT  24:  E=   -2609.9405465670 Eh  2.124 eV  17134.9 cm**-1
      0.33525 [     1]: 01212
      0.18450 [    15]: 12012
      0.15869 [    12]: 11202
      0.07203 [    18]: 12111
      0.06574 [    31]: 21210
      0.04918 [    11]: 11121
      0.04189 [    28]: 21111
      0.03208 [    33]: 22101
      0.01103 [     7]: 10212
      0.01044 [    25]: 21012
      0.00791 [    21]: 12210
      0.00726 [     9]: 11022
      0.00722 [     4]: 02121
      0.00541 [    23]: 20121
      0.00461 [    14]: 11220
ROOT  25:  E=   -2609.9368006699 Eh  2.226 eV  17957.0 cm**-1
      0.40787 [    18]: 12111
      0.13236 [    15]: 12012
      0.10709 [    31]: 21210
      0.08737 [     1]: 01212
      0.08640 [    11]: 11121
      0.05299 [    25]: 21012
      0.05231 [    14]: 11220
      0.03855 [    28]: 21111
      0.00800 [    21]: 12210
      0.00672 [     7]: 10212
      0.00485 [    13]: 11211
      0.00352 [    23]: 20121
      0.00257 [    12]: 11202
ROOT  26:  E=   -2609.9355848503 Eh  2.259 eV  18223.9 cm**-1
      0.46700 [    13]: 11211
      0.08702 [    30]: 21201
      0.08244 [    16]: 12021
      0.07320 [    34]: 22110
      0.06192 [     3]: 02112
      0.04957 [    17]: 12102
      0.04870 [    20]: 12201
      0.04425 [    26]: 21021
      0.01376 [     2]: 01221
      0.01362 [    27]: 21102
      0.01058 [    10]: 11112
      0.01036 [     8]: 10221
      0.00827 [    19]: 12120
      0.00819 [     0]: 01122
      0.00499 [    32]: 22011
      0.00302 [    18]: 12111
      0.00274 [     5]: 02211
      0.00264 [     6]: 10122
ROOT  27:  E=   -2609.9303656602 Eh  2.401 eV  19369.4 cm**-1
      0.38274 [    18]: 12111
      0.25205 [    11]: 11121
      0.22441 [    23]: 20121
      0.03060 [    15]: 12012
      0.02749 [    28]: 21111
      0.01851 [     9]: 11022
      0.01424 [    33]: 22101
      0.01394 [     7]: 10212
      0.01040 [    25]: 21012
      0.00780 [    14]: 11220
      0.00594 [    12]: 11202
      0.00489 [    31]: 21210
ROOT  28:  E=   -2609.9257493201 Eh  2.527 eV  20382.5 cm**-1
      0.35816 [    13]: 11211
      0.17417 [    30]: 21201
      0.09563 [    16]: 12021
      0.07594 [    22]: 20112
      0.05630 [    24]: 20211
      0.05078 [    20]: 12201
      0.04604 [     3]: 02112
      0.02894 [     0]: 01122
      0.02681 [    10]: 11112
      0.02091 [    27]: 21102
      0.02063 [     2]: 01221
      0.01475 [     6]: 10122
      0.01240 [    32]: 22011
      0.00989 [    34]: 22110
      0.00388 [    19]: 12120
      0.00283 [     8]: 10221
ROOT  29:  E=   -2609.9235059212 Eh  2.588 eV  20874.9 cm**-1
      0.31451 [    13]: 11211
      0.13903 [    26]: 21021
      0.12726 [    34]: 22110
      0.09352 [     6]: 10122
      0.07501 [     0]: 01122
      0.05548 [    10]: 11112
      0.04203 [    17]: 12102
      0.03242 [     8]: 10221
      0.02974 [    30]: 21201
      0.02405 [    24]: 20211
      0.02238 [    19]: 12120
      0.01598 [    32]: 22011
      0.01213 [    29]: 21120
      0.00424 [    16]: 12021
      0.00392 [    22]: 20112
      0.00358 [     2]: 01221
ROOT  30:  E=   -2609.9194436670 Eh  2.699 eV  21766.5 cm**-1
      0.39554 [    18]: 12111
      0.16568 [     9]: 11022
      0.09555 [    12]: 11202
      0.09155 [    25]: 21012
      0.08542 [    31]: 21210
      0.07220 [     7]: 10212
      0.03240 [    14]: 11220
      0.02588 [    28]: 21111
      0.01421 [     1]: 01212
      0.00841 [    15]: 12012
      0.00710 [    33]: 22101
ROOT  31:  E=   -2609.9103267733 Eh  2.947 eV  23767.4 cm**-1
      0.38049 [    13]: 11211
      0.09118 [    24]: 20211
      0.08799 [    27]: 21102
      0.08419 [     3]: 02112
      0.07088 [    32]: 22011
      0.05737 [    30]: 21201
      0.05314 [     2]: 01221
      0.04884 [    29]: 21120
      0.03986 [    10]: 11112
      0.02825 [    34]: 22110
      0.01523 [     8]: 10221
      0.01512 [     0]: 01122
      0.00732 [    20]: 12201
      0.00364 [    16]: 12021
      0.00331 [    18]: 12111
      0.00301 [    19]: 12120
ROOT  32:  E=   -2609.9093595787 Eh  2.973 eV  23979.7 cm**-1
      0.45220 [    18]: 12111
      0.16762 [    11]: 11121
      0.13058 [    15]: 12012
      0.06415 [     7]: 10212
      0.04774 [     4]: 02121
      0.02883 [    28]: 21111
      0.02562 [    12]: 11202
      0.02249 [     9]: 11022
      0.01636 [    21]: 12210
      0.01141 [    31]: 21210
      0.00942 [     1]: 01212
      0.00874 [    33]: 22101
      0.00762 [    23]: 20121
ROOT  33:  E=   -2609.8984446891 Eh  3.270 eV  26375.2 cm**-1
      0.16003 [     2]: 01221
      0.13823 [    17]: 12102
      0.11526 [    10]: 11112
      0.09116 [     6]: 10122
      0.08984 [    27]: 21102
      0.08035 [    22]: 20112
      0.07388 [    13]: 11211
      0.05186 [     0]: 01122
      0.04654 [     3]: 02112
      0.04460 [    24]: 20211
      0.03306 [    16]: 12021
      0.02264 [    29]: 21120
      0.02228 [    19]: 12120
      0.01077 [    30]: 21201
      0.00587 [    26]: 21021
      0.00438 [    34]: 22110
      0.00421 [     5]: 02211
      0.00358 [     8]: 10221
ROOT  34:  E=   -2609.8920990726 Eh  3.443 eV  27767.9 cm**-1
      0.23515 [    31]: 21210
      0.22198 [    25]: 21012
      0.17924 [    14]: 11220
      0.09246 [    18]: 12111
      0.07393 [     1]: 01212
      0.06535 [     9]: 11022
      0.06113 [    28]: 21111
      0.02727 [    33]: 22101
      0.01864 [    11]: 11121
      0.01368 [    15]: 12012
      0.00490 [    23]: 20121
      0.00264 [    21]: 12210
ROOT  35:  E=   -2609.8901525610 Eh  3.496 eV  28195.1 cm**-1
      0.21280 [    20]: 12201
      0.15671 [     3]: 02112
      0.14765 [    22]: 20112
      0.12287 [    16]: 12021
      0.07565 [     6]: 10122
      0.04709 [     2]: 01221
      0.03949 [    26]: 21021
      0.03872 [    24]: 20211
      0.03245 [     8]: 10221
      0.03203 [    13]: 11211
      0.02953 [     5]: 02211
      0.01506 [    30]: 21201
      0.01313 [    10]: 11112
      0.01088 [    19]: 12120
      0.01065 [    32]: 22011
      0.01015 [    34]: 22110
ROOT  36:  E=   -2609.8876023304 Eh  3.565 eV  28754.8 cm**-1
      0.21221 [    18]: 12111
      0.17994 [     9]: 11022
      0.13791 [    31]: 21210
      0.11941 [    15]: 12012
      0.10088 [    12]: 11202
      0.05002 [     7]: 10212
      0.04810 [    11]: 11121
      0.04735 [     1]: 01212
      0.02056 [    28]: 21111
      0.01719 [    25]: 21012
      0.01484 [    23]: 20121
      0.00731 [     3]: 02112
      0.00718 [    14]: 11220
      0.00518 [    16]: 12021
      0.00407 [    21]: 12210
      0.00395 [    20]: 12201
      0.00354 [    22]: 20112
      0.00346 [    34]: 22110
      0.00324 [    26]: 21021
      0.00309 [     0]: 01122
ROOT  37:  E=   -2609.8874914754 Eh  3.568 eV  28779.2 cm**-1
      0.23151 [     3]: 02112
      0.10862 [    16]: 12021
      0.10852 [    22]: 20112
      0.09648 [     0]: 01122
      0.08988 [    26]: 21021
      0.06993 [    34]: 22110
      0.06698 [    20]: 12201
      0.04685 [    30]: 21201
      0.03441 [    13]: 11211
      0.03429 [    17]: 12102
      0.02683 [    24]: 20211
      0.02077 [    10]: 11112
      0.00890 [    19]: 12120
      0.00821 [    18]: 12111
      0.00624 [    29]: 21120
      0.00593 [     9]: 11022
      0.00585 [    15]: 12012
      0.00580 [    31]: 21210
      0.00548 [     6]: 10122
      0.00370 [    27]: 21102
      0.00335 [    12]: 11202
      0.00326 [     1]: 01212
      0.00251 [     7]: 10212
ROOT  38:  E=   -2609.8443705058 Eh  4.742 eV  38243.1 cm**-1
      0.49998 [     2]: 01221
      0.09906 [    13]: 11211
      0.07539 [     0]: 01122
      0.07412 [    30]: 21201
      0.05380 [    19]: 12120
      0.04474 [    16]: 12021
      0.03751 [    26]: 21021
      0.03541 [    10]: 11112
      0.03502 [     5]: 02211
      0.01689 [    27]: 21102
      0.01603 [     3]: 02112
      0.00590 [    29]: 21120
      0.00281 [    20]: 12201
ROOT  39:  E=   -2609.8334412709 Eh  5.039 eV  40641.8 cm**-1
      0.58787 [    14]: 11220
      0.08796 [     9]: 11022
      0.08278 [    11]: 11121
      0.07829 [     4]: 02121
      0.07403 [    31]: 21210
      0.02971 [    12]: 11202
      0.02195 [    28]: 21111
      0.01745 [    25]: 21012
      0.01043 [    18]: 12111
      0.00386 [     1]: 01212
      0.00269 [    15]: 12012
ROOT  40:  E=   -2609.8320074593 Eh  5.078 eV  40956.5 cm**-1
      0.51362 [    20]: 12201
      0.25760 [    16]: 12021
      0.08586 [     8]: 10221
      0.03719 [     5]: 02211
      0.01684 [    24]: 20211
      0.01622 [    26]: 21021
      0.01534 [    32]: 22011
      0.01136 [    10]: 11112
      0.01044 [     6]: 10122
      0.00887 [     2]: 01221
      0.00883 [    30]: 21201
      0.00740 [    13]: 11211
      0.00313 [    19]: 12120
      0.00252 [     0]: 01122
ROOT  41:  E=   -2609.8243448570 Eh  5.286 eV  42638.2 cm**-1
      0.72975 [    19]: 12120
      0.06236 [     5]: 02211
      0.04307 [    29]: 21120
      0.03168 [     6]: 10122
      0.02686 [    13]: 11211
      0.02456 [    34]: 22110
      0.02033 [    17]: 12102
      0.01224 [     2]: 01221
      0.00924 [     8]: 10221
      0.00834 [    24]: 20211
      0.00832 [    10]: 11112
      0.00791 [    16]: 12021
      0.00509 [    22]: 20112
      0.00499 [    26]: 21021
ROOT  42:  E=   -2609.8138361726 Eh  5.572 eV  44944.6 cm**-1
      0.68018 [     4]: 02121
      0.07802 [    11]: 11121
      0.07264 [    18]: 12111
      0.05008 [    14]: 11220
      0.03333 [    21]: 12210
      0.02975 [    23]: 20121
      0.02472 [    33]: 22101
      0.00677 [     1]: 01212
      0.00629 [     9]: 11022
      0.00548 [    12]: 11202
      0.00529 [    31]: 21210
      0.00374 [    28]: 21111
ROOT  43:  E=   -2609.7901055972 Eh  6.218 eV  50152.9 cm**-1
      0.79978 [     5]: 02211
      0.06036 [    20]: 12201
      0.04386 [     2]: 01221
      0.03710 [    19]: 12120
      0.01353 [    24]: 20211
      0.01060 [    13]: 11211
      0.00877 [    32]: 22011
      0.00623 [     3]: 02112
      0.00608 [    30]: 21201
      0.00513 [    17]: 12102
ROOT  44:  E=   -2609.7852579301 Eh  6.350 eV  51216.8 cm**-1
      0.90662 [    21]: 12210
      0.03058 [     4]: 02121
      0.02131 [    18]: 12111
      0.02117 [    15]: 12012
      0.00942 [     7]: 10212
      0.00316 [    11]: 11121

                 <<<<<<<<<<<<<<<<<<INITIAL CI STATE CHECK>>>>>>>>>>>>>>>>>>

   E(CAS)= -2609.978666132 Eh DE=    0.000000e+00
   --- Energy gap subspaces: Ext-Act = 0.116   Act-Int = 0.139
   N(occ)=  1.20000 1.20000 1.20000 1.20000 1.20000
   ||g|| =     2.358004e+00 Max(G)=   -5.067634e-01 Rot=382,1
   --- Orbital Update [SuperCI(PT)]
   --- Canonicalize Internal Space
   --- Canonicalize External Space
   --- SX_PT (Skipped TA=0 IT=0): ||X|| =      0.627567936 Max(X)(109,103) =     -0.247159282 
   --- SFit(Active Orbitals)

MACRO-ITERATION   2: 
   --- Inactive Energy E0 = -2596.29266434 Eh
CI-ITERATION   0: 
 -2610.325373343   0.000000000000 (    0.00)
 -2610.316257415   0.000000000000
 -2610.308033927   0.000000000000
 -2610.272064535   0.000000000000
 -2610.247830317   0.000000000000
   CI-PROBLEM SOLVED
   DENSITIES MADE
CI-ITERATION   0: 
 -2610.310188967   0.000000000000 (    0.00)
 -2610.300552352   0.000000000000
 -2610.287776219   0.000000000000
 -2610.283279665   0.000000000000
 -2610.272513848   0.000000000000
 -2610.271593689   0.000000000000
 -2610.266064333   0.000000000000
 -2610.260902710   0.000000000000
 -2610.247230719   0.000000000000
 -2610.245517911   0.000000000000
 -2610.244026709   0.000000000000
 -2610.242707352   0.000000000000
 -2610.240387646   0.000000000000
 -2610.231763972   0.000000000000
 -2610.230758745   0.000000000000
 -2610.227114934   0.000000000000
 -2610.220834293   0.000000000000
 -2610.220633849   0.000000000000
 -2610.218729754   0.000000000000
 -2610.213633837   0.000000000000
 -2610.206081253   0.000000000000
 -2610.193209831   0.000000000000
 -2610.187464001   0.000000000000
 -2610.186345239   0.000000000000
 -2610.180971605   0.000000000000
 -2610.179112192   0.000000000000
 -2610.176076171   0.000000000000
 -2610.173215228   0.000000000000
 -2610.170203518   0.000000000000
 -2610.165846018   0.000000000000
 -2610.151768520   0.000000000000
 -2610.149803362   0.000000000000
 -2610.149394166   0.000000000000
 -2610.145020358   0.000000000000
 -2610.141838324   0.000000000000
 -2610.103130437   0.000000000000
 -2610.097489356   0.000000000000
 -2610.095334907   0.000000000000
 -2610.087871989   0.000000000000
 -2610.083403872   0.000000000000
 -2610.063784884   0.000000000000
 -2610.057399380   0.000000000000
 -2610.048168258   0.000000000000
 -2610.024453075   0.000000000000
 -2610.020191914   0.000000000000
   CI-PROBLEM SOLVED
   DENSITIES MADE
   E(CAS)= -2610.238886947 Eh DE=   -2.602208e-01
   --- Energy gap subspaces: Ext-Act = 0.361   Act-Int = -0.222
   N(occ)=  1.20000 1.20000 1.20000 1.20000 1.20000
   ||g|| =     1.813437e+00 Max(G)=    4.536392e-01 Rot=110,105
   --- Orbital Update [SuperCI(PT)]
   --- Canonicalize Internal Space
   --- Canonicalize External Space
   --- SX_PT (Skipped TA=0 IT=0): ||X|| =      0.669478193 Max(X)(110,105) =     -0.331308005 
   --- SFit(Active Orbitals)

MACRO-ITERATION   3: 
   --- Inactive Energy E0 = -2598.45318273 Eh
CI-ITERATION   0: 
 -2610.452651866   0.000000000000 (    0.00)
 -2610.432208192   0.000000000000
 -2610.403223967   0.000000000000
 -2610.392350645   0.000000000000
 -2610.383890690   0.000000000000
   CI-PROBLEM SOLVED
   DENSITIES MADE
CI-ITERATION   0: 
 -2610.377154606   0.000000000000 (    0.00)
 -2610.370913664   0.000000000000
 -2610.365840612   0.000000000000
 -2610.365401501   0.000000000000
 -2610.363685272   0.000000000000
 -2610.358133158   0.000000000000
 -2610.355141551   0.000000000000
 -2610.351866562   0.000000000000
 -2610.347242713   0.000000000000
 -2610.343533715   0.000000000000
 -2610.341246947   0.000000000000
 -2610.339980747   0.000000000000
 -2610.338549541   0.000000000000
 -2610.336934953   0.000000000000
 -2610.333648086   0.000000000000
 -2610.328921093   0.000000000000
 -2610.328122475   0.000000000000
 -2610.326132956   0.000000000000
 -2610.320640034   0.000000000000
 -2610.319035723   0.000000000000
 -2610.318259050   0.000000000000
 -2610.312176279   0.000000000000
 -2610.311780075   0.000000000000
 -2610.308952130   0.000000000000
 -2610.305345402   0.000000000000
 -2610.300907873   0.000000000000
 -2610.298413684   0.000000000000
 -2610.294567799   0.000000000000
 -2610.290205054   0.000000000000
 -2610.286284252   0.000000000000
 -2610.281969357   0.000000000000
 -2610.280251889   0.000000000000
 -2610.277374882   0.000000000000
 -2610.271762629   0.000000000000
 -2610.260069285   0.000000000000
 -2610.234141323   0.000000000000
 -2610.226584881   0.000000000000
 -2610.214732731   0.000000000000
 -2610.206399103   0.000000000000
 -2610.204313300   0.000000000000
 -2610.197601446   0.000000000000
 -2610.195966389   0.000000000000
 -2610.184678562   0.000000000000
 -2610.181636049   0.000000000000
 -2610.171948964   0.000000000000
   CI-PROBLEM SOLVED
   DENSITIES MADE
   E(CAS)= -2610.354526406 Eh DE=   -1.156395e-01
   --- Energy gap subspaces: Ext-Act = 0.104   Act-Int = 0.142
   N(occ)=  1.20000 1.20000 1.20000 1.20000 1.20000
   ||g|| =     8.702048e-01 Max(G)=   -1.722080e-01 Rot=382,15
   --- Orbital Update [SuperCI(PT)]
   --- Canonicalize Internal Space
   --- Canonicalize External Space
   --- SX_PT (Skipped TA=0 IT=0): ||X|| =      0.387504520 Max(X)(109,103) =      0.245443880 
   --- SFit(Active Orbitals)

MACRO-ITERATION   4: 
   --- Inactive Energy E0 = -2596.70586733 Eh
CI-ITERATION   0: 
 -2610.499496199   0.000000000000 (    0.12)
 -2610.495464501   0.000000000000
 -2610.484479514   0.000000000000
 -2610.480581524   0.000000000000
 -2610.474092155   0.000000000000
   CI-PROBLEM SOLVED
   DENSITIES MADE
CI-ITERATION   0: 
 -2610.415027048   0.000000000000 (    0.00)
 -2610.411640614   0.000000000000
 -2610.410631181   0.000000000000
 -2610.409966907   0.000000000000
 -2610.409691568   0.000000000000
 -2610.407647036   0.000000000000
 -2610.405746848   0.000000000000
 -2610.401309662   0.000000000000
 -2610.400434586   0.000000000000
 -2610.400292652   0.000000000000
 -2610.399351773   0.000000000000
 -2610.397972926   0.000000000000
 -2610.397146944   0.000000000000
 -2610.394627075   0.000000000000
 -2610.393030734   0.000000000000
 -2610.391188254   0.000000000000
 -2610.390292234   0.000000000000
 -2610.389283288   0.000000000000
 -2610.386479614   0.000000000000
 -2610.386454826   0.000000000000
 -2610.385798325   0.000000000000
 -2610.385446802   0.000000000000
 -2610.384540857   0.000000000000
 -2610.383058175   0.000000000000
 -2610.379836853   0.000000000000
 -2610.378902790   0.000000000000
 -2610.377527713   0.000000000000
 -2610.376415797   0.000000000000
 -2610.376142799   0.000000000000
 -2610.374619854   0.000000000000
 -2610.353231974   0.000000000000
 -2610.351896616   0.000000000000
 -2610.349749572   0.000000000000
 -2610.349632397   0.000000000000
 -2610.346956596   0.000000000000
 -2610.277168168   0.000000000000
 -2610.273693042   0.000000000000
 -2610.272056714   0.000000000000
 -2610.263813932   0.000000000000
 -2610.261526062   0.000000000000
 -2610.259881573   0.000000000000
 -2610.259429934   0.000000000000
 -2610.257461895   0.000000000000
 -2610.256578476   0.000000000000
 -2610.247729250   0.000000000000
   CI-PROBLEM SOLVED
   DENSITIES MADE
   E(CAS)= -2610.423203744 Eh DE=   -6.867734e-02
   --- Energy gap subspaces: Ext-Act = 0.178   Act-Int = 0.057
   N(occ)=  1.20000 1.20000 1.20000 1.20000 1.20000
   ||g|| =     4.125006e-01 Max(G)=    1.043518e-01 Rot=109,104
   --- Orbital Update [SuperCI(PT)]
   --- Canonicalize Internal Space
   --- Canonicalize External Space
   --- SX_PT (Skipped TA=0 IT=0): ||X|| =      0.217322962 Max(X)(109,103) =     -0.151337353 
   --- SFit(Active Orbitals)

MACRO-ITERATION   5: 
   --- Inactive Energy E0 = -2596.16086609 Eh
CI-ITERATION   0: 
 -2610.519448710   0.000000000000 (    0.00)
 -2610.518260019   0.000000000000
 -2610.510463990   0.000000000000
 -2610.507754115   0.000000000000
 -2610.503508123   0.000000000000
   CI-PROBLEM SOLVED
   DENSITIES MADE
CI-ITERATION   0: 
 -2610.431602686   0.000000000000 (    0.00)
 -2610.428911372   0.000000000000
 -2610.428534609   0.000000000000
 -2610.428201504   0.000000000000
 -2610.427867495   0.000000000000
 -2610.425405390   0.000000000000
 -2610.423968223   0.000000000000
 -2610.421936279   0.000000000000
 -2610.421773873   0.000000000000
 -2610.421326888   0.000000000000
 -2610.420992197   0.000000000000
 -2610.417263568   0.000000000000
 -2610.416456411   0.000000000000
 -2610.415129951   0.000000000000
 -2610.411680909   0.000000000000
 -2610.411240922   0.000000000000
 -2610.410607204   0.000000000000
 -2610.410313005   0.000000000000
 -2610.408181187   0.000000000000
 -2610.406631308   0.000000000000
 -2610.406401267   0.000000000000
 -2610.404345182   0.000000000000
 -2610.402966541   0.000000000000
 -2610.402794620   0.000000000000
 -2610.401029813   0.000000000000
 -2610.400076791   0.000000000000
 -2610.398844184   0.000000000000
 -2610.398762023   0.000000000000
 -2610.397629626   0.000000000000
 -2610.397562692   0.000000000000
 -2610.370564288   0.000000000000
 -2610.369369337   0.000000000000
 -2610.368052363   0.000000000000
 -2610.367438267   0.000000000000
 -2610.366988863   0.000000000000
 -2610.285217675   0.000000000000
 -2610.283509356   0.000000000000
 -2610.279554436   0.000000000000
 -2610.276108317   0.000000000000
 -2610.273149969   0.000000000000
 -2610.272563369   0.000000000000
 -2610.270638348   0.000000000000
 -2610.269657454   0.000000000000
 -2610.268991587   0.000000000000
 -2610.263799575   0.000000000000
   CI-PROBLEM SOLVED
   DENSITIES MADE
   E(CAS)= -2610.444655061 Eh DE=   -2.145132e-02
   --- Energy gap subspaces: Ext-Act = 0.165   Act-Int = 0.054
   N(occ)=  1.20000 1.20000 1.20000 1.20000 1.20000
   ||g|| =     3.371510e-01 Max(G)=    9.507668e-02 Rot=109,104
   --- Orbital Update [SuperCI(PT)]
   --- Canonicalize Internal Space
   --- Canonicalize External Space
   --- SX_PT (Skipped TA=0 IT=0): ||X|| =      0.178361564 Max(X)(109,104) =      0.131800617 
   --- SFit(Active Orbitals)

MACRO-ITERATION   6: 
   --- Inactive Energy E0 = -2595.05604204 Eh
CI-ITERATION   0: 
 -2610.538556477   0.000000000000 (    0.00)
 -2610.535669266   0.000000000000
 -2610.534955574   0.000000000000
 -2610.532923649   0.000000000000
 -2610.529390556   0.000000000000
   CI-PROBLEM SOLVED
   DENSITIES MADE
CI-ITERATION   0: 
 -2610.446618833   0.000000000000 (    0.00)
 -2610.446367841   0.000000000000
 -2610.444529771   0.000000000000
 -2610.443976921   0.000000000000
 -2610.442439371   0.000000000000
 -2610.442113010   0.000000000000
 -2610.440348752   0.000000000000
 -2610.439695268   0.000000000000
 -2610.439251295   0.000000000000
 -2610.438294937   0.000000000000
 -2610.437575880   0.000000000000
 -2610.431133022   0.000000000000
 -2610.430834972   0.000000000000
 -2610.429635255   0.000000000000
 -2610.428461115   0.000000000000
 -2610.426356606   0.000000000000
 -2610.425760790   0.000000000000
 -2610.425115760   0.000000000000
 -2610.423945154   0.000000000000
 -2610.423821559   0.000000000000
 -2610.421340457   0.000000000000
 -2610.418275655   0.000000000000
 -2610.417707752   0.000000000000
 -2610.417488590   0.000000000000
 -2610.416351357   0.000000000000
 -2610.413677971   0.000000000000
 -2610.412382676   0.000000000000
 -2610.412192344   0.000000000000
 -2610.410902363   0.000000000000
 -2610.410876820   0.000000000000
 -2610.383734930   0.000000000000
 -2610.381333265   0.000000000000
 -2610.380824385   0.000000000000
 -2610.378285649   0.000000000000
 -2610.377503250   0.000000000000
 -2610.285896549   0.000000000000
 -2610.285335503   0.000000000000
 -2610.280401188   0.000000000000
 -2610.278694675   0.000000000000
 -2610.278300623   0.000000000000
 -2610.277122474   0.000000000000
 -2610.275822869   0.000000000000
 -2610.273834775   0.000000000000
 -2610.272149409   0.000000000000
 -2610.271782636   0.000000000000
   CI-PROBLEM SOLVED
   DENSITIES MADE
   E(CAS)= -2610.462021711 Eh DE=   -1.736665e-02
   --- Energy gap subspaces: Ext-Act = 0.194   Act-Int = 0.004
   N(occ)=  1.20000 1.20000 1.20000 1.20000 1.20000
   ||g|| =     2.709032e-01 Max(G)=   -6.561332e-02 Rot=382,15
   --- Orbital Update [SuperCI(PT)]
   --- Canonicalize Internal Space
   --- Canonicalize External Space
   --- SX_PT (Skipped TA=0 IT=0): ||X|| =      0.083050808 Max(X)(109,104) =      0.046643084 
   --- SFit(Active Orbitals)

MACRO-ITERATION   7: 
   --- Inactive Energy E0 = -2595.03001776 Eh
CI-ITERATION   0: 
 -2610.541546990   0.000000000000 (    0.00)
 -2610.538666828   0.000000000000
 -2610.537680667   0.000000000000
 -2610.535699995   0.000000000000
 -2610.531487724   0.000000000000
   CI-PROBLEM SOLVED
   DENSITIES MADE
CI-ITERATION   0: 
 -2610.450125009   0.000000000000 (    0.02)
 -2610.449733015   0.000000000000
 -2610.447790538   0.000000000000
 -2610.447459638   0.000000000000
 -2610.445781846   0.000000000000
 -2610.445454873   0.000000000000
 -2610.443465148   0.000000000000
 -2610.443036048   0.000000000000
 -2610.442567778   0.000000000000
 -2610.441418007   0.000000000000
 -2610.440657101   0.000000000000
 -2610.434541696   0.000000000000
 -2610.434298245   0.000000000000
 -2610.433020303   0.000000000000
 -2610.431620428   0.000000000000
 -2610.429609462   0.000000000000
 -2610.428834372   0.000000000000
 -2610.428317020   0.000000000000
 -2610.427133836   0.000000000000
 -2610.427060189   0.000000000000
 -2610.424608666   0.000000000000
 -2610.421675449   0.000000000000
 -2610.421254993   0.000000000000
 -2610.421011615   0.000000000000
 -2610.419569372   0.000000000000
 -2610.417024346   0.000000000000
 -2610.415530872   0.000000000000
 -2610.415426696   0.000000000000
 -2610.414206855   0.000000000000
 -2610.414142085   0.000000000000
 -2610.387124033   0.000000000000
 -2610.384821571   0.000000000000
 -2610.384401889   0.000000000000
 -2610.381676163   0.000000000000
 -2610.380967402   0.000000000000
 -2610.289373857   0.000000000000
 -2610.288774277   0.000000000000
 -2610.284900356   0.000000000000
 -2610.282588362   0.000000000000
 -2610.282384479   0.000000000000
 -2610.281366349   0.000000000000
 -2610.280063816   0.000000000000
 -2610.277913276   0.000000000000
 -2610.276264817   0.000000000000
 -2610.275491951   0.000000000000
   CI-PROBLEM SOLVED
   DENSITIES MADE
   E(CAS)= -2610.465113643 Eh DE=   -3.091933e-03
   --- Energy gap subspaces: Ext-Act = 0.211   Act-Int = -0.012
   N(occ)=  1.20000 1.20000 1.20000 1.20000 1.20000
   ||g|| =     1.122611e-01 Max(G)=    2.484994e-02 Rot=109,104
   --- Orbital Update [SuperCI(PT)]
   --- Canonicalize Internal Space
   --- Canonicalize External Space
   --- SX_PT (Skipped TA=0 IT=0): ||X|| =      0.055158587 Max(X)(109,104) =     -0.036187035 
   --- SFit(Active Orbitals)

MACRO-ITERATION   8: 
   --- Inactive Energy E0 = -2594.83279295 Eh
CI-ITERATION   0: 
 -2610.543995568   0.000000000000 (    0.19)
 -2610.541613080   0.000000000000
 -2610.540603443   0.000000000000
 -2610.538638812   0.000000000000
 -2610.533413282   0.000000000000
   CI-PROBLEM SOLVED
   DENSITIES MADE
CI-ITERATION   0: 
 -2610.451564904   0.000000000000 (    0.00)
 -2610.451088757   0.000000000000
 -2610.449219126   0.000000000000
 -2610.449118568   0.000000000000
 -2610.447251915   0.000000000000
 -2610.446988374   0.000000000000
 -2610.444801976   0.000000000000
 -2610.444569763   0.000000000000
 -2610.444025229   0.000000000000
 -2610.442709728   0.000000000000
 -2610.441988761   0.000000000000
 -2610.436020108   0.000000000000
 -2610.435800352   0.000000000000
 -2610.434592387   0.000000000000
 -2610.432705034   0.000000000000
 -2610.430919428   0.000000000000
 -2610.429817108   0.000000000000
 -2610.429471359   0.000000000000
 -2610.428420288   0.000000000000
 -2610.428272746   0.000000000000
 -2610.425986892   0.000000000000
 -2610.422953551   0.000000000000
 -2610.422769432   0.000000000000
 -2610.422490055   0.000000000000
 -2610.420653188   0.000000000000
 -2610.418189421   0.000000000000
 -2610.416624421   0.000000000000
 -2610.416584596   0.000000000000
 -2610.415411575   0.000000000000
 -2610.415327180   0.000000000000
 -2610.387655203   0.000000000000
 -2610.385466451   0.000000000000
 -2610.385169223   0.000000000000
 -2610.382414036   0.000000000000
 -2610.381711733   0.000000000000
 -2610.287489928   0.000000000000
 -2610.286960415   0.000000000000
 -2610.284525517   0.000000000000
 -2610.282152688   0.000000000000
 -2610.282086660   0.000000000000
 -2610.281105760   0.000000000000
 -2610.280085029   0.000000000000
 -2610.277638278   0.000000000000
 -2610.275896282   0.000000000000
 -2610.275210094   0.000000000000
   CI-PROBLEM SOLVED
   DENSITIES MADE
   E(CAS)= -2610.466847569 Eh DE=   -1.733925e-03
   --- Energy gap subspaces: Ext-Act = 0.221   Act-Int = -0.023
   N(occ)=  1.20000 1.20000 1.20000 1.20000 1.20000
   ||g|| =     5.208240e-02 Max(G)=    9.788545e-03 Rot=109,104
   --- Orbital Update [SuperCI(PT)]
   --- Canonicalize Internal Space
   --- Canonicalize External Space
   --- SX_PT (Skipped TA=0 IT=0): ||X|| =      0.025378352 Max(X)(109,104) =     -0.014394126 
   --- SFit(Active Orbitals)

MACRO-ITERATION   9: 
   --- Inactive Energy E0 = -2594.73307666 Eh
CI-ITERATION   0: 
 -2610.544680216   0.000000000000 (    0.00)
 -2610.542406645   0.000000000000
 -2610.541421433   0.000000000000
 -2610.539301247   0.000000000000
 -2610.533957095   0.000000000000
   CI-PROBLEM SOLVED
   DENSITIES MADE
CI-ITERATION   0: 
 -2610.451667004   0.000000000000 (    0.00)
 -2610.451228428   0.000000000000
 -2610.449430866   0.000000000000
 -2610.449393352   0.000000000000
 -2610.447518276   0.000000000000
 -2610.447200236   0.000000000000
 -2610.445047532   0.000000000000
 -2610.444778837   0.000000000000
 -2610.444293426   0.000000000000
 -2610.442870064   0.000000000000
 -2610.442230957   0.000000000000
 -2610.436330723   0.000000000000
 -2610.436093744   0.000000000000
 -2610.434907797   0.000000000000
 -2610.432789405   0.000000000000
 -2610.431190871   0.000000000000
 -2610.429844793   0.000000000000
 -2610.429632023   0.000000000000
 -2610.428689174   0.000000000000
 -2610.428505351   0.000000000000
 -2610.426234740   0.000000000000
 -2610.423148148   0.000000000000
 -2610.423009938   0.000000000000
 -2610.422736225   0.000000000000
 -2610.420761232   0.000000000000
 -2610.418398192   0.000000000000
 -2610.416876947   0.000000000000
 -2610.416793352   0.000000000000
 -2610.415658679   0.000000000000
 -2610.415556791   0.000000000000
 -2610.387528804   0.000000000000
 -2610.385357297   0.000000000000
 -2610.385182192   0.000000000000
 -2610.382460334   0.000000000000
 -2610.381782803   0.000000000000
 -2610.286353353   0.000000000000
 -2610.285896847   0.000000000000
 -2610.284071914   0.000000000000
 -2610.281863721   0.000000000000
 -2610.281761812   0.000000000000
 -2610.280715703   0.000000000000
 -2610.279745428   0.000000000000
 -2610.277303379   0.000000000000
 -2610.275617205   0.000000000000
 -2610.274916743   0.000000000000
   CI-PROBLEM SOLVED
   DENSITIES MADE
   E(CAS)= -2610.467214160 Eh DE=   -3.665909e-04
   --- Energy gap subspaces: Ext-Act = 0.228   Act-Int = -0.031
   N(occ)=  1.20000 1.20000 1.20000 1.20000 1.20000
   ||g|| =     2.873933e-02 Max(G)=   -5.115570e-03 Rot=382,15
   --- Orbital Update [SuperCI(PT)]
   --- Canonicalize Internal Space
   --- Canonicalize External Space
   --- SX_PT (Skipped TA=0 IT=0): ||X|| =      0.010247657 Max(X)(113,104) =      0.004151509 
   --- SFit(Active Orbitals)

MACRO-ITERATION  10: 
   --- Inactive Energy E0 = -2594.71288924 Eh
CI-ITERATION   0: 
 -2610.544794330   0.000000000000 (    0.00)
 -2610.542429764   0.000000000000
 -2610.541459428   0.000000000000
 -2610.539306928   0.000000000000
 -2610.533984096   0.000000000000
   CI-PROBLEM SOLVED
   DENSITIES MADE
CI-ITERATION   0: 
 -2610.451760921   0.000000000000 (    0.00)
 -2610.451350284   0.000000000000
 -2610.449534382   0.000000000000
 -2610.449495794   0.000000000000
 -2610.447667622   0.000000000000
 -2610.447271176   0.000000000000
 -2610.445156080   0.000000000000
 -2610.444828086   0.000000000000
 -2610.444377416   0.000000000000
 -2610.442916872   0.000000000000
 -2610.442295999   0.000000000000
 -2610.436464244   0.000000000000
 -2610.436235125   0.000000000000
 -2610.435023987   0.000000000000
 -2610.432869773   0.000000000000
 -2610.431308529   0.000000000000
 -2610.429869210   0.000000000000
 -2610.429724648   0.000000000000
 -2610.428806959   0.000000000000
 -2610.428592909   0.000000000000
 -2610.426320139   0.000000000000
 -2610.423270376   0.000000000000
 -2610.423114924   0.000000000000
 -2610.422861978   0.000000000000
 -2610.420874562   0.000000000000
 -2610.418495323   0.000000000000
 -2610.417015353   0.000000000000
 -2610.416876221   0.000000000000
 -2610.415782054   0.000000000000
 -2610.415672945   0.000000000000
 -2610.387648533   0.000000000000
 -2610.385416648   0.000000000000
 -2610.385331753   0.000000000000
 -2610.382599826   0.000000000000
 -2610.381917191   0.000000000000
 -2610.286369850   0.000000000000
 -2610.285986725   0.000000000000
 -2610.284161529   0.000000000000
 -2610.282047023   0.000000000000
 -2610.281996944   0.000000000000
 -2610.280937616   0.000000000000
 -2610.279933953   0.000000000000
 -2610.277529849   0.000000000000
 -2610.275895399   0.000000000000
 -2610.275112932   0.000000000000
   CI-PROBLEM SOLVED
   DENSITIES MADE
   E(CAS)= -2610.467294340 Eh DE=   -8.018014e-05
   --- Energy gap subspaces: Ext-Act = 0.233   Act-Int = -0.036
   N(occ)=  1.20000 1.20000 1.20000 1.20000 1.20000
   ||g|| =     7.454680e-03 Max(G)=   -1.294837e-03 Rot=110,103
   --- Orbital Update [SuperCI(PT)]
   --- Canonicalize Internal Space
   --- Canonicalize External Space
   --- SX_PT (Skipped TA=0 IT=0): ||X|| =      0.003601429 Max(X)(110,103) =      0.001755270 
   --- SFit(Active Orbitals)

MACRO-ITERATION  11: 
   --- Inactive Energy E0 = -2594.70973081 Eh
CI-ITERATION   0: 
 -2610.544837113   0.000000000000 (    0.00)
 -2610.542382619   0.000000000000
 -2610.541427734   0.000000000000
 -2610.539264914   0.000000000000
 -2610.533924019   0.000000000000
   CI-PROBLEM SOLVED
   DENSITIES MADE
CI-ITERATION   0: 
 -2610.451864464   0.000000000000 (    0.00)
 -2610.451468056   0.000000000000
 -2610.449592716   0.000000000000
 -2610.449555252   0.000000000000
 -2610.447765060   0.000000000000
 -2610.447302284   0.000000000000
 -2610.445213112   0.000000000000
 -2610.444833237   0.000000000000
 -2610.444401946   0.000000000000
 -2610.442918309   0.000000000000
 -2610.442291410   0.000000000000
 -2610.436523185   0.000000000000
 -2610.436303675   0.000000000000
 -2610.435054938   0.000000000000
 -2610.432924361   0.000000000000
 -2610.431340925   0.000000000000
 -2610.429860474   0.000000000000
 -2610.429748634   0.000000000000
 -2610.428828352   0.000000000000
 -2610.428595084   0.000000000000
 -2610.426306009   0.000000000000
 -2610.423330082   0.000000000000
 -2610.423151566   0.000000000000
 -2610.422917788   0.000000000000
 -2610.420941747   0.000000000000
 -2610.418503709   0.000000000000
 -2610.417044337   0.000000000000
 -2610.416877837   0.000000000000
 -2610.415797057   0.000000000000
 -2610.415691191   0.000000000000
 -2610.387747525   0.000000000000
 -2610.385442130   0.000000000000
 -2610.385408768   0.000000000000
 -2610.382657113   0.000000000000
 -2610.381959895   0.000000000000
 -2610.286496801   0.000000000000
 -2610.286153646   0.000000000000
 -2610.284209762   0.000000000000
 -2610.282170101   0.000000000000
 -2610.282115341   0.000000000000
 -2610.281087070   0.000000000000
 -2610.280034668   0.000000000000
 -2610.277652509   0.000000000000
 -2610.276032559   0.000000000000
 -2610.275195668   0.000000000000
   CI-PROBLEM SOLVED
   DENSITIES MADE
   E(CAS)= -2610.467309310 Eh DE=   -1.497073e-05
   --- Energy gap subspaces: Ext-Act = 0.234   Act-Int = -0.037
   N(occ)=  1.20000 1.20000 1.20000 1.20000 1.20000
[...]
      dz2     :     1.999174  d :     9.987577
      dxz     :     1.999818
      dyz     :     2.001042
      dx2y2   :     1.993990
      dxy     :     1.993552
      f0      :     0.000679  f :     0.004648
      f+1     :     0.000531
      f-1     :     0.000578
      f+2     :     0.000640
      f-2     :     0.000534
      f+3     :     0.001061
      f-3     :     0.000624
  2 Aus       :     2.515049  s :     2.515049
      pz      :     2.189869  p :     6.556936
      px      :     2.070371
      py      :     2.296697
      dz2     :     2.001744  d :     9.967003
      dxz     :     1.994272
      dyz     :     1.993153
      dx2y2   :     1.986297
      dxy     :     1.991536
      f0      :     0.000588  f :     0.004702
      f+1     :     0.000550
      f-1     :     0.000670
      f+2     :     0.000999
      f-2     :     0.000520
      f+3     :     0.000582
      f-3     :     0.000792
  3 Aus       :     2.553513  s :     2.553513
      pz      :     2.078379  p :     6.408739
      px      :     2.178867
      py      :     2.151493
      dz2     :     1.989727  d :     9.965581
      dxz     :     1.987455
      dyz     :     1.997911
      dx2y2   :     2.004402
      dxy     :     1.986086
      f0      :     0.000387  f :     0.003593
      f+1     :     0.000430
      f-1     :     0.000479
      f+2     :     0.000665
      f-2     :     0.000570
      f+3     :     0.000559
      f-3     :     0.000504
  4 Aus       :     2.741991  s :     2.741991
      pz      :     2.181538  p :     6.354540
      px      :     2.072942
      py      :     2.100060
      dz2     :     1.982220  d :     9.944463
      dxz     :     1.993881
      dyz     :     1.998541
      dx2y2   :     1.976521
      dxy     :     1.993300
      f0      :     0.000459  f :     0.003345
      f+1     :     0.000350
      f-1     :     0.000802
      f+2     :     0.000526
      f-2     :     0.000621
      f+3     :     0.000261
      f-3     :     0.000326
  5 Aus       :     2.505866  s :     2.505866
      pz      :     2.138631  p :     6.494962
      px      :     2.043817
      py      :     2.312513
      dz2     :     1.994383  d :     9.942638
      dxz     :     1.990308
      dyz     :     1.980749
      dx2y2   :     1.992607
      dxy     :     1.984591
      f0      :     0.000653  f :     0.003906
      f+1     :     0.000305
      f-1     :     0.000957
      f+2     :     0.000478
      f-2     :     0.000455
      f+3     :     0.000671
      f-3     :     0.000387
  6 Aus       :     2.420995  s :     2.420995
      pz      :     2.195974  p :     6.444175
      px      :     2.118552
      py      :     2.129649
      dz2     :     2.012567  d :     9.998379
      dxz     :     1.991004
      dyz     :     1.986840
      dx2y2   :     2.002905
      dxy     :     2.005062
      f0      :     0.000577  f :     0.003533
      f+1     :     0.000542
      f-1     :     0.000407
      f+2     :     0.000372
      f-2     :     0.000565
      f+3     :     0.000690
      f-3     :     0.000380
  7 Aus       :     2.706173  s :     2.706173
      pz      :     2.067524  p :     6.198213
      px      :     2.047623
      py      :     2.083065
      dz2     :     1.994859  d :     9.961303
      dxz     :     1.993075
      dyz     :     1.986291
      dx2y2   :     1.991721
      dxy     :     1.995357
      f0      :     0.000370  f :     0.003320
      f+1     :     0.000279
      f-1     :     0.000418
      f+2     :     0.000693
      f-2     :     0.000511
      f+3     :     0.000536
      f-3     :     0.000514
  8 Aus       :     2.506025  s :     2.506025
      pz      :     2.162147  p :     6.488956
      px      :     2.058140
      py      :     2.268669
      dz2     :     1.991495  d :     9.943533
      dxz     :     1.986729
      dyz     :     1.981234
      dx2y2   :     1.993764
      dxy     :     1.990311
      f0      :     0.000627  f :     0.003881
      f+1     :     0.000357
      f-1     :     0.000490
      f+2     :     0.000492
      f-2     :     0.000635
      f+3     :     0.000646
      f-3     :     0.000636
  9 Aus       :     2.546059  s :     2.546059
      pz      :     2.105471  p :     6.544979
      px      :     2.293897
      py      :     2.145611
      dz2     :     1.990799  d :     9.987671
      dxz     :     2.000627
      dyz     :     1.999350
      dx2y2   :     1.990720
      dxy     :     2.006174
      f0      :     0.000516  f :     0.004647
      f+1     :     0.000544
      f-1     :     0.000431
      f+2     :     0.000711
      f-2     :     0.000927
      f+3     :     0.000735
      f-3     :     0.000783
 10 Fes       :     6.328026  s :     6.328026
      pz      :     4.257348  p :    12.752200
      px      :     4.253470
      py      :     4.241383
      dz2     :     1.441575  d :     7.064016
      dxz     :     1.423376
      dyz     :     1.372955
      dx2y2   :     1.441338
      dxy     :     1.384772
      f0      :     0.000061  f :     0.000538
      f+1     :     0.000078
      f-1     :     0.000097
      f+2     :     0.000060
      f-2     :     0.000107
      f+3     :     0.000043
      f-3     :     0.000091

SPIN
  0 Aus       :     0.003111  s :     0.003111
      pz      :     0.001309  p :     0.002756
      px      :     0.000935
      py      :     0.000512
      dz2     :     0.002044  d :     0.007519
      dxz     :     0.001752
      dyz     :     0.001560
      dx2y2   :     0.001070
      dxy     :     0.001093
      f0      :     0.000012  f :     0.000106
      f+1     :     0.000020
      f-1     :     0.000026
      f+2     :     0.000007
      f-2     :     0.000032
      f+3     :     0.000005
      f-3     :     0.000005
  1 Aus       :     0.002334  s :     0.002334
      pz      :     0.001055  p :     0.002266
      px      :     0.000444
      py      :     0.000767
      dz2     :     0.001345  d :     0.004255
      dxz     :     0.001049
      dyz     :     0.000914
      dx2y2   :     0.000714
      dxy     :     0.000234
      f0      :     0.000003  f :     0.000045
      f+1     :     0.000014
      f-1     :     0.000015
      f+2     :     0.000003
      f-2     :     0.000007
      f+3     :     0.000003
      f-3     :     0.000000
  2 Aus       :     0.000873  s :     0.000873
      pz      :     0.000535  p :     0.001974
      px      :     0.000568
      py      :     0.000871
      dz2     :     0.000774  d :     0.008646
      dxz     :     0.001542
      dyz     :     0.001252
      dx2y2   :     0.003134
      dxy     :     0.001944
      f0      :     0.000015  f :     0.000155
      f+1     :     0.000022
      f-1     :     0.000008
      f+2     :     0.000009
      f-2     :     0.000020
      f+3     :     0.000025
      f-3     :     0.000057
  3 Aus       :     0.001035  s :     0.001035
      pz      :     0.000581  p :     0.002282
      px      :     0.001214
      py      :     0.000487
      dz2     :     0.001982  d :     0.009240
      dxz     :     0.002942
      dyz     :     0.000967
      dx2y2   :     0.001519
      dxy     :     0.001831
      f0      :     0.000024  f :     0.000237
      f+1     :     0.000047
      f-1     :     0.000016
      f+2     :     0.000046
      f-2     :     0.000063
      f+3     :     0.000012
      f-3     :     0.000029
  4 Aus       :     0.003099  s :     0.003099
      pz      :     0.000880  p :     0.002780
      px      :     0.000628
      py      :     0.001272
      dz2     :     0.001252  d :     0.007593
      dxz     :     0.000118
      dyz     :     0.001694
      dx2y2   :     0.002576
      dxy     :     0.001954
      f0      :     0.000004  f :     0.000109
      f+1     :     0.000001
      f-1     :     0.000035
      f+2     :     0.000007
      f-2     :     0.000000
      f+3     :     0.000022
      f-3     :     0.000041
  5 Aus       :     0.000625  s :     0.000625
      pz      :     0.001002  p :     0.003249
      px      :     0.000629
      py      :     0.001617
      dz2     :     0.002528  d :     0.009098
      dxz     :     0.002057
      dyz     :     0.003090
      dx2y2   :     0.000411
      dxy     :     0.001012
      f0      :     0.000034  f :     0.000212
      f+1     :     0.000027
      f-1     :     0.000099
      f+2     :     0.000025
      f-2     :     0.000021
      f+3     :     0.000004
      f-3     :     0.000002
  6 Aus       :     0.000741  s :     0.000741
      pz      :     0.000770  p :     0.001688
      px      :     0.000341
      py      :     0.000578
      dz2     :     0.000976  d :     0.007758
      dxz     :     0.002193
      dyz     :     0.002352
      dx2y2   :     0.001349
      dxy     :     0.000888
      f0      :     0.000025  f :     0.000214
      f+1     :     0.000032
      f-1     :     0.000029
      f+2     :     0.000029
      f-2     :     0.000068
      f+3     :     0.000014
      f-3     :     0.000016
  7 Aus       :     0.002047  s :     0.002047
      pz      :     0.000786  p :     0.001533
      px      :     0.000238
      py      :     0.000509
      dz2     :     0.000049  d :     0.000558
      dxz     :     0.000115
      dyz     :     0.000157
      dx2y2   :     0.000172
      dxy     :     0.000066
      f0      :     0.000000  f :     0.000003
      f+1     :     0.000000
      f-1     :     0.000001
      f+2     :     0.000001
      f-2     :     0.000000
      f+3     :     0.000001
      f-3     :     0.000000
  8 Aus       :     0.000633  s :     0.000633
      pz      :     0.000817  p :     0.003194
      px      :     0.000609
      py      :     0.001768
      dz2     :     0.001714  d :     0.009173
      dxz     :     0.001739
      dyz     :     0.001850
      dx2y2   :     0.002012
      dxy     :     0.001857
      f0      :     0.000029  f :     0.000215
      f+1     :     0.000023
      f-1     :     0.000009
      f+2     :     0.000025
      f-2     :     0.000061
      f+3     :     0.000020
      f-3     :     0.000046
  9 Aus       :     0.002285  s :     0.002285
      pz      :     0.000389  p :     0.002272
      px      :     0.000489
      py      :     0.001394
      dz2     :     0.000330  d :     0.004291
      dxz     :     0.000161
      dyz     :     0.001080
      dx2y2   :     0.001839
      dxy     :     0.000881
      f0      :     0.000003  f :     0.000046
      f+1     :     0.000000
      f-1     :     0.000011
      f+2     :     0.000003
      f-2     :     0.000001
      f+3     :     0.000004
      f-3     :     0.000025
 10 Fes       :     0.000278  s :     0.000278
      pz      :     0.000757  p :     0.003252
      px      :     0.001717
      py      :     0.000778
      dz2     :     0.577055  d :     2.886219
      dxz     :     0.573953
      dyz     :     0.579271
      dx2y2   :     0.576192
      dxy     :     0.579748
      f0      :     0.000000  f :     0.000002
      f+1     :     0.000000
      f-1     :     0.000000
      f+2     :     0.000001
      f-2     :     0.000000
      f+3     :     0.000000
      f-3     :     0.000000


                      *****************************
                      * MAYER POPULATION ANALYSIS *
                      *****************************

  NA   - Mulliken gross atomic population
  ZA   - Total nuclear charge
  QA   - Mulliken gross atomic charge
  VA   - Mayer's total valence
  BVA  - Mayer's bonded valence
  FA   - Mayer's free valence

  ATOM       NA         ZA         QA         VA         BVA        FA
  0 Au    18.9783    19.0000     0.0217     1.1398     1.1287     0.0111
  1 Au    19.1795    19.0000    -0.1795     1.7432     1.7356     0.0076
  2 Au    19.0875    19.0000    -0.0875     1.7896     1.7811     0.0086
  3 Au    18.6667    19.0000     0.3333     1.2097     1.2002     0.0095
  4 Au    18.9759    19.0000     0.0241     1.1483     1.1370     0.0112
  5 Au    18.6482    19.0000     0.3518     1.3550     1.3462     0.0088
  6 Au    18.6120    19.0000     0.3880     1.1988     1.1908     0.0080
  7 Au    18.6279    19.0000     0.3721     1.1432     1.1400     0.0032
  8 Au    18.6448    19.0000     0.3552     1.3473     1.3385     0.0088
  9 Au    19.1769    19.0000    -0.1769     1.7472     1.7397     0.0075
 10 Fe    27.4023    26.0000    -1.4023     8.5850     3.9683     4.6167

  Mayer bond orders larger than 0.100000
B(  0-Au,  8-Au) :   0.3406 B(  0-Au, 10-Fe) :   0.5033 B(  1-Au,  2-Au) :   0.2089 
B(  1-Au,  5-Au) :   0.3226 B(  1-Au,  6-Au) :   0.1973 B(  1-Au,  7-Au) :   0.3402 
B(  1-Au,  9-Au) :   0.1885 B(  1-Au, 10-Fe) :   0.3792 B(  2-Au,  3-Au) :   0.5172 
B(  2-Au,  7-Au) :   0.3169 B(  2-Au,  9-Au) :   0.2133 B(  2-Au, 10-Fe) :   0.4635 
B(  3-Au, 10-Fe) :   0.4617 B(  4-Au,  5-Au) :   0.3562 B(  4-Au, 10-Fe) :   0.5063 
B(  5-Au,  6-Au) :   0.1469 B(  5-Au, 10-Fe) :   0.3962 B(  6-Au,  8-Au) :   0.1474 
B(  6-Au,  9-Au) :   0.1864 B(  6-Au, 10-Fe) :   0.4331 B(  7-Au,  9-Au) :   0.3422 
B(  8-Au,  9-Au) :   0.3306 B(  8-Au, 10-Fe) :   0.3931 B(  9-Au, 10-Fe) :   0.3806 



-------------------------------------------------------------
 Forming the transition density       ... done in 0.165897 sec
-------------------------------------------------------------



==========================================
CASSCF UV, CD spectra and dipole moments
==========================================
-------------------
ABSORPTION SPECTRUM
-------------------

Center of mass           = ( 17.5551, 12.7494, 13.8781)
Nuclear contribution to the dipole moment =     9.845168,  -20.225628,   -8.852617 au

Calculating the Dipole integrals                  ... done
Transforming integrals                            ... done
Calculating the Linear Momentum integrals         ... done
Transforming integrals                            ... done
Calculating the Angular Momentum integrals        ... done
Transforming integrals                            ... done

------------------------------------------------------------------------------------------
                                ABSORPTION SPECTRUM
------------------------------------------------------------------------------------------
  States           Energy   Wavelength   fosc          T2        TX         TY        TZ  
                   (cm-1)     (nm)                   (D**2)      (D)        (D)       (D) 
------------------------------------------------------------------------------------------
  0( 0)-> 1( 0) 5     523.2   19111.5   0.000000018   0.00007   0.00059  -0.00498   0.00705
  0( 0)-> 2( 0) 5     729.3   13711.5   0.000001491   0.00434  -0.04310  -0.02441  -0.04345
  0( 0)-> 3( 0) 5    1200.8   8327.5   0.000003202   0.00566   0.06903  -0.01054   0.02805
  0( 0)-> 4( 0) 5    2387.2   4188.9   0.000000509   0.00045   0.00813   0.01332  -0.01446
------------------------------------------------------------------------------------------



------------------------------------------------------------------------------
                             CD SPECTRUM
------------------------------------------------------------------------------
      States        Energy   Wavelength   R*T        RX        RY        RZ   
                    (cm-1)      (nm)   (1e40*sgs)   (au)      (au)      (au)  
------------------------------------------------------------------------------
  0( 0)-> 1( 0) 5     523.2   19111.5     0.32171   0.35998  -0.31839  -0.00872
  0( 0)-> 2( 0) 5     729.3   13711.5    -0.31933   0.03842   0.03421  -0.01770
  0( 0)-> 3( 0) 5    1200.8   8327.5    -0.06614   0.27909   0.39235  -0.55220
  0( 0)-> 4( 0) 5    2387.2   4188.9     0.15844  -0.65544   0.30136  -0.14973
------------------------------------------------------------------------------

------------------------------------------------------------------------------
                                 DIPOLE MOMENTS
------------------------------------------------------------------------------
  Root  Block           TX        TY        TZ           |T|
                      (Debye)   (Debye)   (Debye)      (Debye)
------------------------------------------------------------------------------
    0    0            0.01868   1.43816   0.93233      1.71402

--------------
CASSCF TIMINGS
--------------

Total time                       ...     2290.4 sec
Sum of individual times          ...     2279.7 sec ( 99.5%)

Calculation of AO operators
   F(Core) operator              ...     1132.2 sec ( 49.4%)
   G(Act) operator               ...     1044.4 sec ( 45.6%)
   J(AO) operators               ...        0.0 sec (  0.0%)
Calculation of MO transformed quantities
   J(MO) operators               ...       75.1 sec (  3.3%)
   (pq|rs) integrals             ...        0.0 sec (  0.0%)
   AO->MO one electron integrals ...        0.5 sec (  0.0%)
Configuration interaction steps
   CI-setup phase                ...        0.0 sec (  0.0%)
   CI-solution phase             ...       21.3 sec (  0.9%)
   Generation of densities       ...        0.9 sec (  0.0%)
Orbital improvement steps
   Orbital gradient              ...        0.7 sec (  0.0%)
   O(1) converger                ...        4.6 sec (  0.2%)
Properties                       ...        0.2 sec (  0.0%)
   SOC integral calculation      ...        0.0 sec (  0.0%)
   SSC RMEs (incl. integrals)    ...        0.0 sec (  0.0%)
   SOC RMEs                      ...        0.0 sec (  0.0%)

Maximum memory used throughout the entire CASSCF-calculation: 256.8 MB

-------------------------   --------------------
FINAL SINGLE POINT ENERGY     -2610.467317500177
-------------------------   --------------------


                            ***************************************
                            *     ORCA property calculations      *
                            ***************************************

                                    ---------------------
                                    Active property flags
                                    ---------------------
   (+) Dipole Moment


------------------------------------------------------------------------------
                       ORCA ELECTRIC PROPERTIES CALCULATION
------------------------------------------------------------------------------

Dipole Moment Calculation                       ... on
Quadrupole Moment Calculation                   ... off
Polarizability Calculation                      ... off
GBWName                                         ... casscf.gbw
Electron density                                ... casscf.scfp
The origin for moment calculation is the CENTER OF MASS  = (17.555091, 12.749354 13.878104)

-------------
DIPOLE MOMENT
-------------
                                X             Y             Z
Electronic contribution:     -9.82624      20.78065       9.21704
Nuclear contribution   :      9.84517     -20.22563      -8.85262
                        -----------------------------------------
Total Dipole Moment    :      0.01893       0.55502       0.36443
                        -----------------------------------------
Magnitude (a.u.)       :      0.66424
Magnitude (Debye)      :      1.68837



--------------------
Rotational spectrum 
--------------------
 
Rotational constants in cm-1:     0.002231     0.001434     0.001389 
Rotational constants in MHz :    66.892468    42.982824    41.632414 

 Dipole components along the rotational axes: 
x,y,z [a.u.] :     0.615905     0.022446     0.247739 
x,y,z [Debye]:     1.565505     0.057054     0.629703 

 

Timings for individual modules:

Sum of individual times         ...     2315.876 sec (=  38.598 min)
GTO integral calculation        ...       12.962 sec (=   0.216 min)   0.6 %
SCF iterations                  ...        5.612 sec (=   0.094 min)   0.2 %
CASSCF iterations               ...     2297.302 sec (=  38.288 min)  99.2 %
                             ****ORCA TERMINATED NORMALLY****
TOTAL RUN TIME: 0 days 0 hours 38 minutes 36 seconds 293 msec
