
                                 *****************
                                 * O   R   C   A *
                                 *****************

                                            #,                                       
                                            ###                                      
                                            ####                                     
                                            #####                                    
                                            ######                                   
                                           ########,                                 
                                     ,,################,,,,,                         
                               ,,#################################,,                 
                          ,,##########################################,,             
                       ,#########################################, ''#####,          
                    ,#############################################,,   '####,        
                  ,##################################################,,,,####,       
                ,###########''''           ''''###############################       
              ,#####''   ,,,,##########,,,,          '''####'''          '####       
            ,##' ,,,,###########################,,,                        '##       
           ' ,,###''''                  '''############,,,                           
         ,,##''                                '''############,,,,        ,,,,,,###''
      ,#''                                            '''#######################'''  
     '                                                          ''''####''''         
             ,#######,   #######,   ,#######,      ##                                
            ,#'     '#,  ##    ##  ,#'     '#,    #''#        ######   ,####,        
            ##       ##  ##   ,#'  ##            #'  '#       #        #'  '#        
            ##       ##  #######   ##           ,######,      #####,   #    #        
            '#,     ,#'  ##    ##  '#,     ,#' ,#      #,         ##   #,  ,#        
             '#######'   ##     ##  '#######'  #'      '#     #####' # '####'        



                  #######################################################
                  #                        -***-                        #
                  #          Department of theory and spectroscopy      #
                  #    Directorship and core code : Frank Neese         #
                  #        Max Planck Institute fuer Kohlenforschung    #
                  #                Kaiser Wilhelm Platz 1               #
                  #                 D-45470 Muelheim/Ruhr               #
                  #                      Germany                        #
                  #                                                     #
                  #                  All rights reserved                #
                  #                        -***-                        #
                  #######################################################


                         Program Version 5.0.3 -  RELEASE  -


 With contributions from (in alphabetic order):
   Daniel Aravena         : Magnetic Suceptibility
   Michael Atanasov       : Ab Initio Ligand Field Theory (pilot matlab implementation)
   Alexander A. Auer      : GIAO ZORA, VPT2 properties, NMR spectrum
   Ute Becker             : Parallelization
   Giovanni Bistoni       : ED, misc. LED, open-shell LED, HFLD
   Martin Brehm           : Molecular dynamics
   Dmytro Bykov           : SCF Hessian
   Vijay G. Chilkuri      : MRCI spin determinant printing, contributions to CSF-ICE
   Dipayan Datta          : RHF DLPNO-CCSD density
   Achintya Kumar Dutta   : EOM-CC, STEOM-CC
   Dmitry Ganyushin       : Spin-Orbit,Spin-Spin,Magnetic field MRCI
   Miquel Garcia          : C-PCM and meta-GGA Hessian, CC/C-PCM, Gaussian charge scheme
   Yang Guo               : DLPNO-NEVPT2, F12-NEVPT2, CIM, IAO-localization
   Andreas Hansen         : Spin unrestricted coupled pair/coupled cluster methods
   Benjamin Helmich-Paris : MC-RPA, TRAH-SCF, COSX integrals
   Lee Huntington         : MR-EOM, pCC
   Robert Izsak           : Overlap fitted RIJCOSX, COSX-SCS-MP3, EOM
   Marcus Kettner         : VPT2
   Christian Kollmar      : KDIIS, OOCD, Brueckner-CCSD(T), CCSD density, CASPT2, CASPT2-K
   Simone Kossmann        : Meta GGA functionals, TD-DFT gradient, OOMP2, MP2 Hessian
   Martin Krupicka        : Initial AUTO-CI
   Lucas Lang             : DCDCAS
   Marvin Lechner         : AUTO-CI (C++ implementation), FIC-MRCC
   Dagmar Lenk            : GEPOL surface, SMD
   Dimitrios Liakos       : Extrapolation schemes; Compound Job, initial MDCI parallelization
   Dimitrios Manganas     : Further ROCIS development; embedding schemes
   Dimitrios Pantazis     : SARC Basis sets
   Anastasios Papadopoulos: AUTO-CI, single reference methods and gradients
   Taras Petrenko         : DFT Hessian,TD-DFT gradient, ASA, ECA, R-Raman, ABS, FL, XAS/XES, NRVS
   Peter Pinski           : DLPNO-MP2, DLPNO-MP2 Gradient
   Christoph Reimann      : Effective Core Potentials
   Marius Retegan         : Local ZFS, SOC
   Christoph Riplinger    : Optimizer, TS searches, QM/MM, DLPNO-CCSD(T), (RO)-DLPNO pert. Triples
   Tobias Risthaus        : Range-separated hybrids, TD-DFT gradient, RPA, STAB
   Michael Roemelt        : Original ROCIS implementation
   Masaaki Saitow         : Open-shell DLPNO-CCSD energy and density
   Barbara Sandhoefer     : DKH picture change effects
   Avijit Sen             : IP-ROCIS
   Kantharuban Sivalingam : CASSCF convergence, NEVPT2, FIC-MRCI
   Bernardo de Souza      : ESD, SOC TD-DFT
   Georgi Stoychev        : AutoAux, RI-MP2 NMR, DLPNO-MP2 response
   Willem Van den Heuvel  : Paramagnetic NMR
   Boris Wezisla          : Elementary symmetry handling
   Frank Wennmohs         : Technical directorship


 We gratefully acknowledge several colleagues who have allowed us to
 interface, adapt or use parts of their codes:
   Stefan Grimme, W. Hujo, H. Kruse, P. Pracht,  : VdW corrections, initial TS optimization,
                  C. Bannwarth, S. Ehlert          DFT functionals, gCP, sTDA/sTD-DF
   Ed Valeev, F. Pavosevic, A. Kumar             : LibInt (2-el integral package), F12 methods
   Garnet Chan, S. Sharma, J. Yang, R. Olivares  : DMRG
   Ulf Ekstrom                                   : XCFun DFT Library
   Mihaly Kallay                                 : mrcc  (arbitrary order and MRCC methods)
   Jiri Pittner, Ondrej Demel                    : Mk-CCSD
   Frank Weinhold                                : gennbo (NPA and NBO analysis)
   Christopher J. Cramer and Donald G. Truhlar   : smd solvation model
   Lars Goerigk                                  : TD-DFT with DH, B97 family of functionals
   V. Asgeirsson, H. Jonsson                     : NEB implementation
   FAccTs GmbH                                   : IRC, NEB, NEB-TS, DLPNO-Multilevel, CI-OPT
                                                   MM, QMMM, 2- and 3-layer-ONIOM, Crystal-QMMM,
                                                   LR-CPCM, SF, NACMEs, symmetry and pop. for TD-DFT,
                                                   nearIR, NL-DFT gradient (VV10), updates on ESD,
                                                   ML-optimized integration grids
   S Lehtola, MJT Oliveira, MAL Marques          : LibXC Library
   Liviu Ungur et al                             : ANISO software


 Your calculation uses the libint2 library for the computation of 2-el integrals
 For citations please refer to: http://libint.valeyev.net

 Your ORCA version has been built with support for libXC version: 5.1.0
 For citations please refer to: https://tddft.org/programs/libxc/

 This ORCA versions uses:
   CBLAS   interface :  Fast vector & matrix operations
   LAPACKE interface :  Fast linear algebra routines
   SCALAPACK package :  Parallel linear algebra routines
   Shared memory     :  Shared parallel matrices
   BLAS/LAPACK       :  OpenBLAS 0.3.15  USE64BITINT DYNAMIC_ARCH NO_AFFINITY Sandybridge SINGLE_THREADED
        Core in use  :  Sandybridge
   Copyright (c) 2011-2014, The OpenBLAS Project




***************************************
The coordinates will be read from file: pbe.xyz
***************************************


================================================================================

cite the ECPs for Au [Def2-ECP] as follows:
Ce-Yb(ecp-28): M. Dolg, H. Stoll, H.Preuss, J. Chem. Phys., 1989, 90, 1730-1734.
Y-Cd(ecp-28), Hf-Hg(ecp-46): D. Andrae,U. Haeussermann, M. Dolg, H. Stoll, H. Preuss, Theor. Chim. Acta, 1990, 77, 123-141.
In-Sb(ecp-28), Tl-Bi(ecp-46): B. Metz, H. Stoll, M. Dolg, J. Chem. Phys., 2000, 113, 2563-2569.
Te-Xe(ecp-28), Po-Rn(ecp-46): K. A. Peterson, D. Figgen, E. Goll, H. Stoll, M. Dolg, J. Chem. Phys., 2003, 119, 11113-11123.
Rb(ecp-28), Cs(ecp-46): T. Leininger, A. Nicklass, W. Kuechle, H. Stoll, M. Dolg, A. Bergner, Chem. Phys. Lett., 1996, 255, 274-280.
Sr(ecp-28), Ba(ecp-46): M. Kaupp, P. V. Schleyer, H. Stoll and H. Preuss, J. Chem. Phys., 1991, 94, 1360-1366.
La(ecp-46): M. Dolg, H. Stoll, A. Savin, H. Preuss, Theor. Chim. Acta, 1989, 75, 173-194.
Lu(ecp-28): X. Cao, M. Dolg, J. Chem. Phys., 2001, 115, 7348-7355.

ECP parameters for Au [Def2-ECP] have been obtained from:
TURBOMOLE (7.0.2)

----- Orbital basis set information -----
Your calculation utilizes the basis: def2-TZVP
   F. Weigend and R. Ahlrichs, Phys. Chem. Chem. Phys. 7, 3297 (2005).

----- AuxJ basis set information -----
Your calculation utilizes the auxiliary basis: def2/J
   F. Weigend, Phys. Chem. Chem. Phys. 8, 1057 (2006).

----- AuxC basis set information -----
Your calculation utilizes the auxiliary basis: def2-TZVP/C
  H-La, Hf-Rn : A. Hellweg, C. Hattig, S. Hofener and W. Klopper, Theor. Chem. Acc. 117, 587 (2007).
        Ce-Lu : J. Chmela and M. E. Harding, Mol. Phys. (2018).

================================================================================
                                        WARNINGS
                       Please study these warnings very carefully!
================================================================================


WARNING: your system is open-shell and RHF/RKS was chosen
  ===> : WILL SWITCH to UHF/UKS


WARNING: No MP2 level density has been requested!
         To caclulate MP2 level properties use
         %mp2 Density relaxed end
         or
         %mp2 Density unrelaxed end
         Otherwise for double-hybrid DFT only the energy is correct!

WARNING: The frozen-core approximation is turned on by default for 
         the MP2 part of double-hybrid DFT.

INFO   : the flag for use of the SHARK integral package has been found!



***************************************
The coordinates will be read from file: pbe.xyz
***************************************


================================================================================

cite the ECPs for Au [Def2-ECP] as follows:
Ce-Yb(ecp-28): M. Dolg, H. Stoll, H.Preuss, J. Chem. Phys., 1989, 90, 1730-1734.
Y-Cd(ecp-28), Hf-Hg(ecp-46): D. Andrae,U. Haeussermann, M. Dolg, H. Stoll, H. Preuss, Theor. Chim. Acta, 1990, 77, 123-141.
In-Sb(ecp-28), Tl-Bi(ecp-46): B. Metz, H. Stoll, M. Dolg, J. Chem. Phys., 2000, 113, 2563-2569.
Te-Xe(ecp-28), Po-Rn(ecp-46): K. A. Peterson, D. Figgen, E. Goll, H. Stoll, M. Dolg, J. Chem. Phys., 2003, 119, 11113-11123.
Rb(ecp-28), Cs(ecp-46): T. Leininger, A. Nicklass, W. Kuechle, H. Stoll, M. Dolg, A. Bergner, Chem. Phys. Lett., 1996, 255, 274-280.
Sr(ecp-28), Ba(ecp-46): M. Kaupp, P. V. Schleyer, H. Stoll and H. Preuss, J. Chem. Phys., 1991, 94, 1360-1366.
La(ecp-46): M. Dolg, H. Stoll, A. Savin, H. Preuss, Theor. Chim. Acta, 1989, 75, 173-194.
Lu(ecp-28): X. Cao, M. Dolg, J. Chem. Phys., 2001, 115, 7348-7355.

ECP parameters for Au [Def2-ECP] have been obtained from:
TURBOMOLE (7.0.2)

----- Orbital basis set information -----
Your calculation utilizes the basis: def2-TZVP
   F. Weigend and R. Ahlrichs, Phys. Chem. Chem. Phys. 7, 3297 (2005).

----- AuxJ basis set information -----
Your calculation utilizes the auxiliary basis: def2/J
   F. Weigend, Phys. Chem. Chem. Phys. 8, 1057 (2006).

----- AuxC basis set information -----
Your calculation utilizes the auxiliary basis: def2-TZVP/C
  H-La, Hf-Rn : A. Hellweg, C. Hattig, S. Hofener and W. Klopper, Theor. Chem. Acc. 117, 587 (2007).
        Ce-Lu : J. Chmela and M. E. Harding, Mol. Phys. (2018).

================================================================================
                                        WARNINGS
                       Please study these warnings very carefully!
================================================================================


WARNING: No MP2 level density has been requested!
         To caclulate MP2 level properties use
         %mp2 Density relaxed end
         or
         %mp2 Density unrelaxed end
         Otherwise for double-hybrid DFT only the energy is correct!

WARNING: The frozen-core approximation is turned on by default for 
         the MP2 part of double-hybrid DFT.

INFO   : the flag for use of the SHARK integral package has been found!

================================================================================
                                       INPUT FILE
================================================================================
NAME = b2plyp.inp
|  1> !RI-B2PLYP def2-TZVP def2-TZVP/C
|  2> !RIJCOSX VERYSLOWCONV
|  3> 
|  4> %scf
|  5>   AutoTRAHIter 200
|  6>   maxiter 400
|  7> end
|  8> 
|  9> 
| 10> %pal nprocs 6 end 
| 11> 
| 12> *xyzfile 0 6 pbe.xyz
| 13> 
| 14> $new_job
| 15> 
| 16> !RI-B2PLYP def2-TZVP def2-TZVP/C
| 17> !RIJCOSX VERYSLOWCONV
| 18> 
| 19> %scf
| 20>   AutoTRAHIter 200
| 21>   maxiter 400
| 22> end
| 23> 
| 24> 
| 25> %pal nprocs 6 end 
| 26> 
| 27> *xyzfile 0 4 pbe.xyz
| 28> 
| 29> 
| 30> 
| 31> 
| 32> 
| 33>                          ****END OF INPUT****
================================================================================


                 $$$$$$$$$$$$$$$$$$$$$$$$$$$$$$$$$$$$$$$$$$$$$$ 
                 $ THERE ARE  2 JOBS TO BE PROCESSED THIS RUN $
                 $$$$$$$$$$$$$$$$$$$$$$$$$$$$$$$$$$$$$$$$$$$$$$ 




                 $$$$$$$$$$$$$$$$  JOB NUMBER  1 $$$$$$$$$$$$$$


                       ****************************
                       * Single Point Calculation *
                       ****************************

---------------------------------
CARTESIAN COORDINATES (ANGSTROEM)
---------------------------------
  Au     7.417110    9.258081   11.010102
  Au     9.609528    7.826416   10.099715
  Au     6.890647    6.887966    9.812046
  Au     9.910898    7.518022    7.398954
  Au     7.879064    5.601272    7.585409
  Au     5.258956    6.269961    7.672617
  Au     6.363091   10.608970    8.504176
  Au     8.927729    9.988193    8.490614
  Au     8.259902    7.075855    5.213766
  Au     4.832975    8.916559   10.096035
  Au     4.333225    8.888456    7.409754
  Au     5.596092    7.692673    5.247413
  Mn     7.148356    8.276394    7.407525

----------------------------
CARTESIAN COORDINATES (A.U.)
----------------------------
  NO LB      ZA    FRAG     MASS         X           Y           Z
   0 Au   19.0000*   0   196.966   14.016306   17.495238   20.806077
   1 Au   19.0000*   0   196.966   18.159376   14.789782   19.085696
   2 Au   19.0000*   0   196.966   13.021435   13.016369   18.542080
   3 Au   19.0000*   0   196.966   18.728884   14.207003   13.981996
   4 Au   19.0000*   0   196.966   14.889272   10.584870   14.334345
   5 Au   19.0000*   0   196.966    9.937987   11.848509   14.499145
   6 Au   19.0000*   0   196.966   12.024500   20.048049   16.070563
   7 Au   19.0000*   0   196.966   16.870963   18.874949   16.044936
   8 Au   19.0000*   0   196.966   15.608953   13.371429    9.852590
   9 Au   19.0000*   0   196.966    9.132998   16.849855   19.078741
  10 Au   19.0000*   0   196.966    8.188608   16.796748   14.002405
  11 Au   19.0000*   0   196.966   10.575082   14.537044    9.916174
  12 Mn   25.0000    0    54.940   13.508434   15.640119   13.998194
* core charge reduced due to ECP

--------------------------------
INTERNAL COORDINATES (ANGSTROEM)
--------------------------------
 Au     0   0   0     0.000000000000     0.00000000     0.00000000
 Au     1   0   0     2.772213377502     0.00000000     0.00000000
 Au     1   2   0     2.707387891972    63.66399188     0.00000000
 Au     2   1   3     2.734966878548   118.01277149    67.25522854
 Au     3   1   2     2.755079795601   134.16445440   318.46515424
 Au     5   3   1     2.705496720641    60.73040614   241.52736105
 Au     1   2   3     3.035707977288   103.49242820   279.69418983
 Au     7   1   2     2.638733885896    64.02980836   334.59306199
 Au     4   2   1     2.774228761465   136.90464078   321.58935144
 Au     1   2   3     2.762229326942   124.56498450   338.84623622
 Au    10   1   2     2.732516664663   119.84708988   310.71128845
 Au     9   4   2     2.734498262397   122.28226789    22.16293508
 Mn     7   1   2     2.694474733963    81.34712016    36.16446904

---------------------------
INTERNAL COORDINATES (A.U.)
---------------------------
 Au     0   0   0     0.000000000000     0.00000000     0.00000000
 Au     1   0   0     5.238724068272     0.00000000     0.00000000
 Au     1   2   0     5.116221654122    63.66399188     0.00000000
 Au     2   1   3     5.168338385802   118.01277149    67.25522854
 Au     3   1   2     5.206346290785   134.16445440   318.46515424
 Au     5   3   1     5.112647858233    60.73040614   241.52736105
 Au     1   2   3     5.736656699635   103.49242820   279.69418983
 Au     7   1   2     4.986484384642    64.02980836   334.59306199
 Au     4   2   1     5.242532592016   136.90464078   321.58935144
 Au     1   2   3     5.219856947007   124.56498450   338.84623622
 Au    10   1   2     5.163708152589   119.84708988   310.71128845
 Au     9   4   2     5.167452829613   122.28226789    22.16293508
 Mn     7   1   2     5.091819321961    81.34712016    36.16446904

---------------------
BASIS SET INFORMATION
---------------------
There are 2 groups of distinct atoms

 Group   1 Type Au  : 8s7p6d1f contracted to 6s4p3d1f pattern {311111/4111/411/1}
 Group   2 Type Mn  : 17s11p7d1f contracted to 6s4p4d1f pattern {842111/6311/4111/1}

Atom   0Au   basis set group =>   1
Atom   1Au   basis set group =>   1
Atom   2Au   basis set group =>   1
Atom   3Au   basis set group =>   1
Atom   4Au   basis set group =>   1
Atom   5Au   basis set group =>   1
Atom   6Au   basis set group =>   1
Atom   7Au   basis set group =>   1
Atom   8Au   basis set group =>   1
Atom   9Au   basis set group =>   1
Atom  10Au   basis set group =>   1
Atom  11Au   basis set group =>   1
Atom  12Mn   basis set group =>   2
---------------------------------
AUXILIARY/J BASIS SET INFORMATION
---------------------------------
There are 2 groups of distinct atoms

 Group   1 Type Au  : 11s5p5d3f3g contracted to 8s5p5d2f3g pattern {41111111/11111/11111/21/111}
 Group   2 Type Mn  : 19s5p5d3f3g contracted to 8s5p5d2f3g pattern {121111111/11111/11111/21/111}

Atom   0Au   basis set group =>   1
Atom   1Au   basis set group =>   1
Atom   2Au   basis set group =>   1
Atom   3Au   basis set group =>   1
Atom   4Au   basis set group =>   1
Atom   5Au   basis set group =>   1
Atom   6Au   basis set group =>   1
Atom   7Au   basis set group =>   1
Atom   8Au   basis set group =>   1
Atom   9Au   basis set group =>   1
Atom  10Au   basis set group =>   1
Atom  11Au   basis set group =>   1
Atom  12Mn   basis set group =>   2
---------------------------------
AUXILIARY/C BASIS SET INFORMATION
---------------------------------
There are 2 groups of distinct atoms

 Group   1 Type Au  : 8s8p7d5f3g2h contracted to 8s8p7d5f3g2h pattern {11111111/11111111/1111111/11111/111/11}
 Group   2 Type Mn  : 11s9p8d6f5g2h contracted to 9s8p8d6f5g2h pattern {311111111/21111111/11111111/111111/11111/11}

Atom   0Au   basis set group =>   1
Atom   1Au   basis set group =>   1
Atom   2Au   basis set group =>   1
Atom   3Au   basis set group =>   1
Atom   4Au   basis set group =>   1
Atom   5Au   basis set group =>   1
Atom   6Au   basis set group =>   1
Atom   7Au   basis set group =>   1
Atom   8Au   basis set group =>   1
Atom   9Au   basis set group =>   1
Atom  10Au   basis set group =>   1
Atom  11Au   basis set group =>   1
Atom  12Mn   basis set group =>   2
-------------------------
ECP PARAMETER INFORMATION
-------------------------

 Group 1, Type Au ECP Def2-ECP (replacing 60 core electrons, lmax=3)

Atom   0Au   ECP group =>   1
Atom   1Au   ECP group =>   1
Atom   2Au   ECP group =>   1
Atom   3Au   ECP group =>   1
Atom   4Au   ECP group =>   1
Atom   5Au   ECP group =>   1
Atom   6Au   ECP group =>   1
Atom   7Au   ECP group =>   1
Atom   8Au   ECP group =>   1
Atom   9Au   ECP group =>   1
Atom  10Au   ECP group =>   1
Atom  11Au   ECP group =>   1



           ************************************************************
           *        Program running with 6 parallel MPI-processes     *
           *              working on a common directory               *
           ************************************************************
------------------------------------------------------------------------------
                           ORCA GTO INTEGRAL CALCULATION
                           -- RI-GTO INTEGRALS CHOSEN --
------------------------------------------------------------------------------
------------------------------------------------------------------------------
                   ___                                                        
                  /   \      - P O W E R E D   B Y -                         
                 /     \                                                     
                 |  |  |   _    _      __       _____    __    __             
                 |  |  |  | |  | |    /  \     |  _  \  |  |  /  |          
                  \  \/   | |  | |   /    \    | | | |  |  | /  /          
                 / \  \   | |__| |  /  /\  \   | |_| |  |  |/  /          
                |  |  |   |  __  | /  /__\  \  |    /   |      \           
                |  |  |   | |  | | |   __   |  |    \   |  |\   \          
                \     /   | |  | | |  |  |  |  | |\  \  |  | \   \       
                 \___/    |_|  |_| |__|  |__|  |_| \__\ |__|  \__/        
                                                                              
                      - O R C A' S   B I G   F R I E N D -                    
                                      &                                       
                       - I N T E G R A L  F E E D E R -                       
                                                                              
 v1 FN, 2020, v2 2021                                                         
------------------------------------------------------------------------------


Reading SHARK input file b2plyp.SHARKINP.tmp ... ok
----------------------
SHARK INTEGRAL PACKAGE
----------------------

Number of atoms                             ...     13
Number of basis functions                   ...    525
Number of shells                            ...    183
Maximum angular momentum                    ...      3
Integral batch strategy                     ... SHARK/LIBINT Hybrid
RI-J (if used) integral strategy            ... SPLIT-RIJ (Revised 2003 algorithm where possible)
Printlevel                                  ...      1
Contraction scheme used                     ... SEGMENTED contraction
Coulomb Range Separation                    ... NOT USED
Exchange Range Separation                   ... NOT USED
Finite Nucleus Model                        ... NOT USED
Auxiliary Coulomb fitting basis             ... AVAILABLE
   # of basis functions in Aux-J            ...   1157
   # of shells in Aux-J                     ...    299
   Maximum angular momentum in Aux-J        ...      4
Auxiliary J/K fitting basis                 ... NOT available
Auxiliary Correlation fitting basis         ... AVAILABLE
   # of basis functions in Aux-C            ...   1994
   # of shells in Aux-C                     ...    434
   Maximum angular momentum in Aux-C        ...      5
Auxiliary 'external' fitting basis          ... NOT available
Integral threshold                          ...     1.000000e-10
Primitive cut-off                           ...     1.000000e-11
Primitive pair pre-selection threshold      ...     1.000000e-11

Calculating pre-screening integrals         ... done (  0.2 sec) Dimension = 183
Organizing shell pair data                  ... done (  0.6 sec)
Shell pair information
Total number of shell pairs                 ...     16836
Shell pairs after pre-screening             ...     13633
Total number of primitive shell pairs       ...     45389
Primitive shell pairs kept                  ...     26695
          la=0 lb=0:   2137 shell pairs
          la=1 lb=0:   3091 shell pairs
          la=1 lb=1:   1177 shell pairs
          la=2 lb=0:   2699 shell pairs
          la=2 lb=1:   1910 shell pairs
          la=2 lb=2:    784 shell pairs
          la=3 lb=0:    720 shell pairs
          la=3 lb=1:    550 shell pairs
          la=3 lb=2:    486 shell pairs
          la=3 lb=3:     79 shell pairs

Calculating one electron integrals          ... done (  0.1 sec)
Calculating ECP integrals                   ... done ( 14.6 sec)
Calculating RI/J V-Matrix + Cholesky decomp.... done (  0.1 sec)
Calculating RI/C V-Matrix + Cholesky decomp.... done (  0.4 sec)
Calculating Nuclear repulsion               ... done (  0.0 sec) ENN=   4333.387265418807 Eh

SHARK setup successfully completed in  16.5 seconds

Maximum memory used throughout the entire GTOINT-calculation: 39.0 MB


           ************************************************************
           *        Program running with 6 parallel MPI-processes     *
           *              working on a common directory               *
           ************************************************************
-------------------------------------------------------------------------------
                                 ORCA SCF
-------------------------------------------------------------------------------

------------
SCF SETTINGS
------------
Hamiltonian:
 Density Functional     Method          .... DFT(GTOs)
 Exchange Functional    Exchange        .... B88
   X-Alpha parameter    XAlpha          ....  0.666667
   Becke's b parameter  XBeta           ....  0.004200
 Correlation Functional Correlation     .... LYP
 LDA part of GGA corr.  LDAOpt          .... VWN-3
 Gradients option       PostSCFGGA      .... off
 Hybrid DFT is turned on
   Fraction HF Exchange ScalHFX         ....  0.530000
   Scaling of DF-GGA-X  ScalDFX         ....  0.470000
   Scaling of DF-GGA-C  ScalDFC         ....  0.730000
   Scaling of DF-LDA-C  ScalLDAC        ....  0.730000
   Perturbative correction              ....  0.270000
   Density functional embedding theory  .... OFF
   NL short-range parameter             ....  7.800000
 RI-approximation to the Coulomb term is turned on
   Number of AuxJ basis functions       .... 1157
   RIJ-COSX (HFX calculated with COS-X)).... on


General Settings:
 Integral files         IntName         .... b2plyp
 Hartree-Fock type      HFTyp           .... UHF
 Total Charge           Charge          ....    0
 Multiplicity           Mult            ....    6
 Number of Electrons    NEL             ....  253
 Basis Dimension        Dim             ....  525
 Nuclear Repulsion      ENuc            ....   4333.3872654188 Eh

Convergence Acceleration:
 DIIS                   CNVDIIS         .... on
   Start iteration      DIISMaxIt       ....     0
   Startup error        DIISStart       ....  0.200000
   # of expansion vecs  DIISMaxEq       ....     5
   Bias factor          DIISBfac        ....   1.050
   Max. coefficient     DIISMaxC        ....  10.000
 Trust-Rad. Augm. Hess. CNVTRAH         .... auto
   Auto Start mean grad. ratio tolernc. ....  1.125000
   Auto Start start iteration           ....   200
   Auto Start num. interpolation iter.  ....    10
   Max. Number of Micro iterations      ....    16
   Max. Number of Macro iterations      .... Maxiter - #DIIS iter
   Number of Davidson start vectors     ....     2
   Converg. threshold I  (grad. norm)   ....   5.000e-05
   Converg. threshold II (energy diff.) ....   1.000e-06
   Grad. Scal. Fac. for Micro threshold ....   0.100
   Minimum threshold for Micro iter.    ....   0.010
   NR start threshold (gradient norm)   ....   0.001
   Initial trust radius                 ....   0.400
   Minimum AH scaling param. (alpha)    ....   1.000
   Maximum AH scaling param. (alpha)    .... 1000.000
   Orbital update algorithm             .... Taylor
   White noise on init. David. guess    .... on
   Maximum white noise                  ....   0.010
   Quad. conv. algorithm                .... NR
 SOSCF                  CNVSOSCF        .... off
 Level Shifting         CNVShift        .... on
   Level shift para.    LevelShift      ....    0.2500
   Turn off err/grad.   ShiftErr        ....    0.0000
 Zerner damping         CNVZerner       .... off
 Static damping         CNVDamp         .... on
   Fraction old density DampFac         ....    0.9200
   Max. Damping (<1)    DampMax         ....    0.9800
   Min. Damping (>=0)   DampMin         ....    0.0000
   Turn off err/grad.   DampErr         ....    0.0030
 Fernandez-Rico         CNVRico         .... off

SCF Procedure:
 Maximum # iterations   MaxIter         ....   400
 SCF integral mode      SCFMode         .... Direct
   Integral package                     .... SHARK and LIBINT hybrid scheme
 Reset frequency        DirectResetFreq ....    20
 Integral Threshold     Thresh          ....  1.000e-10 Eh
 Primitive CutOff       TCut            ....  1.000e-11 Eh

Convergence Tolerance:
 Convergence Check Mode ConvCheckMode   .... Total+1el-Energy
 Convergence forced     ConvForced      .... 0
 Energy Change          TolE            ....  1.000e-06 Eh
 1-El. energy change                    ....  1.000e-03 Eh
 DIIS Error             TolErr          ....  1.000e-06


Diagonalization of the overlap matrix:
Smallest eigenvalue                        ... 5.705e-04
Time for diagonalization                   ...    0.077 sec
Threshold for overlap eigenvalues          ... 1.000e-08
Number of eigenvalues below threshold      ... 0
Time for construction of square roots      ...    0.083 sec
Total time needed                          ...    0.162 sec

Time for model grid setup =    0.790 sec

------------------------------
INITIAL GUESS: MODEL POTENTIAL
------------------------------
Loading Hartree-Fock densities                     ... done
  calling /home/ehlert/src/miniconda3/envs/orca500/Programs/ORCA501/orca b2plyp_atom79.inp > b2plyp_atom79.out in order to generate an atomic fitting density for atom 0 (Au with ECP) on-the-fly... 
    atom 0 (Au), assumed electronic state with S=2: 1s2 2s2 2p6 3s2 3p6 4s2 3d10 4p6 5s2 4d10 5p6 6s1 4f14 5d10           ... done
Calculating cut-offs                               ... done
Initializing the effective Hamiltonian             ... done
Setting up the integral package (SHARK)            ... done
Starting the Coulomb interaction                   ... done (   0.7 sec)
Reading the grid                                   ... done
Mapping shells                                     ... done
Starting the XC term evaluation                    ... done (   0.8 sec)
  promolecular density results
     # of electrons  =    973.012950270
     EX              =  -4459.325868187
     EC              =    -19.752476210
     EX+EC           =  -4479.078344397
Transforming the Hamiltonian                       ... done (   0.1 sec)
Diagonalizing the Hamiltonian                      ... done (   0.1 sec)
Back transforming the eigenvectors                 ... done (   0.0 sec)
Now organizing SCF variables                       ... done
                      ------------------
                      INITIAL GUESS DONE (   3.6 sec)
                      ------------------
-------------------
DFT GRID GENERATION
-------------------

General Integration Accuracy     IntAcc      ... 4.388
Radial Grid Type                 RadialGrid  ... OptM3 with GC (2021)
Angular Grid (max. ang.)         AngularGrid ... 4 (Lebedev-302)
Angular grid pruning method      GridPruning ... 4 (adaptive)
Weight generation scheme         WeightScheme... Becke
Basis function cutoff            BFCut       ... 1.0000e-10
Integration weight cutoff        WCut        ... 1.0000e-14
Angular grids for H and He will be reduced by one unit
Partially contracted basis set               ... off
Rotationally invariant grid construction     ... off

Total number of grid points                  ...   144625
Total number of batches                      ...     2265
Average number of points per batch           ...       63
Average number of grid points per atom       ...    11125
Time for grid setup =    2.496 sec

--------------------
COSX GRID GENERATION
--------------------

GRIDX 1
-------
General Integration Accuracy     IntAcc      ... 3.816
Radial Grid Type                 RadialGrid  ... OptM3 with GC (2021)
Angular Grid (max. ang.)         AngularGrid ... 1 (Lebedev-50)
Angular grid pruning method      GridPruning ... 4 (adaptive)
Weight generation scheme         WeightScheme... Becke
Basis function cutoff            BFCut       ... 1.0000e-10
Integration weight cutoff        WCut        ... 1.0000e-14
Angular grids for H and He will be reduced by one unit
Partially contracted basis set               ... on
Rotationally invariant grid construction     ... off

Total number of grid points                  ...    15200
Total number of batches                      ...      245
Average number of points per batch           ...       62
Average number of grid points per atom       ...     1169
UseSFitting                                  ... on

GRIDX 2
-------
General Integration Accuracy     IntAcc      ... 4.020
Radial Grid Type                 RadialGrid  ... OptM3 with GC (2021)
Angular Grid (max. ang.)         AngularGrid ... 2 (Lebedev-110)
Angular grid pruning method      GridPruning ... 4 (adaptive)
Weight generation scheme         WeightScheme... Becke
Basis function cutoff            BFCut       ... 1.0000e-10
Integration weight cutoff        WCut        ... 1.0000e-14
Angular grids for H and He will be reduced by one unit
Partially contracted basis set               ... on
Rotationally invariant grid construction     ... off

Total number of grid points                  ...    46050
Total number of batches                      ...      726
Average number of points per batch           ...       63
Average number of grid points per atom       ...     3542
UseSFitting                                  ... on

GRIDX 3
-------
General Integration Accuracy     IntAcc      ... 4.338
Radial Grid Type                 RadialGrid  ... OptM3 with GC (2021)
Angular Grid (max. ang.)         AngularGrid ... 3 (Lebedev-194)
Angular grid pruning method      GridPruning ... 4 (adaptive)
Weight generation scheme         WeightScheme... Becke
Basis function cutoff            BFCut       ... 1.0000e-10
Integration weight cutoff        WCut        ... 1.0000e-14
Angular grids for H and He will be reduced by one unit
Partially contracted basis set               ... on
Rotationally invariant grid construction     ... off

Total number of grid points                  ...    84136
Total number of batches                      ...     1321
Average number of points per batch           ...       63
Average number of grid points per atom       ...     6472
UseSFitting                                  ... on

Time for X-Grid setup             =    2.396 sec

--------------
SCF ITERATIONS
--------------
ITER       Energy         Delta-E        Max-DP      RMS-DP      [F,P]     Damp
               ***  Starting incremental Fock matrix formation  ***
  0  -2774.1361985554   0.000000000000 0.07288289  0.00052154  0.2778374 0.9200
  1  -2774.5010221040  -0.364823548583 0.07032479  0.00049780  0.2533759 0.9200
                               ***Turning on DIIS***
  2  -2774.6663305782  -0.165308474173 0.05325675  0.00042801  0.2330072 0.9200
  3  -2774.6965044893  -0.030173911180 0.02653261  0.00025603  0.2142672 0.9200
  4  -2774.7664113591  -0.069906869714 0.02456455  0.00024148  0.1969569 0.9200
  5  -2774.8369493795  -0.070538020487 0.02309195  0.00022306  0.1810924 0.9200
  6  -2774.9001656217  -0.063216242198 0.02142307  0.00020554  0.1666634 0.9200
  7  -2774.9619807086  -0.061815086900 0.01923072  0.00019671  0.1534361 0.9200
  8  -2775.0233675822  -0.061386873554 0.01811273  0.00018570  0.1412021 0.9200
  9  -2775.0806117221  -0.057244139897 0.01695467  0.00017094  0.1299213 0.9200
 10  -2775.1354121523  -0.054800430235 0.01571786  0.00015919  0.1195102 0.9200
 11  -2775.1865105981  -0.051098445804 0.01447585  0.00014839  0.1099210 0.9200
 12  -2775.2349671407  -0.048456542550 0.01330870  0.00013907  0.1011193 0.9200
 13  -2775.2811702993  -0.046203158601 0.01228036  0.00013059  0.0930376 0.9200
 14  -2775.3246153345  -0.043445035244 0.01137448  0.00012165  0.0856063 0.9200
 15  -2775.3654415886  -0.040826254048 0.01050170  0.00011317  0.0787613 0.9200
 16  -2775.4037828249  -0.038341236290 0.00968019  0.00010528  0.0724552 0.9200
 17  -2775.4398530789  -0.036070254012 0.00891153  0.00009795  0.0666535 0.9200
 18  -2775.4738154362  -0.033962357373 0.00820440  0.00009113  0.0613205 0.9200
 19  -2775.5057144411  -0.031899004895 0.00757389  0.00008468  0.0564176 0.9200
               *** Restarting incremental Fock matrix formation ***
                                   *** Resetting DIIS ***
 20  -2775.5353973453  -0.029682904197 0.00687267  0.00007404  0.0519066 0.9200
 21  -2775.5637721185  -0.028374773192 0.00631018  0.00006757  0.0477419 0.9200
 22  -2775.5902480239  -0.026475905396 0.00581593  0.00006320  0.0439159 0.9200
 23  -2775.6148755048  -0.024627480836 0.00539997  0.00006006  0.0404098 0.9200
 24  -2775.6377512285  -0.022875723748 0.00504081  0.00005727  0.0371910 0.9200
 25  -2775.6589975891  -0.021246360624 0.00471370  0.00005412  0.0342280 0.9200
 26  -2775.6787620041  -0.019764415004 0.00439080  0.00005089  0.0314934 0.9200
 27  -2775.6971419695  -0.018379965352 0.00406977  0.00004767  0.0289726 0.9200
 28  -2775.7142290958  -0.017087126300 0.00376217  0.00004453  0.0266534 0.9200
 29  -2775.7301116117  -0.015882515897 0.00347760  0.00004154  0.0245216 0.9200
 30  -2775.7448715237  -0.014759911979 0.00321865  0.00003872  0.0225614 0.9200
 31  -2775.7585832211  -0.013711697428 0.00298094  0.00003607  0.0207579 0.9200
 32  -2775.7713146300  -0.012731408949 0.00276022  0.00003358  0.0190981 0.9200
 33  -2775.7831295724  -0.011814942344 0.00255445  0.00003125  0.0175707 0.9200
 34  -2775.7940886611  -0.010959088720 0.00236321  0.00002906  0.0161654 0.9200
 35  -2775.8042492110  -0.010160549905 0.00218634  0.00002703  0.0148727 0.9200
 36  -2775.8136651259  -0.009415914916 0.00202312  0.00002514  0.0136835 0.9200
 37  -2775.8223870027  -0.008721876817 0.00187242  0.00002338  0.0125893 0.9200
 38  -2775.8304624718  -0.008075469100 0.00173302  0.00002174  0.0115826 0.9200
 39  -2775.8379364074  -0.007473935520 0.00160377  0.00002033  0.0106563 0.9200
               *** Restarting incremental Fock matrix formation ***
                                   *** Resetting DIIS ***
 40  -2775.8448531242  -0.006916716874 0.00141287  0.00001685  0.0098042 0.9200
 41  -2775.8512753864  -0.006422262115 0.00129297  0.00001513  0.0090195 0.9200
 42  -2775.8572084699  -0.005933083535 0.00120201  0.00001428  0.0082982 0.9200
 43  -2775.8626843138  -0.005475843939 0.00112827  0.00001383  0.0076360 0.9200
 44  -2775.8677356551  -0.005051341273 0.00106271  0.00001345  0.0070273 0.9200
 45  -2775.8723945580  -0.004658902928 0.00099640  0.00001285  0.0064669 0.9200
 46  -2775.8766936112  -0.004299053163 0.00093120  0.00001220  0.0059500 0.9200
 47  -2775.8806607334  -0.003967122175 0.00086729  0.00001154  0.0054739 0.9200
 48  -2775.8843214914  -0.003660758056 0.00082181  0.00001089  0.0050357 0.9200
 49  -2775.8876994628  -0.003377971381 0.00078867  0.00001025  0.0046333 0.9200
 50  -2775.8908163657  -0.003116902903 0.00075286  0.00000963  0.0042637 0.9200
 51  -2775.8936921327  -0.002875767010 0.00071734  0.00000904  0.0039236 0.9200
 52  -2775.8963451112  -0.002652978507 0.00068322  0.00000848  0.0036107 0.9200
 53  -2775.8987922569  -0.002447145665 0.00065013  0.00000795  0.0033228 0.9200
 54  -2775.9010492606  -0.002257003679 0.00061780  0.00000746  0.0030579 0.9200
 55  -2775.9031306417  -0.002081381118 0.00733088  0.00008741  0.0028140 0.0000
 56  -2775.9274586791  -0.024328037381 0.00088805  0.00000755  0.0004428 0.0000
               *** Restarting incremental Fock matrix formation ***
                                   *** Resetting DIIS ***
 57  -2775.9275497535  -0.000091074465 0.00452710  0.00009092  0.0005117 0.0000
 58  -2775.9276817862  -0.000132032667 0.00190813  0.00003258  0.0001558 0.0000
 59  -2775.9277020229  -0.000020236665 0.00078283  0.00001159  0.0001149 0.0000
 60  -2775.9277067161  -0.000004693224 0.00036754  0.00000555  0.0000958 0.0000
 61  -2775.9277088296  -0.000002113489 0.00026914  0.00000327  0.0000605 0.0000
 62  -2775.9277099935  -0.000001163898 0.00029845  0.00000286  0.0000501 0.0000
 63  -2775.9277107004  -0.000000706891 0.00024413  0.00000245  0.0000434 0.0000
 64  -2775.9277112918  -0.000000591451 0.00021649  0.00000223  0.0000348 0.0000
 65  -2775.9277116607  -0.000000368880 0.00021506  0.00000220  0.0000310 0.0000
 66  -2775.9277120877  -0.000000426956 0.00018574  0.00000188  0.0000256 0.0000
 67  -2775.9277122456  -0.000000157997 0.00016522  0.00000174  0.0000221 0.0000
 68  -2775.9277125062  -0.000000260585 0.00013743  0.00000140  0.0000180 0.0000
 69  -2775.9277126781  -0.000000171870 0.00010871  0.00000118  0.0000142 0.0000
 70  -2775.9277129300  -0.000000251919 0.00008816  0.00000095  0.0000116 0.0000
                 **** Energy Check signals convergence ****

               *****************************************************
               *                     SUCCESS                       *
               *           SCF CONVERGED AFTER  71 CYCLES          *
               *****************************************************

Old exchange energy                            =   -102.902618305 Eh
New exchange energy                            =   -102.902566499 Eh
Exchange energy change after final integration =      0.000051806 Eh
Total energy after final integration           =  -2775.927661125 Eh
Final COS-X integration done in                =    23.290 sec

----------------
TOTAL SCF ENERGY
----------------

Total Energy       :        -2775.92766113 Eh          -75536.83188 eV

Components:
Nuclear Repulsion  :         4333.38726542 Eh          117917.46230 eV
Electronic Energy  :        -7109.31492654 Eh         -193454.29418 eV
One Electron Energy:       -13111.81257018 Eh         -356790.55892 eV
Two Electron Energy:         6002.49764364 Eh          163336.26474 eV
Max COSX asymmetry :            0.00000604 Eh               0.00016 eV

Virial components:
Potential Energy   :        -4476.96466335 Eh         -121824.40192 eV
Kinetic Energy     :         1701.03700223 Eh           46287.57005 eV
Virial Ratio       :            2.63190316


DFT components:
N(Alpha)           :      129.000006016135 electrons
N(Beta)            :      124.000010430166 electrons
N(Total)           :      253.000016446301 electrons
E(X)               :      -92.656225154154 Eh       
E(C)               :       -6.967736264916 Eh       
E(XC)              :      -99.623961419070 Eh       
DFET-embed. en.    :        0.000000000000 Eh       

---------------
SCF CONVERGENCE
---------------

  Last Energy change         ...   -9.4815e-10  Tolerance :   1.0000e-06
  Last MAX-Density change    ...    0.0000e+00  Tolerance :   1.0000e-05
  Last RMS-Density change    ...    0.0000e+00  Tolerance :   1.0000e-06
  Last DIIS Error            ...    8.6026e-06  Tolerance :   1.0000e-06

             **** THE GBW FILE WAS UPDATED (b2plyp.gbw) ****
             **** DENSITY b2plyp.scfp WAS UPDATED ****
             **** ENERGY FILE WAS UPDATED (b2plyp.en.tmp) ****
----------------------
UHF SPIN CONTAMINATION
----------------------

Warning: in a DFT calculation there is little theoretical justification to 
         calculate <S**2> as in Hartree-Fock theory. We will do it anyways
         but you should keep in mind that the values have only limited relevance

Expectation value of <S**2>     :     8.782184
Ideal value S*(S+1) for S=2.5   :     8.750000
Deviation                       :     0.032184

             **** THE GBW FILE WAS UPDATED (b2plyp.gbw) ****
             **** DENSITY b2plyp.scfp WAS UPDATED ****
----------------
ORBITAL ENERGIES
----------------
                 SPIN UP ORBITALS
  NO   OCC          E(Eh)            E(eV) 
   0   1.0000    -237.629916     -6466.2388 
   1   1.0000     -28.131896      -765.5078 
   2   1.0000     -24.050399      -654.4446 
   3   1.0000     -24.049492      -654.4199 
   4   1.0000     -24.048834      -654.4020 
   5   1.0000      -4.412044      -120.0578 
   6   1.0000      -4.407345      -119.9299 
   7   1.0000      -4.406912      -119.9182 
   8   1.0000      -4.399094      -119.7054 
   9   1.0000      -4.398682      -119.6942 
  10   1.0000      -4.395711      -119.6134 
  11   1.0000      -4.395159      -119.5984 
  12   1.0000      -4.392232      -119.5187 
  13   1.0000      -4.391826      -119.5077 
  14   1.0000      -4.388574      -119.4192 
  15   1.0000      -4.387610      -119.3929 
  16   1.0000      -4.387438      -119.3883 
  17   1.0000      -3.611556       -98.2754 
  18   1.0000      -2.533624       -68.9434 
  19   1.0000      -2.529458       -68.8300 
  20   1.0000      -2.528586       -68.8063 
  21   1.0000      -2.528372       -68.8005 
  22   1.0000      -2.525978       -68.7354 
  23   1.0000      -2.525541       -68.7235 
  24   1.0000      -2.523418       -68.6657 
  25   1.0000      -2.522447       -68.6393 
  26   1.0000      -2.521944       -68.6256 
  27   1.0000      -2.520979       -68.5993 
  28   1.0000      -2.518004       -68.5184 
  29   1.0000      -2.517638       -68.5084 
  30   1.0000      -2.514660       -68.4274 
  31   1.0000      -2.514418       -68.4208 
  32   1.0000      -2.513969       -68.4086 
  33   1.0000      -2.513838       -68.4050 
  34   1.0000      -2.513110       -68.3852 
  35   1.0000      -2.512684       -68.3736 
  36   1.0000      -2.512442       -68.3670 
  37   1.0000      -2.511938       -68.3533 
  38   1.0000      -2.510484       -68.3137 
  39   1.0000      -2.510419       -68.3120 
  40   1.0000      -2.509774       -68.2944 
  41   1.0000      -2.509305       -68.2817 
  42   1.0000      -2.508800       -68.2679 
  43   1.0000      -2.508089       -68.2486 
  44   1.0000      -2.506297       -68.1998 
  45   1.0000      -2.505910       -68.1893 
  46   1.0000      -2.505131       -68.1681 
  47   1.0000      -2.504768       -68.1582 
  48   1.0000      -2.504502       -68.1510 
  49   1.0000      -2.504299       -68.1454 
  50   1.0000      -2.503282       -68.1178 
  51   1.0000      -2.503060       -68.1117 
  52   1.0000      -2.502586       -68.0988 
  53   1.0000      -2.502141       -68.0867 
  54   1.0000      -2.414229       -65.6945 
  55   1.0000      -2.412874       -65.6577 
  56   1.0000      -2.412450       -65.6461 
  57   1.0000      -0.519750       -14.1431 
  58   1.0000      -0.518118       -14.0987 
  59   1.0000      -0.517149       -14.0723 
  60   1.0000      -0.513828       -13.9820 
  61   1.0000      -0.508580       -13.8392 
  62   1.0000      -0.498410       -13.5624 
  63   1.0000      -0.472278       -12.8513 
  64   1.0000      -0.462189       -12.5768 
  65   1.0000      -0.460208       -12.5229 
  66   1.0000      -0.457529       -12.4500 
  67   1.0000      -0.456808       -12.4304 
  68   1.0000      -0.451764       -12.2931 
  69   1.0000      -0.449477       -12.2309 
  70   1.0000      -0.448734       -12.2107 
  71   1.0000      -0.446062       -12.1380 
  72   1.0000      -0.442730       -12.0473 
  73   1.0000      -0.442231       -12.0337 
  74   1.0000      -0.441897       -12.0246 
  75   1.0000      -0.438552       -11.9336 
  76   1.0000      -0.437768       -11.9123 
  77   1.0000      -0.435419       -11.8484 
  78   1.0000      -0.431700       -11.7471 
  79   1.0000      -0.429392       -11.6844 
  80   1.0000      -0.425286       -11.5726 
  81   1.0000      -0.424152       -11.5418 
  82   1.0000      -0.423464       -11.5230 
  83   1.0000      -0.420674       -11.4471 
  84   1.0000      -0.419667       -11.4197 
  85   1.0000      -0.416342       -11.3293 
  86   1.0000      -0.412126       -11.2145 
  87   1.0000      -0.408706       -11.1214 
  88   1.0000      -0.404678       -11.0119 
  89   1.0000      -0.401529       -10.9262 
  90   1.0000      -0.398004       -10.8302 
  91   1.0000      -0.392589       -10.6829 
  92   1.0000      -0.392039       -10.6679 
  93   1.0000      -0.389312       -10.5937 
  94   1.0000      -0.385682       -10.4949 
  95   1.0000      -0.385244       -10.4830 
  96   1.0000      -0.378918       -10.3109 
  97   1.0000      -0.377428       -10.2703 
  98   1.0000      -0.374962       -10.2032 
  99   1.0000      -0.373539       -10.1645 
 100   1.0000      -0.372417       -10.1340 
 101   1.0000      -0.370519       -10.0823 
 102   1.0000      -0.368198       -10.0192 
 103   1.0000      -0.365382        -9.9425 
 104   1.0000      -0.364285        -9.9127 
 105   1.0000      -0.362825        -9.8730 
 106   1.0000      -0.360608        -9.8126 
 107   1.0000      -0.360177        -9.8009 
 108   1.0000      -0.359573        -9.7845 
 109   1.0000      -0.355451        -9.6723 
 110   1.0000      -0.353623        -9.6226 
 111   1.0000      -0.352799        -9.6001 
 112   1.0000      -0.349732        -9.5167 
 113   1.0000      -0.346856        -9.4384 
 114   1.0000      -0.345030        -9.3888 
 115   1.0000      -0.343798        -9.3552 
 116   1.0000      -0.342727        -9.3261 
 117   1.0000      -0.342059        -9.3079 
 118   1.0000      -0.340523        -9.2661 
 119   1.0000      -0.337496        -9.1837 
 120   1.0000      -0.330778        -9.0009 
 121   1.0000      -0.326198        -8.8763 
 122   1.0000      -0.320875        -8.7315 
 123   1.0000      -0.316443        -8.6109 
 124   1.0000      -0.312144        -8.4939 
 125   1.0000      -0.277053        -7.5390 
 126   1.0000      -0.230666        -6.2767 
 127   1.0000      -0.224622        -6.1123 
 128   1.0000      -0.214121        -5.8265 
 129   0.0000      -0.104219        -2.8359 
 130   0.0000      -0.093961        -2.5568 
 131   0.0000      -0.067067        -1.8250 
 132   0.0000      -0.058477        -1.5912 
 133   0.0000      -0.055553        -1.5117 
 134   0.0000      -0.039897        -1.0857 
 135   0.0000      -0.026454        -0.7199 
 136   0.0000      -0.012384        -0.3370 
 137   0.0000      -0.011117        -0.3025 
 138   0.0000      -0.000337        -0.0092 
 139   0.0000       0.010702         0.2912 
 140   0.0000       0.031492         0.8570 
 141   0.0000       0.036899         1.0041 
 142   0.0000       0.044435         1.2091 
 143   0.0000       0.045962         1.2507 
 144   0.0000       0.049039         1.3344 
 145   0.0000       0.053225         1.4483 
 146   0.0000       0.058042         1.5794 
 147   0.0000       0.069761         1.8983 
 148   0.0000       0.080632         2.1941 
 149   0.0000       0.087823         2.3898 
 150   0.0000       0.090181         2.4539 
 151   0.0000       0.094246         2.5646 
 152   0.0000       0.100424         2.7327 
 153   0.0000       0.104063         2.8317 
 154   0.0000       0.108695         2.9577 
 155   0.0000       0.110712         3.0126 
 156   0.0000       0.113930         3.1002 
 157   0.0000       0.114805         3.1240 
 158   0.0000       0.116644         3.1740 
 159   0.0000       0.122032         3.3207 
 160   0.0000       0.134287         3.6541 
 161   0.0000       0.136462         3.7133 
 162   0.0000       0.139418         3.7938 
 163   0.0000       0.142541         3.8787 
 164   0.0000       0.162197         4.4136 
 165   0.0000       0.165418         4.5013 
 166   0.0000       0.173473         4.7204 
 167   0.0000       0.174655         4.7526 
 168   0.0000       0.176143         4.7931 
 169   0.0000       0.195552         5.3212 
 170   0.0000       0.199277         5.4226 
 171   0.0000       0.200270         5.4496 
 172   0.0000       0.207403         5.6437 
 173   0.0000       0.216114         5.8808 
 174   0.0000       0.221096         6.0163 
 175   0.0000       0.224588         6.1113 
 176   0.0000       0.229465         6.2441 
 177   0.0000       0.234532         6.3819 
 178   0.0000       0.239794         6.5251 
 179   0.0000       0.247719         6.7408 
 180   0.0000       0.278121         7.5681 
 181   0.0000       0.280461         7.6317 
 182   0.0000       0.297843         8.1047 
 183   0.0000       0.306830         8.3493 
 184   0.0000       0.309908         8.4330 
 185   0.0000       0.310909         8.4603 
 186   0.0000       0.316323         8.6076 
 187   0.0000       0.323951         8.8151 
 188   0.0000       0.324053         8.8179 
 189   0.0000       0.329460         8.9651 
 190   0.0000       0.336606         9.1595 
 191   0.0000       0.339967         9.2510 
 192   0.0000       0.345669         9.4061 
 193   0.0000       0.347808         9.4643 
 194   0.0000       0.349686         9.5154 
 195   0.0000       0.364249         9.9117 
 196   0.0000       0.368865        10.0373 
 197   0.0000       0.372166        10.1271 
 198   0.0000       0.374518        10.1911 
 199   0.0000       0.380297        10.3484 
 200   0.0000       0.388973        10.5845 
 201   0.0000       0.392005        10.6670 
 202   0.0000       0.394901        10.7458 
 203   0.0000       0.409525        11.1437 
 204   0.0000       0.414581        11.2813 
 205   0.0000       0.418441        11.3864 
 206   0.0000       0.420353        11.4384 
 207   0.0000       0.423327        11.5193 
 208   0.0000       0.426967        11.6183 
 209   0.0000       0.437437        11.9033 
 210   0.0000       0.439719        11.9654 
 211   0.0000       0.442922        12.0525 
 212   0.0000       0.445978        12.1357 
 213   0.0000       0.452749        12.3199 
 214   0.0000       0.455139        12.3850 
 215   0.0000       0.457460        12.4481 
 216   0.0000       0.461653        12.5622 
 217   0.0000       0.466411        12.6917 
 218   0.0000       0.472931        12.8691 
 219   0.0000       0.480625        13.0785 
 220   0.0000       0.490119        13.3368 
 221   0.0000       0.494294        13.4504 
 222   0.0000       0.501417        13.6442 
 223   0.0000       0.502962        13.6863 
 224   0.0000       0.509314        13.8591 
 225   0.0000       0.517623        14.0853 
 226   0.0000       0.527968        14.3667 
 227   0.0000       0.533186        14.5087 
 228   0.0000       0.540582        14.7100 
 229   0.0000       0.542696        14.7675 
 230   0.0000       0.549193        14.9443 
 231   0.0000       0.551589        15.0095 
 232   0.0000       0.562493        15.3062 
 233   0.0000       0.563809        15.3420 
 234   0.0000       0.566484        15.4148 
 235   0.0000       0.571299        15.5458 
 236   0.0000       0.574686        15.6380 
 237   0.0000       0.575747        15.6669 
 238   0.0000       0.581944        15.8355 
 239   0.0000       0.587641        15.9905 
 240   0.0000       0.595313        16.1993 
 241   0.0000       0.601568        16.3695 
 242   0.0000       0.606089        16.4925 
 243   0.0000       0.609945        16.5974 
 244   0.0000       0.613146        16.6846 
 245   0.0000       0.613984        16.7074 
 246   0.0000       0.616080        16.7644 
 247   0.0000       0.628701        17.1078 
 248   0.0000       0.635999        17.3064 
 249   0.0000       0.638992        17.3878 
 250   0.0000       0.645440        17.5633 
 251   0.0000       0.671667        18.2770 
 252   0.0000       0.725983        19.7550 
 253   0.0000       0.753545        20.5050 
 254   0.0000       0.790581        21.5128 
 255   0.0000       0.797350        21.6970 
 256   0.0000       0.826251        22.4834 
 257   0.0000       0.833547        22.6820 
 258   0.0000       0.834855        22.7176 
 259   0.0000       0.838998        22.8303 
 260   0.0000       0.846879        23.0447 
 261   0.0000       0.864089        23.5131 
 262   0.0000       0.866244        23.5717 
 263   0.0000       0.882969        24.0268 
 264   0.0000       0.895874        24.3780 
 265   0.0000       0.900400        24.5011 
 266   0.0000       0.912138        24.8205 
 267   0.0000       0.920359        25.0442 
 268   0.0000       0.933229        25.3945 
 269   0.0000       0.937454        25.5094 
 270   0.0000       0.944434        25.6994 
 271   0.0000       0.954469        25.9724 
 272   0.0000       0.955731        26.0068 
 273   0.0000       0.964927        26.2570 
 274   0.0000       0.976341        26.5676 
 275   0.0000       0.981231        26.7006 
 276   0.0000       0.987296        26.8657 
 277   0.0000       0.995600        27.0916 
 278   0.0000       1.007558        27.4170 
 279   0.0000       1.015307        27.6279 
 280   0.0000       1.018357        27.7109 
 281   0.0000       1.041493        28.3405 
 282   0.0000       1.044212        28.4145 
 283   0.0000       1.051953        28.6251 
 284   0.0000       1.072908        29.1953 
 285   0.0000       1.077335        29.3158 
 286   0.0000       1.094839        29.7921 
 287   0.0000       1.136388        30.9227 
 288   0.0000       1.148512        31.2526 
 289   0.0000       1.169469        31.8229 
 290   0.0000       1.183378        32.2013 
 291   0.0000       1.234020        33.5794 
 292   0.0000       1.309876        35.6435 
 293   0.0000       1.382452        37.6184 
 294   0.0000       1.407025        38.2871 
 295   0.0000       1.416004        38.5314 
 296   0.0000       1.417874        38.5823 
 297   0.0000       1.428567        38.8733 
 298   0.0000       1.435750        39.0687 
 299   0.0000       1.465785        39.8860 
 300   0.0000       1.475177        40.1416 
 301   0.0000       1.493974        40.6531 
 302   0.0000       1.496688        40.7270 
 303   0.0000       1.500087        40.8194 
 304   0.0000       1.506266        40.9876 
 305   0.0000       1.507741        41.0277 
 306   0.0000       1.515113        41.2283 
 307   0.0000       1.518621        41.3238 
 308   0.0000       1.526880        41.5485 
 309   0.0000       1.544398        42.0252 
 310   0.0000       1.547068        42.0979 
 311   0.0000       1.567603        42.6567 
 312   0.0000       1.577565        42.9277 
 313   0.0000       1.579053        42.9682 
 314   0.0000       1.586488        43.1705 
 315   0.0000       1.591906        43.3180 
 316   0.0000       1.596879        43.4533 
 317   0.0000       1.597289        43.4644 
 318   0.0000       1.600088        43.5406 
 319   0.0000       1.604932        43.6724 
 320   0.0000       1.608875        43.7797 
 321   0.0000       1.617477        44.0138 
 322   0.0000       1.618506        44.0418 
 323   0.0000       1.619878        44.0791 
 324   0.0000       1.626968        44.2720 
 325   0.0000       1.632923        44.4341 
 326   0.0000       1.635147        44.4946 
 327   0.0000       1.640224        44.6328 
 328   0.0000       1.650054        44.9003 
 329   0.0000       1.652544        44.9680 
 330   0.0000       1.655816        45.0571 
 331   0.0000       1.659359        45.1534 
 332   0.0000       1.661701        45.2172 
 333   0.0000       1.664528        45.2941 
 334   0.0000       1.667791        45.3829 
 335   0.0000       1.671131        45.4738 
 336   0.0000       1.672932        45.5228 
 337   0.0000       1.675670        45.5973 
 338   0.0000       1.677639        45.6509 
 339   0.0000       1.682337        45.7787 
 340   0.0000       1.683214        45.8026 
 341   0.0000       1.685264        45.8584 
 342   0.0000       1.687254        45.9125 
 343   0.0000       1.687826        45.9281 
 344   0.0000       1.690047        45.9885 
 345   0.0000       1.690644        46.0048 
 346   0.0000       1.692318        46.0503 
 347   0.0000       1.693985        46.0957 
 348   0.0000       1.694938        46.1216 
 349   0.0000       1.696544        46.1653 
 350   0.0000       1.697419        46.1891 
 351   0.0000       1.697734        46.1977 
 352   0.0000       1.699805        46.2540 
 353   0.0000       1.702289        46.3216 
 354   0.0000       1.704519        46.3823 
 355   0.0000       1.706230        46.4289 
 356   0.0000       1.708411        46.4882 
 357   0.0000       1.710364        46.5414 
 358   0.0000       1.711744        46.5789 
 359   0.0000       1.713741        46.6333 
 360   0.0000       1.714745        46.6606 
 361   0.0000       1.716507        46.7085 
 362   0.0000       1.716995        46.7218 
 363   0.0000       1.719163        46.7808 
 364   0.0000       1.720771        46.8246 
 365   0.0000       1.721510        46.8447 
 366   0.0000       1.724564        46.9278 
 367   0.0000       1.727686        47.0127 
 368   0.0000       1.730042        47.0768 
 369   0.0000       1.730497        47.0892 
 370   0.0000       1.732650        47.1478 
 371   0.0000       1.733731        47.1772 
 372   0.0000       1.737199        47.2716 
 373   0.0000       1.738905        47.3180 
 374   0.0000       1.742118        47.4054 
 375   0.0000       1.742987        47.4291 
 376   0.0000       1.744448        47.4688 
 377   0.0000       1.747642        47.5557 
 378   0.0000       1.748107        47.5684 
 379   0.0000       1.752512        47.6883 
 380   0.0000       1.753572        47.7171 
 381   0.0000       1.756597        47.7994 
 382   0.0000       1.757303        47.8186 
 383   0.0000       1.758791        47.8591 
 384   0.0000       1.762633        47.9637 
 385   0.0000       1.764340        48.0101 
 386   0.0000       1.768480        48.1228 
 387   0.0000       1.769665        48.1550 
 388   0.0000       1.770609        48.1807 
 389   0.0000       1.772310        48.2270 
 390   0.0000       1.776608        48.3440 
 391   0.0000       1.778120        48.3851 
 392   0.0000       1.779848        48.4321 
 393   0.0000       1.782154        48.4949 
 394   0.0000       1.784261        48.5522 
 395   0.0000       1.788193        48.6592 
 396   0.0000       1.789107        48.6841 
 397   0.0000       1.796153        48.8758 
 398   0.0000       1.797980        48.9255 
 399   0.0000       1.800447        48.9927 
 400   0.0000       1.801460        49.0202 
 401   0.0000       1.804137        49.0931 
 402   0.0000       1.806100        49.1465 
 403   0.0000       1.810067        49.2544 
 404   0.0000       1.814258        49.3685 
 405   0.0000       1.819942        49.5231 
 406   0.0000       1.822214        49.5850 
 407   0.0000       1.832801        49.8731 
 408   0.0000       1.841454        50.1085 
 409   0.0000       1.846884        50.2563 
 410   0.0000       1.859044        50.5872 
 411   0.0000       1.860415        50.6245 
 412   0.0000       1.866860        50.7998 
 413   0.0000       1.872818        50.9620 
 414   0.0000       1.886893        51.3450 
 415   0.0000       1.893877        51.5350 
 416   0.0000       1.896553        51.6078 
 417   0.0000       1.926492        52.4225 
 418   0.0000       1.941060        52.8189 
 419   0.0000       1.947567        52.9960 
 420   0.0000       1.958870        53.3036 
 421   0.0000       1.972992        53.6878 
 422   0.0000       1.983674        53.9785 
 423   0.0000       1.994312        54.2680 
 424   0.0000       1.998257        54.3753 
 425   0.0000       2.017016        54.8858 
 426   0.0000       2.034906        55.3726 
 427   0.0000       2.039886        55.5081 
 428   0.0000       2.045059        55.6489 
 429   0.0000       2.053005        55.8651 
 430   0.0000       2.072864        56.4055 
 431   0.0000       2.078833        56.5679 
 432   0.0000       2.092829        56.9488 
 433   0.0000       2.104175        57.2575 
 434   0.0000       2.111053        57.4447 
 435   0.0000       2.143542        58.3288 
 436   0.0000       2.153357        58.5958 
 437   0.0000       2.305868        62.7459 
 438   0.0000       2.383499        64.8583 
 439   0.0000       2.469795        67.2065 
 440   0.0000       2.481606        67.5279 
 441   0.0000       2.528404        68.8014 
 442   0.0000       2.544635        69.2430 
 443   0.0000       2.606510        70.9267 
 444   0.0000       2.622054        71.3497 
 445   0.0000       2.634656        71.6926 
 446   0.0000       2.666317        72.5542 
 447   0.0000       2.713591        73.8406 
 448   0.0000       2.722080        74.0716 
 449   0.0000       2.731605        74.3308 
 450   0.0000       2.751282        74.8662 
 451   0.0000       2.787625        75.8551 
 452   0.0000       3.192281        86.8664 
 453   0.0000       3.430445        93.3472 
 454   0.0000       3.437597        93.5418 
 455   0.0000       3.438574        93.5684 
 456   0.0000       3.452287        93.9415 
 457   0.0000       3.452577        93.9494 
 458   0.0000       3.459244        94.1308 
 459   0.0000       3.464995        94.2873 
 460   0.0000       3.517758        95.7231 
 461   0.0000       3.617048        98.4249 
 462   0.0000       3.629409        98.7612 
 463   0.0000       3.636675        98.9590 
 464   0.0000       3.777135       102.7811 
 465   0.0000      23.782547       647.1560 
 466   0.0000      23.963482       652.0795 
 467   0.0000      24.108112       656.0151 
 468   0.0000      24.147881       657.0972 
 469   0.0000      24.459239       665.5697 
 470   0.0000      24.575297       668.7278 
 471   0.0000      24.789279       674.5506 
 472   0.0000      24.866137       676.6420 
 473   0.0000      25.191749       685.5023 
 474   0.0000      25.312897       688.7989 
 475   0.0000      25.375057       690.4904 
 476   0.0000      25.470271       693.0813 
 477   0.0000      25.559764       695.5165 
 478   0.0000      25.626042       697.3201 
 479   0.0000      25.671632       698.5606 
 480   0.0000      25.726020       700.0406 
 481   0.0000      25.877955       704.1750 
 482   0.0000      26.004623       707.6218 
 483   0.0000      26.171671       712.1674 
 484   0.0000      26.300869       715.6830 
 485   0.0000      26.398841       718.3490 
 486   0.0000      26.576016       723.1702 
 487   0.0000      26.663850       725.5602 
 488   0.0000      26.688161       726.2218 
 489   0.0000      26.861616       730.9417 
 490   0.0000      27.130150       738.2489 
 491   0.0000      27.191613       739.9214 
 492   0.0000      27.310255       743.1498 
 493   0.0000      27.374135       744.8881 
 494   0.0000      27.556305       749.8452 
 495   0.0000      27.682746       753.2858 
 496   0.0000      27.694613       753.6087 
 497   0.0000      27.775844       755.8191 
 498   0.0000      28.003381       762.0107 
 499   0.0000      28.132979       765.5373 
 500   0.0000      28.964120       788.1538 
 501   0.0000      44.123143      1200.6518 
 502   0.0000      44.209581      1203.0039 
 503   0.0000      44.227240      1203.4844 
 504   0.0000      44.279334      1204.9019 
 505   0.0000      44.290048      1205.1935 
 506   0.0000      44.308344      1205.6913 
 507   0.0000      44.330267      1206.2879 
 508   0.0000      44.355622      1206.9778 
 509   0.0000      44.364110      1207.2088 
 510   0.0000      44.378224      1207.5929 
 511   0.0000      44.418195      1208.6805 
 512   0.0000      44.441656      1209.3189 
 513   0.0000     202.680269      5515.2105 
 514   0.0000     202.715112      5516.1586 
 515   0.0000     202.720163      5516.2961 
 516   0.0000     202.740323      5516.8446 
 517   0.0000     202.750188      5517.1131 
 518   0.0000     202.753562      5517.2049 
 519   0.0000     202.767613      5517.5873 
 520   0.0000     202.776270      5517.8228 
 521   0.0000     202.779698      5517.9161 
 522   0.0000     202.786394      5518.0983 
 523   0.0000     202.796686      5518.3784 
 524   0.0000     202.805679      5518.6231 

                 SPIN DOWN ORBITALS
  NO   OCC          E(Eh)            E(eV) 
   0   1.0000    -237.627815     -6466.1816 
   1   1.0000     -28.029928      -762.7331 
   2   1.0000     -23.956527      -651.8902 
   3   1.0000     -23.955859      -651.8721 
   4   1.0000     -23.955478      -651.8617 
   5   1.0000      -4.410877      -120.0261 
   6   1.0000      -4.406694      -119.9123 
   7   1.0000      -4.406292      -119.9013 
   8   1.0000      -4.397895      -119.6728 
   9   1.0000      -4.397476      -119.6614 
  10   1.0000      -4.394922      -119.5919 
  11   1.0000      -4.394320      -119.5755 
  12   1.0000      -4.391202      -119.4907 
  13   1.0000      -4.390761      -119.4787 
  14   1.0000      -4.388477      -119.4165 
  15   1.0000      -4.387407      -119.3874 
  16   1.0000      -4.387229      -119.3826 
  17   1.0000      -3.324725       -90.4704 
  18   1.0000      -2.532179       -68.9041 
  19   1.0000      -2.527691       -68.7820 
  20   1.0000      -2.527490       -68.7765 
  21   1.0000      -2.527194       -68.7684 
  22   1.0000      -2.524786       -68.7029 
  23   1.0000      -2.524498       -68.6951 
  24   1.0000      -2.522669       -68.6453 
  25   1.0000      -2.521811       -68.6220 
  26   1.0000      -2.520398       -68.5835 
  27   1.0000      -2.520386       -68.5832 
  28   1.0000      -2.515987       -68.4635 
  29   1.0000      -2.515609       -68.4532 
  30   1.0000      -2.513699       -68.4012 
  31   1.0000      -2.513416       -68.3935 
  32   1.0000      -2.512565       -68.3704 
  33   1.0000      -2.512502       -68.3686 
  34   1.0000      -2.511876       -68.3516 
  35   1.0000      -2.511515       -68.3418 
  36   1.0000      -2.510873       -68.3243 
  37   1.0000      -2.510630       -68.3177 
  38   1.0000      -2.509632       -68.2906 
  39   1.0000      -2.509012       -68.2737 
  40   1.0000      -2.508880       -68.2701 
  41   1.0000      -2.508404       -68.2571 
  42   1.0000      -2.508295       -68.2542 
  43   1.0000      -2.507981       -68.2456 
  44   1.0000      -2.505200       -68.1699 
  45   1.0000      -2.504903       -68.1619 
  46   1.0000      -2.504528       -68.1517 
  47   1.0000      -2.504516       -68.1513 
  48   1.0000      -2.504248       -68.1440 
  49   1.0000      -2.503884       -68.1341 
  50   1.0000      -2.503193       -68.1154 
  51   1.0000      -2.502964       -68.1091 
  52   1.0000      -2.502466       -68.0956 
  53   1.0000      -2.502271       -68.0903 
  54   1.0000      -2.085811       -56.7578 
  55   1.0000      -2.084926       -56.7337 
  56   1.0000      -2.083980       -56.7080 
  57   1.0000      -0.494444       -13.4545 
  58   1.0000      -0.477828       -13.0024 
  59   1.0000      -0.466784       -12.7018 
  60   1.0000      -0.462406       -12.5827 
  61   1.0000      -0.461695       -12.5633 
  62   1.0000      -0.458187       -12.4679 
  63   1.0000      -0.457657       -12.4535 
  64   1.0000      -0.457062       -12.4373 
  65   1.0000      -0.453732       -12.3467 
  66   1.0000      -0.450700       -12.2642 
  67   1.0000      -0.448045       -12.1919 
  68   1.0000      -0.445203       -12.1146 
  69   1.0000      -0.442997       -12.0545 
  70   1.0000      -0.440964       -11.9992 
  71   1.0000      -0.438014       -11.9190 
  72   1.0000      -0.435793       -11.8585 
  73   1.0000      -0.432617       -11.7721 
  74   1.0000      -0.429743       -11.6939 
  75   1.0000      -0.428878       -11.6704 
  76   1.0000      -0.425835       -11.5876 
  77   1.0000      -0.424431       -11.5494 
  78   1.0000      -0.422423       -11.4947 
  79   1.0000      -0.420836       -11.4515 
  80   1.0000      -0.419777       -11.4227 
  81   1.0000      -0.412489       -11.2244 
  82   1.0000      -0.409751       -11.1499 
  83   1.0000      -0.407690       -11.0938 
  84   1.0000      -0.404797       -11.0151 
  85   1.0000      -0.397579       -10.8187 
  86   1.0000      -0.396539       -10.7904 
  87   1.0000      -0.392654       -10.6847 
  88   1.0000      -0.391775       -10.6607 
  89   1.0000      -0.391214       -10.6455 
  90   1.0000      -0.389897       -10.6096 
  91   1.0000      -0.384289       -10.4570 
  92   1.0000      -0.382036       -10.3957 
  93   1.0000      -0.376614       -10.2482 
  94   1.0000      -0.374369       -10.1871 
  95   1.0000      -0.373788       -10.1713 
  96   1.0000      -0.371547       -10.1103 
  97   1.0000      -0.368998       -10.0410 
  98   1.0000      -0.368249       -10.0206 
  99   1.0000      -0.367097        -9.9892 
 100   1.0000      -0.363616        -9.8945 
 101   1.0000      -0.362188        -9.8556 
 102   1.0000      -0.359428        -9.7805 
 103   1.0000      -0.359118        -9.7721 
 104   1.0000      -0.355865        -9.6836 
 105   1.0000      -0.353214        -9.6114 
 106   1.0000      -0.352667        -9.5966 
 107   1.0000      -0.348940        -9.4951 
 108   1.0000      -0.346189        -9.4203 
 109   1.0000      -0.344989        -9.3876 
 110   1.0000      -0.344281        -9.3684 
 111   1.0000      -0.342683        -9.3249 
 112   1.0000      -0.341210        -9.2848 
 113   1.0000      -0.339900        -9.2492 
 114   1.0000      -0.336619        -9.1599 
 115   1.0000      -0.329865        -8.9761 
 116   1.0000      -0.325474        -8.8566 
 117   1.0000      -0.320291        -8.7156 
 118   1.0000      -0.315825        -8.5940 
 119   1.0000      -0.310653        -8.4533 
 120   1.0000      -0.278720        -7.5843 
 121   1.0000      -0.237230        -6.4554 
 122   1.0000      -0.228931        -6.2295 
 123   1.0000      -0.220713        -6.0059 
 124   0.0000      -0.109272        -2.9734 
 125   0.0000      -0.092417        -2.5148 
 126   0.0000      -0.066414        -1.8072 
 127   0.0000      -0.057856        -1.5743 
 128   0.0000      -0.051629        -1.4049 
 129   0.0000      -0.037752        -1.0273 
 130   0.0000      -0.022248        -0.6054 
 131   0.0000      -0.016064        -0.4371 
 132   0.0000      -0.007911        -0.2153 
 133   0.0000      -0.000504        -0.0137 
 134   0.0000       0.008216         0.2236 
 135   0.0000       0.014191         0.3862 
 136   0.0000       0.016764         0.4562 
 137   0.0000       0.020884         0.5683 
 138   0.0000       0.026416         0.7188 
 139   0.0000       0.031760         0.8642 
 140   0.0000       0.041109         1.1186 
 141   0.0000       0.048275         1.3136 
 142   0.0000       0.049465         1.3460 
 143   0.0000       0.068551         1.8654 
 144   0.0000       0.074059         2.0152 
 145   0.0000       0.075036         2.0418 
 146   0.0000       0.086101         2.3429 
 147   0.0000       0.087735         2.3874 
 148   0.0000       0.091145         2.4802 
 149   0.0000       0.093813         2.5528 
 150   0.0000       0.094451         2.5701 
 151   0.0000       0.098974         2.6932 
 152   0.0000       0.103397         2.8136 
 153   0.0000       0.109051         2.9674 
 154   0.0000       0.112041         3.0488 
 155   0.0000       0.114581         3.1179 
 156   0.0000       0.115178         3.1341 
 157   0.0000       0.118118         3.2141 
 158   0.0000       0.119372         3.2483 
 159   0.0000       0.123789         3.3685 
 160   0.0000       0.136089         3.7032 
 161   0.0000       0.139326         3.7912 
 162   0.0000       0.142920         3.8891 
 163   0.0000       0.144692         3.9373 
 164   0.0000       0.162970         4.4346 
 165   0.0000       0.167309         4.5527 
 166   0.0000       0.174828         4.7573 
 167   0.0000       0.176255         4.7961 
 168   0.0000       0.180432         4.9098 
 169   0.0000       0.200257         5.4493 
 170   0.0000       0.202543         5.5115 
 171   0.0000       0.209156         5.6914 
 172   0.0000       0.216802         5.8995 
 173   0.0000       0.224551         6.1103 
 174   0.0000       0.242044         6.5864 
 175   0.0000       0.243236         6.6188 
 176   0.0000       0.244244         6.6462 
 177   0.0000       0.255094         6.9415 
 178   0.0000       0.256362         6.9760 
 179   0.0000       0.268780         7.3139 
 180   0.0000       0.282405         7.6846 
 181   0.0000       0.288623         7.8538 
 182   0.0000       0.304403         8.2832 
 183   0.0000       0.311048         8.4640 
 184   0.0000       0.311430         8.4744 
 185   0.0000       0.313765         8.5380 
 186   0.0000       0.319428         8.6921 
 187   0.0000       0.326704         8.8901 
 188   0.0000       0.329571         8.9681 
 189   0.0000       0.333474         9.0743 
 190   0.0000       0.338507         9.2113 
 191   0.0000       0.341355         9.2887 
 192   0.0000       0.345625         9.4049 
 193   0.0000       0.348276         9.4771 
 194   0.0000       0.351278         9.5588 
 195   0.0000       0.364625         9.9220 
 196   0.0000       0.371086        10.0978 
 197   0.0000       0.373621        10.1667 
 198   0.0000       0.376262        10.2386 
 199   0.0000       0.381051        10.3689 
 200   0.0000       0.389575        10.6009 
 201   0.0000       0.393779        10.7153 
 202   0.0000       0.396999        10.8029 
 203   0.0000       0.411850        11.2070 
 204   0.0000       0.415274        11.3002 
 205   0.0000       0.420146        11.4328 
 206   0.0000       0.422096        11.4858 
 207   0.0000       0.426379        11.6024 
 208   0.0000       0.427723        11.6389 
 209   0.0000       0.438124        11.9220 
 210   0.0000       0.441876        12.0240 
 211   0.0000       0.444153        12.0860 
 212   0.0000       0.446482        12.1494 
 213   0.0000       0.453390        12.3374 
 214   0.0000       0.455938        12.4067 
 215   0.0000       0.458715        12.4823 
 216   0.0000       0.463403        12.6098 
 217   0.0000       0.468263        12.7421 
 218   0.0000       0.473545        12.8858 
 219   0.0000       0.481721        13.1083 
 220   0.0000       0.492151        13.3921 
 221   0.0000       0.496781        13.5181 
 222   0.0000       0.506237        13.7754 
 223   0.0000       0.506834        13.7917 
 224   0.0000       0.516436        14.0529 
 225   0.0000       0.520753        14.1704 
 226   0.0000       0.530689        14.4408 
 227   0.0000       0.536569        14.6008 
 228   0.0000       0.542615        14.7653 
 229   0.0000       0.548476        14.9248 
 230   0.0000       0.553156        15.0521 
 231   0.0000       0.554067        15.0769 
 232   0.0000       0.564245        15.3539 
 233   0.0000       0.566690        15.4204 
 234   0.0000       0.572444        15.5770 
 235   0.0000       0.573572        15.6077 
 236   0.0000       0.580602        15.7990 
 237   0.0000       0.583695        15.8831 
 238   0.0000       0.587523        15.9873 
 239   0.0000       0.588845        16.0233 
 240   0.0000       0.603237        16.4149 
[...]
      f+1     :    -0.000027
      f-1     :    -0.000016
      f+2     :    -0.000013
      f-2     :    -0.000021
      f+3     :     0.000001
      f-3     :     0.000003
  1 Aus       :    -0.071986  s :    -0.071986
      pz      :    -0.012476  p :    -0.058645
      px      :    -0.014388
      py      :    -0.031780
      dz2     :    -0.011396  d :    -0.025436
      dxz     :    -0.001218
      dyz     :    -0.010267
      dx2y2   :    -0.001373
      dxy     :    -0.001182
      f0      :    -0.000027  f :    -0.000073
      f+1     :     0.000001
      f-1     :    -0.000011
      f+2     :    -0.000032
      f-2     :     0.000010
      f+3     :    -0.000018
      f-3     :     0.000004
  2 Aus       :     0.007091  s :     0.007091
      pz      :     0.002764  p :    -0.082245
      px      :    -0.073963
      py      :    -0.011046
      dz2     :     0.000796  d :     0.011077
      dxz     :     0.004530
      dyz     :     0.012413
      dx2y2   :    -0.006643
      dxy     :    -0.000019
      f0      :     0.000026  f :     0.000103
      f+1     :     0.000002
      f-1     :     0.000097
      f+2     :     0.000034
      f-2     :    -0.000015
      f+3     :    -0.000016
      f-3     :    -0.000024
  3 Aus       :    -0.132040  s :    -0.132040
      pz      :    -0.015958  p :    -0.085964
      px      :    -0.015856
      py      :    -0.054150
      dz2     :    -0.003014  d :    -0.002877
      dxz     :     0.001897
      dyz     :    -0.000696
      dx2y2   :     0.003293
      dxy     :    -0.004356
      f0      :    -0.000006  f :     0.000033
      f+1     :     0.000029
      f-1     :    -0.000028
      f+2     :    -0.000010
      f-2     :    -0.000008
      f+3     :     0.000023
      f-3     :     0.000033
  4 Aus       :    -0.070084  s :    -0.070084
      pz      :    -0.004167  p :    -0.058855
      px      :    -0.047044
      py      :    -0.007645
      dz2     :    -0.000421  d :     0.000886
      dxz     :    -0.000791
      dyz     :     0.001056
      dx2y2   :     0.003904
      dxy     :    -0.002862
      f0      :    -0.000002  f :    -0.000008
      f+1     :    -0.000036
      f-1     :     0.000034
      f+2     :    -0.000015
      f-2     :     0.000005
      f+3     :    -0.000005
      f-3     :     0.000011
  5 Aus       :    -0.071771  s :    -0.071771
      pz      :    -0.005527  p :    -0.058018
      px      :    -0.030916
      py      :    -0.021574
      dz2     :    -0.000887  d :     0.001734
      dxz     :     0.003199
      dyz     :    -0.002213
      dx2y2   :    -0.001535
      dxy     :     0.003169
      f0      :     0.000003  f :     0.000006
      f+1     :     0.000001
      f-1     :     0.000001
      f+2     :    -0.000008
      f-2     :     0.000008
      f+3     :     0.000014
      f-3     :    -0.000012
  6 Aus       :    -0.104017  s :    -0.104017
      pz      :    -0.004199  p :    -0.110270
      px      :    -0.091650
      py      :    -0.014421
      dz2     :     0.005828  d :     0.004662
      dxz     :    -0.002684
      dyz     :     0.002300
      dx2y2   :     0.005820
      dxy     :    -0.006602
      f0      :     0.000021  f :     0.000143
      f+1     :    -0.000011
      f-1     :     0.000070
      f+2     :     0.000041
      f-2     :     0.000010
      f+3     :    -0.000006
      f-3     :     0.000017
  7 Aus       :    -0.110172  s :    -0.110172
      pz      :    -0.003945  p :    -0.101089
      px      :    -0.052937
      py      :    -0.044207
      dz2     :     0.006112  d :     0.007105
      dxz     :     0.003155
      dyz     :    -0.002869
      dx2y2   :    -0.003814
      dxy     :     0.004521
      f0      :     0.000022  f :     0.000148
      f+1     :     0.000025
      f-1     :     0.000036
      f+2     :    -0.000013
      f-2     :     0.000063
      f+3     :     0.000026
      f-3     :    -0.000012
  8 Aus       :     0.004632  s :     0.004632
      pz      :     0.001077  p :    -0.023750
      px      :    -0.021696
      py      :    -0.003131
      dz2     :     0.004529  d :     0.005283
      dxz     :    -0.000595
      dyz     :     0.000057
      dx2y2   :     0.002574
      dxy     :    -0.001283
      f0      :     0.000005  f :     0.000096
      f+1     :     0.000044
      f-1     :     0.000014
      f+2     :     0.000003
      f-2     :     0.000031
      f+3     :     0.000002
      f-3     :    -0.000003
  9 Aus       :    -0.090211  s :    -0.090211
      pz      :    -0.011648  p :    -0.060435
      px      :    -0.021733
      py      :    -0.027054
      dz2     :    -0.010633  d :    -0.025695
      dxz     :    -0.002509
      dyz     :    -0.010590
      dx2y2   :    -0.000045
      dxy     :    -0.001918
      f0      :    -0.000024  f :    -0.000064
      f+1     :    -0.000005
      f-1     :    -0.000004
      f+2     :     0.000006
      f-2     :    -0.000024
      f+3     :     0.000000
      f-3     :    -0.000014
 10 Aus       :    -0.128484  s :    -0.128484
      pz      :    -0.018925  p :    -0.089804
      px      :    -0.014364
      py      :    -0.056515
      dz2     :    -0.003148  d :    -0.004301
      dxz     :     0.002826
      dyz     :    -0.002367
      dx2y2   :     0.000027
      dxy     :    -0.001640
      f0      :    -0.000006  f :     0.000024
      f+1     :     0.000022
      f-1     :    -0.000022
      f+2     :    -0.000001
      f-2     :    -0.000021
      f+3     :     0.000038
      f-3     :     0.000014
 11 Aus       :     0.003308  s :     0.003308
      pz      :     0.001469  p :    -0.017001
      px      :    -0.006356
      py      :    -0.012114
      dz2     :     0.004734  d :     0.006635
      dxz     :     0.003833
      dyz     :    -0.003296
      dx2y2   :     0.000524
      dxy     :     0.000839
      f0      :     0.000005  f :     0.000112
      f+1     :     0.000084
      f-1     :    -0.000025
      f+2     :     0.000019
      f-2     :     0.000022
      f+3     :     0.000001
      f-3     :     0.000006
 12 Mns       :     0.022142  s :     0.022142
      pz      :     0.010703  p :     0.033642
      px      :     0.010798
      py      :     0.012141
      dz2     :     0.919945  d :     4.467616
      dxz     :     0.931527
      dyz     :     0.943554
      dx2y2   :     0.842581
      dxy     :     0.830009
      f0      :     0.000000  f :     0.000007
      f+1     :     0.000003
      f-1     :     0.000001
      f+2     :    -0.000001
      f-2     :    -0.000002
      f+3     :     0.000003
      f-3     :     0.000003


                      *****************************
                      * MAYER POPULATION ANALYSIS *
                      *****************************

  NA   - Mulliken gross atomic population
  ZA   - Total nuclear charge
  QA   - Mulliken gross atomic charge
  VA   - Mayer's total valence
  BVA  - Mayer's bonded valence
  FA   - Mayer's free valence

  ATOM       NA         ZA         QA         VA         BVA        FA
  0 Au    18.9278    19.0000     0.0722     1.5363     1.5258     0.0105
  1 Au    18.8298    19.0000     0.1702     1.4120     1.3772     0.0348
  2 Au    19.1969    19.0000    -0.1969     2.1339     2.1258     0.0081
  3 Au    18.8422    19.0000     0.1578     1.5687     1.4882     0.0804
  4 Au    18.8320    19.0000     0.1680     1.4891     1.4641     0.0250
  5 Au    18.8390    19.0000     0.1610     1.4977     1.4711     0.0267
  6 Au    18.9359    19.0000     0.0641     1.4851     1.4228     0.0623
  7 Au    18.9297    19.0000     0.0703     1.4903     1.4222     0.0681
  8 Au    18.8244    19.0000     0.1756     1.3373     1.3354     0.0018
  9 Au    18.8490    19.0000     0.1510     1.4409     1.3914     0.0495
 10 Au    18.8155    19.0000     0.1845     1.5266     1.4491     0.0776
 11 Au    18.8296    19.0000     0.1704     1.3404     1.3384     0.0020
 12 Mn    26.3482    25.0000    -1.3482     8.7874     4.2312     4.5563

  Mayer bond orders larger than 0.100000
B(  0-Au,  1-Au) :   0.2998 B(  0-Au,  2-Au) :   0.4338 B(  0-Au,  6-Au) :   0.1003 
B(  0-Au,  9-Au) :   0.3146 B(  0-Au, 12-Mn) :   0.1337 B(  1-Au,  2-Au) :   0.2737 
B(  1-Au,  3-Au) :   0.2492 B(  1-Au,  7-Au) :   0.2195 B(  1-Au, 12-Mn) :   0.1323 
B(  2-Au,  4-Au) :   0.3393 B(  2-Au,  5-Au) :   0.3289 B(  2-Au,  9-Au) :   0.2613 
B(  2-Au, 12-Mn) :   0.2975 B(  3-Au,  4-Au) :   0.1932 B(  3-Au,  7-Au) :   0.2186 
B(  3-Au,  8-Au) :   0.2321 B(  3-Au, 12-Mn) :   0.3977 B(  4-Au,  5-Au) :   0.1774 
B(  4-Au,  8-Au) :   0.1610 B(  4-Au, 12-Mn) :   0.4221 B(  5-Au, 10-Au) :   0.1973 
B(  5-Au, 11-Au) :   0.1533 B(  5-Au, 12-Mn) :   0.4239 B(  6-Au,  7-Au) :   0.2314 
B(  6-Au,  9-Au) :   0.2133 B(  6-Au, 10-Au) :   0.2121 B(  6-Au, 12-Mn) :   0.4987 
B(  7-Au, 12-Mn) :   0.4887 B(  8-Au, 11-Au) :   0.2795 B(  8-Au, 12-Mn) :   0.4436 
B(  9-Au, 10-Au) :   0.2383 B(  9-Au, 12-Mn) :   0.1493 B( 10-Au, 11-Au) :   0.2296 
B( 10-Au, 12-Mn) :   0.3861 B( 11-Au, 12-Mn) :   0.4577 

-------
TIMINGS
-------

Total SCF time: 0 days 0 hours 11 min 45 sec 

Total time                  ....     705.315 sec
Sum of individual times     ....     702.336 sec  ( 99.6%)

Fock matrix formation       ....     677.905 sec  ( 96.1%)
  Split-RI-J                ....      41.317 sec  (  6.1% of F)
  Chain of spheres X        ....     565.115 sec  ( 83.4% of F)
  XC integration            ....      69.758 sec  ( 10.3% of F)
    Basis function eval.    ....      10.556 sec  ( 15.1% of XC)
    Density eval.           ....      33.519 sec  ( 48.1% of XC)
    XC-Functional eval.     ....       1.248 sec  (  1.8% of XC)
    XC-Potential eval.      ....      18.033 sec  ( 25.9% of XC)
Diagonalization             ....      13.360 sec  (  1.9%)
Density matrix formation    ....       0.418 sec  (  0.1%)
Population analysis         ....       0.196 sec  (  0.0%)
Initial guess               ....       0.479 sec  (  0.1%)
Orbital Transformation      ....       0.000 sec  (  0.0%)
Orbital Orthonormalization  ....       0.427 sec  (  0.1%)
DIIS solution               ....       4.934 sec  (  0.7%)
Grid generation             ....       5.044 sec  (  0.7%)

Maximum memory used throughout the entire SCF-calculation: 127.6 MB


           ************************************************************
           *        Program running with 6 parallel MPI-processes     *
           *              working on a common directory               *
           ************************************************************

------------------------------------------------------------------------------
                                ORCA  MP2 
------------------------------------------------------------------------------

Freezing NCore=10 chemical core electrons

   <<< Use J-auxbasis for calculation of Separable RI-J derivative contributions (Dim=1157) >>> 


-------------
RI-MP2 ENERGY
-------------
Dimension of the basis                    ...  525
Memory devoted to MP2                     ...  256 MB   
Data format for buffers                   ... DOUBLE
Compression type for matrix containers    ... UNCOMPRESSED
Overall scaling of the MP2 energy         ...   2.700e-01
Calculating two index integrals           ... done (    0.055 sec)
Cholesky decomposition of V**-1           ... done (    0.656 sec)

-----------------
RI-TRANSFORMATION (AUX index driven)
-----------------

Dimension of the orbital-basis         ... 525
Dimension of the aux-basis             ... 1994
Transformation of internal/external MOs...    5- 127 to  128- 524
Number Format for Storage              ... Double (8 Byte)
Integral mode                          ... Direct

First Phase: integral generation and transformation of MO indices
  Aux angular momentum 0               ... done (    0.279 sec)
  Aux angular momentum 1               ... done (    0.660 sec)
  Aux angular momentum 2               ... done (    0.968 sec)
  Aux angular momentum 3               ... done (    0.945 sec)
  Aux angular momentum 4               ... done (    0.838 sec)
  Aux angular momentum 5               ... done (    0.827 sec)
Closing buffer VIA ( 0.73 GB; CompressionRatio= 1.00)
  Phase 1 completed in     6.615 sec
Second Phase: sorting and transformation of aux index

IA-Transformation
Memory available                       ... 176 MB 
Max. # MO pairs treated in a batch     ... 21    
# of internal orbitals                 ... 123
# batches for internal orbitals        ... 1
Closing buffer IAV ( 0.73 GB; CompressionRatio= 1.00)
(ia|v) transformation done in     6.030 sec

  Phase 2 completed in     7.786 sec
RI-Integral transformation completed in    14.401 sec

-----------------
RI-TRANSFORMATION (AUX index driven)
-----------------

Dimension of the orbital-basis         ... 525
Dimension of the aux-basis             ... 1994
Transformation of internal/external MOs...    5- 124 to  125- 524
Number Format for Storage              ... Double (8 Byte)
Integral mode                          ... Direct

First Phase: integral generation and transformation of MO indices
  Aux angular momentum 0               ... done (    0.384 sec)
  Aux angular momentum 1               ... done (    0.947 sec)
  Aux angular momentum 2               ... done (    1.415 sec)
  Aux angular momentum 3               ... done (    1.412 sec)
  Aux angular momentum 4               ... done (    1.262 sec)
  Aux angular momentum 5               ... done (    1.291 sec)
Closing buffer VIA ( 0.71 GB; CompressionRatio= 1.00)
  Phase 1 completed in     6.858 sec
Second Phase: sorting and transformation of aux index

IA-Transformation
Memory available                       ... 176 MB 
Max. # MO pairs treated in a batch     ... 20    
# of internal orbitals                 ... 120
# batches for internal orbitals        ... 1
Closing buffer IAV ( 0.71 GB; CompressionRatio= 1.00)
(ia|v) transformation done in     5.751 sec

  Phase 2 completed in     5.949 sec
RI-Integral transformation completed in    12.807 sec
Opening buffers                              ... done

Starting loop over batches of integrals:

Operator 0  - window                       ... (  5-127)x(128-524)
Operator 0  - Memory available             ...   256 MB
Operator 0  - Memory needed per MO         ...   6.0 MB
Operator 0  - Number of orbitals per batch ... 21
Operator 0  - Number of batches            ... 1

OPERATOR  0   PASS   0:  MOs     5 ...   25 +   26 ...   46 +   47 ...   67 +   68 ...   88
                            +   89 ...  109 +  110 ...  127
  Reading integrals       ... ok
  Internal MO   7
  Internal MO  10
  Internal MO  13
  Internal MO  16
  Internal MO  19
  Internal MO  22
  Internal MO  25

Operator 1  - window                       ... (  5-124)x(125-524)
Operator 1  - Memory available             ...   256 MB
Operator 1  - Memory needed per MO         ...   6.1 MB
Operator 1  - Number of orbitals per batch ... 20
Operator 1  - Number of batches            ... 1

OPERATOR  1   PASS   0:  MOs     5 ...   24 +   25 ...   44 +   45 ...   64 +   65 ...   84
                            +   85 ...  104 +  105 ...  124
  Reading integrals       ... ok
  Internal MO   7
  Internal MO  10
  Internal MO  13
  Internal MO  16
  Internal MO  19
  Internal MO  22
Time spent in pair loops =   250.570 sec
Deleting buffer (Ka|jb)[aa] ...done
Deleting buffer (Ka|jb)[ba] ...done
Deleting buffer (Ka|jb)[ab] ...done
Deleting buffer (Ka|jb)[bb] ...done

Correlation energy components}
 E2 and T2 for alpha/alpha pairs :     -0.363470870 Eh      0.000000000
 E2 and T2 for beta/beta   pairs :     -0.355671688 Eh      0.000000000
 E2 and T2 for alpha/beta  pairs :     -1.219669917 Eh      0.000000000


-----------------------------------------------
 RI-MP2 CORRELATION ENERGY:     -1.938812474 Eh
-----------------------------------------------


-------
TIMINGS
-------

Total time                :  386.837 sec
Integral trafo            :   27.245 sec (  7.0%)
I/O of integrals          :    0.140 sec (  0.0%)
K(i,j) Operators          :  224.869 sec ( 58.1%)
T(i,j) pair energies      :    3.017 sec (  0.8%)
V-calculation             :    0.055 sec (  0.0%)
V**(-1/2)                 :    0.656 sec (  0.2%)
Gamma(ia|P)               :    0.000 sec (  0.0%)
Gamma-Trafo               :    0.000 sec (  0.0%)
D(virtual)                :    0.000 sec (  0.0%)
D(internal)               :    0.000 sec (  0.0%)
W(virtual)                :    0.000 sec (  0.0%)
W(internal)               :    0.000 sec (  0.0%)
L(virtual)                :    0.000 sec (  0.0%)
L(internal)               :    0.000 sec (  0.0%)
G(D)                      :    0.000 sec (  0.0%)
G(Z)                      :    0.000 sec (  0.0%)
Z-Vector Solution         :    0.000 sec (  0.0%)
3-Index Derivative        :    0.000 sec (  0.0%)
2-Index Derivative        :    0.000 sec (  0.0%)
Separable Gradient (RIJ)  :    0.000 sec (  0.0%)
Separable Gradient (COSX) :    0.000 sec (  0.0%)


---------------------------------------
MP2 TOTAL ENERGY:    -2777.841462947 Eh
---------------------------------------

Maximum memory used throughout the entire MP2-calculation: 257.3 MB

-------------------------   --------------------
FINAL SINGLE POINT ENERGY     -2777.841462947416
-------------------------   --------------------


                            ***************************************
                            *     ORCA property calculations      *
                            ***************************************


  WARNING: The energy has been calculated at the MP2 level but the densities
           used in the property calculations are still SCF densities
           MP2 response densities have not been calculated 
           use %mp2 Density relaxed end
           or  %mp2 Density unrelaxed end

                                    ---------------------
                                    Active property flags
                                    ---------------------
   (+) Dipole Moment


------------------------------------------------------------------------------
                       ORCA ELECTRIC PROPERTIES CALCULATION
------------------------------------------------------------------------------

Dipole Moment Calculation                       ... on
Quadrupole Moment Calculation                   ... off
Polarizability Calculation                      ... off
GBWName                                         ... b2plyp_job2.gbw
Electron density                                ... b2plyp_job2.scfp
The origin for moment calculation is the CENTER OF MASS  = (13.431323, 15.211614 15.483374)

-------------
DIPOLE MOMENT
-------------
                                X             Y             Z
Electronic contribution:     -1.55015      -8.57033      29.18018
Nuclear contribution   :      1.51912       8.44168     -29.25852
                        -----------------------------------------
Total Dipole Moment    :     -0.03103      -0.12866      -0.07834
                        -----------------------------------------
Magnitude (a.u.)       :      0.15379
Magnitude (Debye)      :      0.39091



--------------------
Rotational spectrum 
--------------------
 
Rotational constants in cm-1:     0.001478     0.001380     0.001033 
Rotational constants in MHz :    44.305732    41.361868    30.974659 

 Dipole components along the rotational axes: 
x,y,z [a.u.] :    -0.132320     0.009544     0.077801 
x,y,z [Debye]:    -0.336331     0.024259     0.197754 

 

Timings for individual modules:

Sum of individual times         ...     1109.792 sec (=  18.497 min)
GTO integral calculation        ...       16.740 sec (=   0.279 min)   1.5 %
SCF iterations                  ...      705.603 sec (=  11.760 min)  63.6 %
MP2 module                      ...      387.449 sec (=   6.457 min)  34.9 %



                             ****ORCA TERMINATED NORMALLY****
TOTAL RUN TIME: 0 days 0 hours 38 minutes 46 seconds 861 msec
