
                                 *****************
                                 * O   R   C   A *
                                 *****************

                                            #,                                       
                                            ###                                      
                                            ####                                     
                                            #####                                    
                                            ######                                   
                                           ########,                                 
                                     ,,################,,,,,                         
                               ,,#################################,,                 
                          ,,##########################################,,             
                       ,#########################################, ''#####,          
                    ,#############################################,,   '####,        
                  ,##################################################,,,,####,       
                ,###########''''           ''''###############################       
              ,#####''   ,,,,##########,,,,          '''####'''          '####       
            ,##' ,,,,###########################,,,                        '##       
           ' ,,###''''                  '''############,,,                           
         ,,##''                                '''############,,,,        ,,,,,,###''
      ,#''                                            '''#######################'''  
     '                                                          ''''####''''         
             ,#######,   #######,   ,#######,      ##                                
            ,#'     '#,  ##    ##  ,#'     '#,    #''#        ######   ,####,        
            ##       ##  ##   ,#'  ##            #'  '#       #        #'  '#        
            ##       ##  #######   ##           ,######,      #####,   #    #        
            '#,     ,#'  ##    ##  '#,     ,#' ,#      #,         ##   #,  ,#        
             '#######'   ##     ##  '#######'  #'      '#     #####' # '####'        



                  #######################################################
                  #                        -***-                        #
                  #          Department of theory and spectroscopy      #
                  #    Directorship and core code : Frank Neese         #
                  #        Max Planck Institute fuer Kohlenforschung    #
                  #                Kaiser Wilhelm Platz 1               #
                  #                 D-45470 Muelheim/Ruhr               #
                  #                      Germany                        #
                  #                                                     #
                  #                  All rights reserved                #
                  #                        -***-                        #
                  #######################################################


                         Program Version 5.0.3 -  RELEASE  -


 With contributions from (in alphabetic order):
   Daniel Aravena         : Magnetic Suceptibility
   Michael Atanasov       : Ab Initio Ligand Field Theory (pilot matlab implementation)
   Alexander A. Auer      : GIAO ZORA, VPT2 properties, NMR spectrum
   Ute Becker             : Parallelization
   Giovanni Bistoni       : ED, misc. LED, open-shell LED, HFLD
   Martin Brehm           : Molecular dynamics
   Dmytro Bykov           : SCF Hessian
   Vijay G. Chilkuri      : MRCI spin determinant printing, contributions to CSF-ICE
   Dipayan Datta          : RHF DLPNO-CCSD density
   Achintya Kumar Dutta   : EOM-CC, STEOM-CC
   Dmitry Ganyushin       : Spin-Orbit,Spin-Spin,Magnetic field MRCI
   Miquel Garcia          : C-PCM and meta-GGA Hessian, CC/C-PCM, Gaussian charge scheme
   Yang Guo               : DLPNO-NEVPT2, F12-NEVPT2, CIM, IAO-localization
   Andreas Hansen         : Spin unrestricted coupled pair/coupled cluster methods
   Benjamin Helmich-Paris : MC-RPA, TRAH-SCF, COSX integrals
   Lee Huntington         : MR-EOM, pCC
   Robert Izsak           : Overlap fitted RIJCOSX, COSX-SCS-MP3, EOM
   Marcus Kettner         : VPT2
   Christian Kollmar      : KDIIS, OOCD, Brueckner-CCSD(T), CCSD density, CASPT2, CASPT2-K
   Simone Kossmann        : Meta GGA functionals, TD-DFT gradient, OOMP2, MP2 Hessian
   Martin Krupicka        : Initial AUTO-CI
   Lucas Lang             : DCDCAS
   Marvin Lechner         : AUTO-CI (C++ implementation), FIC-MRCC
   Dagmar Lenk            : GEPOL surface, SMD
   Dimitrios Liakos       : Extrapolation schemes; Compound Job, initial MDCI parallelization
   Dimitrios Manganas     : Further ROCIS development; embedding schemes
   Dimitrios Pantazis     : SARC Basis sets
   Anastasios Papadopoulos: AUTO-CI, single reference methods and gradients
   Taras Petrenko         : DFT Hessian,TD-DFT gradient, ASA, ECA, R-Raman, ABS, FL, XAS/XES, NRVS
   Peter Pinski           : DLPNO-MP2, DLPNO-MP2 Gradient
   Christoph Reimann      : Effective Core Potentials
   Marius Retegan         : Local ZFS, SOC
   Christoph Riplinger    : Optimizer, TS searches, QM/MM, DLPNO-CCSD(T), (RO)-DLPNO pert. Triples
   Tobias Risthaus        : Range-separated hybrids, TD-DFT gradient, RPA, STAB
   Michael Roemelt        : Original ROCIS implementation
   Masaaki Saitow         : Open-shell DLPNO-CCSD energy and density
   Barbara Sandhoefer     : DKH picture change effects
   Avijit Sen             : IP-ROCIS
   Kantharuban Sivalingam : CASSCF convergence, NEVPT2, FIC-MRCI
   Bernardo de Souza      : ESD, SOC TD-DFT
   Georgi Stoychev        : AutoAux, RI-MP2 NMR, DLPNO-MP2 response
   Willem Van den Heuvel  : Paramagnetic NMR
   Boris Wezisla          : Elementary symmetry handling
   Frank Wennmohs         : Technical directorship


 We gratefully acknowledge several colleagues who have allowed us to
 interface, adapt or use parts of their codes:
   Stefan Grimme, W. Hujo, H. Kruse, P. Pracht,  : VdW corrections, initial TS optimization,
                  C. Bannwarth, S. Ehlert          DFT functionals, gCP, sTDA/sTD-DF
   Ed Valeev, F. Pavosevic, A. Kumar             : LibInt (2-el integral package), F12 methods
   Garnet Chan, S. Sharma, J. Yang, R. Olivares  : DMRG
   Ulf Ekstrom                                   : XCFun DFT Library
   Mihaly Kallay                                 : mrcc  (arbitrary order and MRCC methods)
   Jiri Pittner, Ondrej Demel                    : Mk-CCSD
   Frank Weinhold                                : gennbo (NPA and NBO analysis)
   Christopher J. Cramer and Donald G. Truhlar   : smd solvation model
   Lars Goerigk                                  : TD-DFT with DH, B97 family of functionals
   V. Asgeirsson, H. Jonsson                     : NEB implementation
   FAccTs GmbH                                   : IRC, NEB, NEB-TS, DLPNO-Multilevel, CI-OPT
                                                   MM, QMMM, 2- and 3-layer-ONIOM, Crystal-QMMM,
                                                   LR-CPCM, SF, NACMEs, symmetry and pop. for TD-DFT,
                                                   nearIR, NL-DFT gradient (VV10), updates on ESD,
                                                   ML-optimized integration grids
   S Lehtola, MJT Oliveira, MAL Marques          : LibXC Library
   Liviu Ungur et al                             : ANISO software


 Your calculation uses the libint2 library for the computation of 2-el integrals
 For citations please refer to: http://libint.valeyev.net

 Your ORCA version has been built with support for libXC version: 5.1.0
 For citations please refer to: https://tddft.org/programs/libxc/

 This ORCA versions uses:
   CBLAS   interface :  Fast vector & matrix operations
   LAPACKE interface :  Fast linear algebra routines
   SCALAPACK package :  Parallel linear algebra routines
   Shared memory     :  Shared parallel matrices
   BLAS/LAPACK       :  OpenBLAS 0.3.15  USE64BITINT DYNAMIC_ARCH NO_AFFINITY Sandybridge SINGLE_THREADED
        Core in use  :  Sandybridge
   Copyright (c) 2011-2014, The OpenBLAS Project




***************************************
The coordinates will be read from file: pbe.xyz
***************************************


================================================================================

cite the ECPs for Au [Def2-ECP] as follows:
Ce-Yb(ecp-28): M. Dolg, H. Stoll, H.Preuss, J. Chem. Phys., 1989, 90, 1730-1734.
Y-Cd(ecp-28), Hf-Hg(ecp-46): D. Andrae,U. Haeussermann, M. Dolg, H. Stoll, H. Preuss, Theor. Chim. Acta, 1990, 77, 123-141.
In-Sb(ecp-28), Tl-Bi(ecp-46): B. Metz, H. Stoll, M. Dolg, J. Chem. Phys., 2000, 113, 2563-2569.
Te-Xe(ecp-28), Po-Rn(ecp-46): K. A. Peterson, D. Figgen, E. Goll, H. Stoll, M. Dolg, J. Chem. Phys., 2003, 119, 11113-11123.
Rb(ecp-28), Cs(ecp-46): T. Leininger, A. Nicklass, W. Kuechle, H. Stoll, M. Dolg, A. Bergner, Chem. Phys. Lett., 1996, 255, 274-280.
Sr(ecp-28), Ba(ecp-46): M. Kaupp, P. V. Schleyer, H. Stoll and H. Preuss, J. Chem. Phys., 1991, 94, 1360-1366.
La(ecp-46): M. Dolg, H. Stoll, A. Savin, H. Preuss, Theor. Chim. Acta, 1989, 75, 173-194.
Lu(ecp-28): X. Cao, M. Dolg, J. Chem. Phys., 2001, 115, 7348-7355.

ECP parameters for Au [Def2-ECP] have been obtained from:
TURBOMOLE (7.0.2)

----- Orbital basis set information -----
Your calculation utilizes the basis: def2-TZVP
   F. Weigend and R. Ahlrichs, Phys. Chem. Chem. Phys. 7, 3297 (2005).

----- AuxJ basis set information -----
Your calculation utilizes the auxiliary basis: def2/J
   F. Weigend, Phys. Chem. Chem. Phys. 8, 1057 (2006).

================================================================================
                                        WARNINGS
                       Please study these warnings very carefully!
================================================================================

Using LibXC functional ID 497 : Re-regularized SCAN exchange by Furness et al
[ 1]  J. W. Furness, A. D. Kaplan, J. Ning, J. P. Perdew, and J. Sun, J. Phys. Chem. Lett. 11, 8208 (2020)
[ 2]  J. W. Furness, A. D. Kaplan, J. Ning, J. P. Perdew, and J. Sun, J. Phys. Chem. Lett. 11, 9248 (2020)
Using LibXC functional ID 498 : Re-regularized SCAN correlation by Furness et al
[ 1]  J. W. Furness, A. D. Kaplan, J. Ning, J. P. Perdew, and J. Sun, J. Phys. Chem. Lett. 11, 8208 (2020)
[ 2]  J. W. Furness, A. D. Kaplan, J. Ning, J. P. Perdew, and J. Sun, J. Phys. Chem. Lett. 11, 9248 (2020)
Using LibXC functional ID 497 : Re-regularized SCAN exchange by Furness et al
[ 1]  J. W. Furness, A. D. Kaplan, J. Ning, J. P. Perdew, and J. Sun, J. Phys. Chem. Lett. 11, 8208 (2020)
[ 2]  J. W. Furness, A. D. Kaplan, J. Ning, J. P. Perdew, and J. Sun, J. Phys. Chem. Lett. 11, 9248 (2020)
Using LibXC functional ID 498 : Re-regularized SCAN correlation by Furness et al
[ 1]  J. W. Furness, A. D. Kaplan, J. Ning, J. P. Perdew, and J. Sun, J. Phys. Chem. Lett. 11, 8208 (2020)
[ 2]  J. W. Furness, A. D. Kaplan, J. Ning, J. P. Perdew, and J. Sun, J. Phys. Chem. Lett. 11, 9248 (2020)

WARNING: your system is open-shell and RHF/RKS was chosen
  ===> : WILL SWITCH to UHF/UKS


INFO   : the flag for use of the SHARK integral package has been found!



***************************************
The coordinates will be read from file: pbe.xyz
***************************************


================================================================================

cite the ECPs for Au [Def2-ECP] as follows:
Ce-Yb(ecp-28): M. Dolg, H. Stoll, H.Preuss, J. Chem. Phys., 1989, 90, 1730-1734.
Y-Cd(ecp-28), Hf-Hg(ecp-46): D. Andrae,U. Haeussermann, M. Dolg, H. Stoll, H. Preuss, Theor. Chim. Acta, 1990, 77, 123-141.
In-Sb(ecp-28), Tl-Bi(ecp-46): B. Metz, H. Stoll, M. Dolg, J. Chem. Phys., 2000, 113, 2563-2569.
Te-Xe(ecp-28), Po-Rn(ecp-46): K. A. Peterson, D. Figgen, E. Goll, H. Stoll, M. Dolg, J. Chem. Phys., 2003, 119, 11113-11123.
Rb(ecp-28), Cs(ecp-46): T. Leininger, A. Nicklass, W. Kuechle, H. Stoll, M. Dolg, A. Bergner, Chem. Phys. Lett., 1996, 255, 274-280.
Sr(ecp-28), Ba(ecp-46): M. Kaupp, P. V. Schleyer, H. Stoll and H. Preuss, J. Chem. Phys., 1991, 94, 1360-1366.
La(ecp-46): M. Dolg, H. Stoll, A. Savin, H. Preuss, Theor. Chim. Acta, 1989, 75, 173-194.
Lu(ecp-28): X. Cao, M. Dolg, J. Chem. Phys., 2001, 115, 7348-7355.

ECP parameters for Au [Def2-ECP] have been obtained from:
TURBOMOLE (7.0.2)

----- Orbital basis set information -----
Your calculation utilizes the basis: def2-TZVP
   F. Weigend and R. Ahlrichs, Phys. Chem. Chem. Phys. 7, 3297 (2005).

----- AuxJ basis set information -----
Your calculation utilizes the auxiliary basis: def2/J
   F. Weigend, Phys. Chem. Chem. Phys. 8, 1057 (2006).

================================================================================
                                        WARNINGS
                       Please study these warnings very carefully!
================================================================================

Using LibXC functional ID 497 : Re-regularized SCAN exchange by Furness et al
[ 1]  J. W. Furness, A. D. Kaplan, J. Ning, J. P. Perdew, and J. Sun, J. Phys. Chem. Lett. 11, 8208 (2020)
[ 2]  J. W. Furness, A. D. Kaplan, J. Ning, J. P. Perdew, and J. Sun, J. Phys. Chem. Lett. 11, 9248 (2020)
Using LibXC functional ID 498 : Re-regularized SCAN correlation by Furness et al
[ 1]  J. W. Furness, A. D. Kaplan, J. Ning, J. P. Perdew, and J. Sun, J. Phys. Chem. Lett. 11, 8208 (2020)
[ 2]  J. W. Furness, A. D. Kaplan, J. Ning, J. P. Perdew, and J. Sun, J. Phys. Chem. Lett. 11, 9248 (2020)
Using LibXC functional ID 497 : Re-regularized SCAN exchange by Furness et al
[ 1]  J. W. Furness, A. D. Kaplan, J. Ning, J. P. Perdew, and J. Sun, J. Phys. Chem. Lett. 11, 8208 (2020)
[ 2]  J. W. Furness, A. D. Kaplan, J. Ning, J. P. Perdew, and J. Sun, J. Phys. Chem. Lett. 11, 9248 (2020)
Using LibXC functional ID 498 : Re-regularized SCAN correlation by Furness et al
[ 1]  J. W. Furness, A. D. Kaplan, J. Ning, J. P. Perdew, and J. Sun, J. Phys. Chem. Lett. 11, 8208 (2020)
[ 2]  J. W. Furness, A. D. Kaplan, J. Ning, J. P. Perdew, and J. Sun, J. Phys. Chem. Lett. 11, 9248 (2020)

INFO   : the flag for use of the SHARK integral package has been found!

================================================================================
                                       INPUT FILE
================================================================================
NAME = scan.inp
|  1> !R2SCAN def2-TZVP VERYSLOWCONV
|  2> !KDIIS
|  3> %scf
|  4>   AutoTRAHIter 200
|  5>   maxiter 400
|  6> end
|  7> 
|  8> %pal nprocs 6 end 
|  9> 
| 10> *xyzfile 0 6 pbe.xyz
| 11> 
| 12> $new_job
| 13> 
| 14> !R2SCAN def2-TZVP VERYSLOWCONV
| 15> !KDIIS
| 16> %scf
| 17>   AutoTRAHIter 200
| 18>   maxiter 400
| 19> end
| 20> 
| 21> 
| 22> %pal nprocs 6 end 
| 23> 
| 24> *xyzfile 0 4 pbe.xyz
| 25> 
| 26> 
| 27> 
| 28> 
| 29> 
| 30>                          ****END OF INPUT****
================================================================================


                 $$$$$$$$$$$$$$$$$$$$$$$$$$$$$$$$$$$$$$$$$$$$$$ 
                 $ THERE ARE  2 JOBS TO BE PROCESSED THIS RUN $
                 $$$$$$$$$$$$$$$$$$$$$$$$$$$$$$$$$$$$$$$$$$$$$$ 




                 $$$$$$$$$$$$$$$$  JOB NUMBER  1 $$$$$$$$$$$$$$


                       ****************************
                       * Single Point Calculation *
                       ****************************

---------------------------------
CARTESIAN COORDINATES (ANGSTROEM)
---------------------------------
  Au     7.417110    9.258081   11.010102
  Au     9.609528    7.826416   10.099715
  Au     6.890647    6.887966    9.812046
  Au     9.910898    7.518022    7.398954
  Au     7.879064    5.601272    7.585409
  Au     5.258956    6.269961    7.672617
  Au     6.363091   10.608970    8.504176
  Au     8.927729    9.988193    8.490614
  Au     8.259902    7.075855    5.213766
  Au     4.832975    8.916559   10.096035
  Au     4.333225    8.888456    7.409754
  Au     5.596092    7.692673    5.247413
  Mn     7.148356    8.276394    7.407525

----------------------------
CARTESIAN COORDINATES (A.U.)
----------------------------
  NO LB      ZA    FRAG     MASS         X           Y           Z
   0 Au   19.0000*   0   196.966   14.016306   17.495238   20.806077
   1 Au   19.0000*   0   196.966   18.159376   14.789782   19.085696
   2 Au   19.0000*   0   196.966   13.021435   13.016369   18.542080
   3 Au   19.0000*   0   196.966   18.728884   14.207003   13.981996
   4 Au   19.0000*   0   196.966   14.889272   10.584870   14.334345
   5 Au   19.0000*   0   196.966    9.937987   11.848509   14.499145
   6 Au   19.0000*   0   196.966   12.024500   20.048049   16.070563
   7 Au   19.0000*   0   196.966   16.870963   18.874949   16.044936
   8 Au   19.0000*   0   196.966   15.608953   13.371429    9.852590
   9 Au   19.0000*   0   196.966    9.132998   16.849855   19.078741
  10 Au   19.0000*   0   196.966    8.188608   16.796748   14.002405
  11 Au   19.0000*   0   196.966   10.575082   14.537044    9.916174
  12 Mn   25.0000    0    54.940   13.508434   15.640119   13.998194
* core charge reduced due to ECP

--------------------------------
INTERNAL COORDINATES (ANGSTROEM)
--------------------------------
 Au     0   0   0     0.000000000000     0.00000000     0.00000000
 Au     1   0   0     2.772213377502     0.00000000     0.00000000
 Au     1   2   0     2.707387891972    63.66399188     0.00000000
 Au     2   1   3     2.734966878548   118.01277149    67.25522854
 Au     3   1   2     2.755079795601   134.16445440   318.46515424
 Au     5   3   1     2.705496720641    60.73040614   241.52736105
 Au     1   2   3     3.035707977288   103.49242820   279.69418983
 Au     7   1   2     2.638733885896    64.02980836   334.59306199
 Au     4   2   1     2.774228761465   136.90464078   321.58935144
 Au     1   2   3     2.762229326942   124.56498450   338.84623622
 Au    10   1   2     2.732516664663   119.84708988   310.71128845
 Au     9   4   2     2.734498262397   122.28226789    22.16293508
 Mn     7   1   2     2.694474733963    81.34712016    36.16446904

---------------------------
INTERNAL COORDINATES (A.U.)
---------------------------
 Au     0   0   0     0.000000000000     0.00000000     0.00000000
 Au     1   0   0     5.238724068272     0.00000000     0.00000000
 Au     1   2   0     5.116221654122    63.66399188     0.00000000
 Au     2   1   3     5.168338385802   118.01277149    67.25522854
 Au     3   1   2     5.206346290785   134.16445440   318.46515424
 Au     5   3   1     5.112647858233    60.73040614   241.52736105
 Au     1   2   3     5.736656699635   103.49242820   279.69418983
 Au     7   1   2     4.986484384642    64.02980836   334.59306199
 Au     4   2   1     5.242532592016   136.90464078   321.58935144
 Au     1   2   3     5.219856947007   124.56498450   338.84623622
 Au    10   1   2     5.163708152589   119.84708988   310.71128845
 Au     9   4   2     5.167452829613   122.28226789    22.16293508
 Mn     7   1   2     5.091819321961    81.34712016    36.16446904

---------------------
BASIS SET INFORMATION
---------------------
There are 2 groups of distinct atoms

 Group   1 Type Au  : 8s7p6d1f contracted to 6s4p3d1f pattern {311111/4111/411/1}
 Group   2 Type Mn  : 17s11p7d1f contracted to 6s4p4d1f pattern {842111/6311/4111/1}

Atom   0Au   basis set group =>   1
Atom   1Au   basis set group =>   1
Atom   2Au   basis set group =>   1
Atom   3Au   basis set group =>   1
Atom   4Au   basis set group =>   1
Atom   5Au   basis set group =>   1
Atom   6Au   basis set group =>   1
Atom   7Au   basis set group =>   1
Atom   8Au   basis set group =>   1
Atom   9Au   basis set group =>   1
Atom  10Au   basis set group =>   1
Atom  11Au   basis set group =>   1
Atom  12Mn   basis set group =>   2
---------------------------------
AUXILIARY/J BASIS SET INFORMATION
---------------------------------
There are 2 groups of distinct atoms

 Group   1 Type Au  : 11s5p5d3f3g contracted to 8s5p5d2f3g pattern {41111111/11111/11111/21/111}
 Group   2 Type Mn  : 19s5p5d3f3g contracted to 8s5p5d2f3g pattern {121111111/11111/11111/21/111}

Atom   0Au   basis set group =>   1
Atom   1Au   basis set group =>   1
Atom   2Au   basis set group =>   1
Atom   3Au   basis set group =>   1
Atom   4Au   basis set group =>   1
Atom   5Au   basis set group =>   1
Atom   6Au   basis set group =>   1
Atom   7Au   basis set group =>   1
Atom   8Au   basis set group =>   1
Atom   9Au   basis set group =>   1
Atom  10Au   basis set group =>   1
Atom  11Au   basis set group =>   1
Atom  12Mn   basis set group =>   2
-------------------------
ECP PARAMETER INFORMATION
-------------------------

 Group 1, Type Au ECP Def2-ECP (replacing 60 core electrons, lmax=3)

Atom   0Au   ECP group =>   1
Atom   1Au   ECP group =>   1
Atom   2Au   ECP group =>   1
Atom   3Au   ECP group =>   1
Atom   4Au   ECP group =>   1
Atom   5Au   ECP group =>   1
Atom   6Au   ECP group =>   1
Atom   7Au   ECP group =>   1
Atom   8Au   ECP group =>   1
Atom   9Au   ECP group =>   1
Atom  10Au   ECP group =>   1
Atom  11Au   ECP group =>   1



           ************************************************************
           *        Program running with 6 parallel MPI-processes     *
           *              working on a common directory               *
           ************************************************************
------------------------------------------------------------------------------
                           ORCA GTO INTEGRAL CALCULATION
                           -- RI-GTO INTEGRALS CHOSEN --
------------------------------------------------------------------------------
------------------------------------------------------------------------------
                   ___                                                        
                  /   \      - P O W E R E D   B Y -                         
                 /     \                                                     
                 |  |  |   _    _      __       _____    __    __             
                 |  |  |  | |  | |    /  \     |  _  \  |  |  /  |          
                  \  \/   | |  | |   /    \    | | | |  |  | /  /          
                 / \  \   | |__| |  /  /\  \   | |_| |  |  |/  /          
                |  |  |   |  __  | /  /__\  \  |    /   |      \           
                |  |  |   | |  | | |   __   |  |    \   |  |\   \          
                \     /   | |  | | |  |  |  |  | |\  \  |  | \   \       
                 \___/    |_|  |_| |__|  |__|  |_| \__\ |__|  \__/        
                                                                              
                      - O R C A' S   B I G   F R I E N D -                    
                                      &                                       
                       - I N T E G R A L  F E E D E R -                       
                                                                              
 v1 FN, 2020, v2 2021                                                         
------------------------------------------------------------------------------


Reading SHARK input file scan.SHARKINP.tmp ... ok
----------------------
SHARK INTEGRAL PACKAGE
----------------------

Number of atoms                             ...     13
Number of basis functions                   ...    525
Number of shells                            ...    183
Maximum angular momentum                    ...      3
Integral batch strategy                     ... SHARK/LIBINT Hybrid
RI-J (if used) integral strategy            ... SPLIT-RIJ (Revised 2003 algorithm where possible)
Printlevel                                  ...      1
Contraction scheme used                     ... SEGMENTED contraction
Coulomb Range Separation                    ... NOT USED
Exchange Range Separation                   ... NOT USED
Finite Nucleus Model                        ... NOT USED
Auxiliary Coulomb fitting basis             ... AVAILABLE
   # of basis functions in Aux-J            ...   1157
   # of shells in Aux-J                     ...    299
   Maximum angular momentum in Aux-J        ...      4
Auxiliary J/K fitting basis                 ... NOT available
Auxiliary Correlation fitting basis         ... NOT available
Auxiliary 'external' fitting basis          ... NOT available
Integral threshold                          ...     1.000000e-10
Primitive cut-off                           ...     1.000000e-11
Primitive pair pre-selection threshold      ...     1.000000e-11

Calculating pre-screening integrals         ... done (  0.2 sec) Dimension = 183
Organizing shell pair data                  ... done (  0.6 sec)
Shell pair information
Total number of shell pairs                 ...     16836
Shell pairs after pre-screening             ...     13633
Total number of primitive shell pairs       ...     45389
Primitive shell pairs kept                  ...     26695
          la=0 lb=0:   2137 shell pairs
          la=1 lb=0:   3091 shell pairs
          la=1 lb=1:   1177 shell pairs
          la=2 lb=0:   2699 shell pairs
          la=2 lb=1:   1910 shell pairs
          la=2 lb=2:    784 shell pairs
          la=3 lb=0:    720 shell pairs
          la=3 lb=1:    550 shell pairs
          la=3 lb=2:    486 shell pairs
          la=3 lb=3:     79 shell pairs

Calculating one electron integrals          ... done (  0.1 sec)
Calculating ECP integrals                   ... done ( 14.5 sec)
Calculating RI/J V-Matrix + Cholesky decomp.... done (  0.1 sec)
Calculating Nuclear repulsion               ... done (  0.0 sec) ENN=   4333.387265418807 Eh

SHARK setup successfully completed in  16.1 seconds

Maximum memory used throughout the entire GTOINT-calculation: 30.6 MB


           ************************************************************
           *        Program running with 6 parallel MPI-processes     *
           *              working on a common directory               *
           ************************************************************
-------------------------------------------------------------------------------
                                 ORCA SCF
-------------------------------------------------------------------------------

------------
SCF SETTINGS
------------
Hamiltonian:
 Density Functional     Method          .... DFT(GTOs)
  Functional kind                       .... Exchange
  Functional name                       .... Re-regularized SCAN exchange by Furness et al
  Functional family                     .... MGGA
  Functional refs                              
    [ 0] J. W. Furness, A. D. Kaplan, J. Ning, J. P. Perdew, and J. Sun, J. Phys. Chem. Lett. 11, 8208 (2020)
    [ 1] J. W. Furness, A. D. Kaplan, J. Ning, J. P. Perdew, and J. Sun, J. Phys. Chem. Lett. 11, 9248 (2020)
  Functional external parameters         .... 8
 Parameter  0 :         c1 parameter
 Parameter  1 :         c2 parameter
 Parameter  2 :          d parameter
 Parameter  3 :         k1 parameter
 Parameter  4 :       taur parameter
 Parameter  5 :     alphar parameter
 Parameter  6 :        eta parameter
 Parameter  7 :        dp2 parameter
  Functional kind                       .... Correlation
  Functional name                       .... Re-regularized SCAN correlation by Furness et al
  Functional family                     .... MGGA
  Functional refs                              
    [ 0] J. W. Furness, A. D. Kaplan, J. Ning, J. P. Perdew, and J. Sun, J. Phys. Chem. Lett. 11, 8208 (2020)
    [ 1] J. W. Furness, A. D. Kaplan, J. Ning, J. P. Perdew, and J. Sun, J. Phys. Chem. Lett. 11, 9248 (2020)
  Functional external parameters         .... 0
 Gradients option       PostSCFGGA      .... off
   Density functional embedding theory  .... OFF
   NL short-range parameter             .... 12.300000
 RI-approximation to the Coulomb term is turned on
   Number of AuxJ basis functions       .... 1157


General Settings:
 Integral files         IntName         .... scan
 Hartree-Fock type      HFTyp           .... UHF
 Total Charge           Charge          ....    0
 Multiplicity           Mult            ....    6
 Number of Electrons    NEL             ....  253
 Basis Dimension        Dim             ....  525
 Nuclear Repulsion      ENuc            ....   4333.3872654188 Eh

Convergence Acceleration:
 DIIS                   CNVDIIS         .... off
 Trust-Rad. Augm. Hess. CNVTRAH         .... auto
   Auto Start mean grad. ratio tolernc. ....  1.125000
   Auto Start start iteration           ....   200
   Auto Start num. interpolation iter.  ....    10
   Max. Number of Micro iterations      ....    16
   Max. Number of Macro iterations      .... Maxiter - #DIIS iter
   Number of Davidson start vectors     ....     2
   Converg. threshold I  (grad. norm)   ....   5.000e-05
   Converg. threshold II (energy diff.) ....   1.000e-06
   Grad. Scal. Fac. for Micro threshold ....   0.100
   Minimum threshold for Micro iter.    ....   0.010
   NR start threshold (gradient norm)   ....   0.001
   Initial trust radius                 ....   0.400
   Minimum AH scaling param. (alpha)    ....   1.000
   Maximum AH scaling param. (alpha)    .... 1000.000
   Orbital update algorithm             .... Taylor
   White noise on init. David. guess    .... on
   Maximum white noise                  ....   0.010
   Quad. conv. algorithm                .... NR
 SOSCF                  CNVSOSCF        .... off
 Level Shifting         CNVShift        .... off
 Zerner damping         CNVZerner       .... off
 Static damping         CNVDamp         .... off
 Fernandez-Rico         CNVRico         .... off

SCF Procedure:
 Maximum # iterations   MaxIter         ....   400
 SCF integral mode      SCFMode         .... Direct
   Integral package                     .... SHARK and LIBINT hybrid scheme
 Reset frequency        DirectResetFreq ....    20
 Integral Threshold     Thresh          ....  1.000e-10 Eh
 Primitive CutOff       TCut            ....  1.000e-11 Eh

Convergence Tolerance:
 Convergence Check Mode ConvCheckMode   .... All-Criteria
 Convergence forced     ConvForced      .... 0
 Energy Change          TolE            ....  1.000e-06 Eh
 Max Density Change     TolMaxP         ....  1.000e-05
 RMS Density Change     TolRMSP         ....  1.000e-06


Diagonalization of the overlap matrix:
Smallest eigenvalue                        ... 5.705e-04
Time for diagonalization                   ...    0.113 sec
Threshold for overlap eigenvalues          ... 1.000e-08
Number of eigenvalues below threshold      ... 0
Time for construction of square roots      ...    0.059 sec
Total time needed                          ...    0.175 sec

Time for model grid setup =    0.754 sec

------------------------------
INITIAL GUESS: MODEL POTENTIAL
------------------------------
Loading Hartree-Fock densities                     ... done
  calling /home/ehlert/src/miniconda3/envs/orca500/Programs/ORCA501/orca scan_atom79.inp > scan_atom79.out in order to generate an atomic fitting density for atom 0 (Au with ECP) on-the-fly... 
    atom 0 (Au), assumed electronic state with S=2: 1s2 2s2 2p6 3s2 3p6 4s2 3d10 4p6 5s2 4d10 5p6 6s1 4f14 5d10           ... done
Calculating cut-offs                               ... done
Initializing the effective Hamiltonian             ... done
Setting up the integral package (SHARK)            ... done
Starting the Coulomb interaction                   ... done (   0.7 sec)
Reading the grid                                   ... done
Mapping shells                                     ... done
Starting the XC term evaluation                    ... done (   0.6 sec)
  promolecular density results
     # of electrons  =    973.012950270
     EX              =  -4440.442045189
     EC              =    -59.202144691
     EX+EC           =  -4499.644189880
Transforming the Hamiltonian                       ... done (   0.1 sec)
Diagonalizing the Hamiltonian                      ... done (   0.1 sec)
Back transforming the eigenvectors                 ... done (   0.0 sec)
Now organizing SCF variables                       ... done
                      ------------------
                      INITIAL GUESS DONE (   3.4 sec)
                      ------------------
-------------------
DFT GRID GENERATION
-------------------

General Integration Accuracy     IntAcc      ... 4.388
Radial Grid Type                 RadialGrid  ... OptM3 with GC (2021)
Angular Grid (max. ang.)         AngularGrid ... 4 (Lebedev-302)
Angular grid pruning method      GridPruning ... 4 (adaptive)
Weight generation scheme         WeightScheme... Becke
Basis function cutoff            BFCut       ... 1.0000e-10
Integration weight cutoff        WCut        ... 1.0000e-14
Angular grids for H and He will be reduced by one unit
Partially contracted basis set               ... off
Rotationally invariant grid construction     ... off

Total number of grid points                  ...   144625
Total number of batches                      ...     2265
Average number of points per batch           ...       63
Average number of grid points per atom       ...    11125
Time for grid setup =    2.355 sec

--------------
SCF ITERATIONS
--------------
ITER       Energy         Delta-E        Max-DP      RMS-DP      [F,P]   Gradient Norm
               ***  Starting incremental Fock matrix formation  ***
                             ****Resetting KDIIS****
                             ****Turning on KDIIS(Cayley)****
  0  -2779.4861382220   0.000000000000 0.11107009  0.00102587  0.3803510   0.211885085
  1  -2780.3068191261  -0.820680904058 0.12453612  0.00104423  0.3404051   0.168206994
  2  -2780.7082473841  -0.401428258019 0.10771010  0.00116154  0.2690981   0.128087946
  3  -2780.9647750708  -0.256527686685 0.15814931  0.00155089  0.1577564   0.074953918
  4  -2781.0594306042  -0.094655533418 0.06430661  0.00054524  0.0386382   0.022055662
  5  -2781.1038904135  -0.044459809320 0.04148262  0.00041575  0.0246068   0.006669566
  6  -2781.1247574182  -0.020867004652 0.05124960  0.00060002  0.0282397   0.005254262
  7  -2781.1417421338  -0.016984715566 0.02245795  0.00026447  0.0074397   0.005906276
  8  -2781.1411875448   0.000554589014 0.02939002  0.00023627  0.0063805   0.007906481
  9  -2781.1478808882  -0.006693343465 0.01183472  0.00008850  0.0045153   0.002895067
 10  -2781.1486475408  -0.000766652585 0.00424816  0.00006757  0.0032590   0.001626120
 11  -2781.1491802044  -0.000532663611 0.00671882  0.00004975  0.0017777   0.001012249
 12  -2781.1492376115  -0.000057407075 0.00517990  0.00003000  0.0014463   0.000973543
 13  -2781.1493110665  -0.000073455027 0.00374620  0.00003433  0.0011162   0.000593482
 14  -2781.1493918408  -0.000080774329 0.00365475  0.00003903  0.0010305   0.000420345
 15  -2781.1494649093  -0.000073068488 0.00147431  0.00001693  0.0009138   0.000605230
 16  -2781.1494478766   0.000017032717 0.00112540  0.00001402  0.0007269   0.000336138
 17  -2781.1494591209  -0.000011244262 0.00134987  0.00001616  0.0006261   0.000247122
 18  -2781.1494835166  -0.000024395682 0.00155402  0.00000960  0.0005330   0.000203858
 19  -2781.1494851251  -0.000001608528 0.00138890  0.00000733  0.0005520   0.000221442
               *** Restarting incremental Fock matrix formation ***
                             ****Resetting KDIIS****
 20  -2781.1494930437  -0.000007918626 0.00010346  0.00000110  0.0004399   0.000124814
 21  -2781.1494942019  -0.000001158190 0.00015424  0.00000190  0.0004421   0.000095591
 22  -2781.1494956027  -0.000001400769 0.00051101  0.00000651  0.0004266   0.000081959
 23  -2781.1495005821  -0.000004979433 0.00279196  0.00003396  0.0003777   0.000079943
 24  -2781.1495093916  -0.000008809520 0.00038001  0.00000485  0.0001190   0.000089367
 25  -2781.1495141617  -0.000004770105 0.00062514  0.00000228  0.0000329   0.000017166
                          ***Energy convergence achieved***
 26  -2781.1495139383   0.000000223416 0.00008952  0.00000130  0.0000298   0.000033880
 27  -2781.1495142761  -0.000000337789 0.00012035  0.00000122  0.0000275   0.000006396
 28  -2781.1495141601   0.000000115999 0.00012775  0.00000169  0.0000161   0.000012291
                           ***RMSP convergence achieved***

            ***Energy convergence in two consecutive cycles with***
                    ***'reasonable' density convergence***
                       *** signaling convergence ***

                    *** KDIIS BlockDiag ( 0.262 sec) ***

               *****************************************************
               *                     SUCCESS                       *
               *           SCF CONVERGED AFTER  29 CYCLES          *
               *****************************************************


----------------
TOTAL SCF ENERGY
----------------

Total Energy       :        -2781.14951460 Eh          -75678.92573 eV

Components:
Nuclear Repulsion  :         4333.38726542 Eh          117917.46230 eV
Electronic Energy  :        -7114.53678002 Eh         -193596.38803 eV
One Electron Energy:       -13109.82697057 Eh         -356736.52800 eV
Two Electron Energy:         5995.29019055 Eh          163140.13997 eV

Virial components:
Potential Energy   :        -4480.89048881 Eh         -121931.22906 eV
Kinetic Energy     :         1699.74097421 Eh           46252.30333 eV
Virial Ratio       :            2.63621961


DFT components:
N(Alpha)           :      129.000003284731 electrons
N(Beta)            :      124.000009207935 electrons
N(Total)           :      253.000012492665 electrons
E(X)               :     -196.787901791886 Eh       
E(C)               :      -10.476444872809 Eh       
E(XC)              :     -207.264346664696 Eh       
DFET-embed. en.    :        0.000000000000 Eh       

---------------
SCF CONVERGENCE
---------------

  Last Energy change         ...   -4.4205e-07  Tolerance :   1.0000e-06
  Last MAX-Density change    ...    4.6678e-05  Tolerance :   1.0000e-05
  Last RMS-Density change    ...    4.1594e-07  Tolerance :   1.0000e-06

             **** THE GBW FILE WAS UPDATED (scan.gbw) ****
             **** DENSITY scan.scfp WAS UPDATED ****
             **** ENERGY FILE WAS UPDATED (scan.en.tmp) ****
----------------------
UHF SPIN CONTAMINATION
----------------------

Warning: in a DFT calculation there is little theoretical justification to 
         calculate <S**2> as in Hartree-Fock theory. We will do it anyways
         but you should keep in mind that the values have only limited relevance

Expectation value of <S**2>     :     8.775666
Ideal value S*(S+1) for S=2.5   :     8.750000
Deviation                       :     0.025666

             **** THE GBW FILE WAS UPDATED (scan.gbw) ****
             **** DENSITY scan.scfp WAS UPDATED ****
----------------
ORBITAL ENERGIES
----------------
                 SPIN UP ORBITALS
  NO   OCC          E(Eh)            E(eV) 
   0   1.0000    -235.049584     -6396.0243 
   1   1.0000     -27.228491      -740.9249 
   2   1.0000     -23.276370      -633.3822 
   3   1.0000     -23.274667      -633.3359 
   4   1.0000     -23.273720      -633.3101 
   5   1.0000      -4.131161      -112.4146 
   6   1.0000      -4.125290      -112.2549 
   7   1.0000      -4.124787      -112.2412 
   8   1.0000      -4.119743      -112.1039 
   9   1.0000      -4.119414      -112.0950 
  10   1.0000      -4.118155      -112.0607 
  11   1.0000      -4.117723      -112.0489 
  12   1.0000      -4.113816      -111.9426 
  13   1.0000      -4.113400      -111.9313 
  14   1.0000      -4.109716      -111.8311 
  15   1.0000      -4.109152      -111.8157 
  16   1.0000      -4.108884      -111.8084 
  17   1.0000      -3.253297       -88.5267 
  18   1.0000      -2.321067       -63.1594 
  19   1.0000      -2.316151       -63.0257 
  20   1.0000      -2.315312       -63.0029 
  21   1.0000      -2.315129       -62.9979 
  22   1.0000      -2.312006       -62.9129 
  23   1.0000      -2.311626       -62.9025 
  24   1.0000      -2.310978       -62.8849 
  25   1.0000      -2.310826       -62.8808 
  26   1.0000      -2.308806       -62.8258 
  27   1.0000      -2.307408       -62.7878 
  28   1.0000      -2.307115       -62.7798 
  29   1.0000      -2.306968       -62.7758 
  30   1.0000      -2.305606       -62.7387 
  31   1.0000      -2.305373       -62.7324 
  32   1.0000      -2.304474       -62.7079 
  33   1.0000      -2.303421       -62.6793 
  34   1.0000      -2.302729       -62.6604 
  35   1.0000      -2.302180       -62.6455 
  36   1.0000      -2.302043       -62.6418 
  37   1.0000      -2.301729       -62.6332 
  38   1.0000      -2.301317       -62.6220 
  39   1.0000      -2.301008       -62.6136 
  40   1.0000      -2.300811       -62.6082 
  41   1.0000      -2.300654       -62.6040 
  42   1.0000      -2.298874       -62.5555 
  43   1.0000      -2.298346       -62.5412 
  44   1.0000      -2.297394       -62.5153 
  45   1.0000      -2.295950       -62.4760 
  46   1.0000      -2.295764       -62.4709 
  47   1.0000      -2.295556       -62.4653 
  48   1.0000      -2.295100       -62.4529 
  49   1.0000      -2.294660       -62.4409 
  50   1.0000      -2.293738       -62.4158 
  51   1.0000      -2.292874       -62.3923 
  52   1.0000      -2.292405       -62.3795 
  53   1.0000      -2.290441       -62.3261 
  54   1.0000      -2.112591       -57.4865 
  55   1.0000      -2.109115       -57.3919 
  56   1.0000      -2.107722       -57.3540 
  57   1.0000      -0.429953       -11.6996 
  58   1.0000      -0.395435       -10.7603 
  59   1.0000      -0.388958       -10.5841 
  60   1.0000      -0.386241       -10.5102 
  61   1.0000      -0.379378       -10.3234 
  62   1.0000      -0.378947       -10.3117 
  63   1.0000      -0.375217       -10.2102 
  64   1.0000      -0.371396       -10.1062 
  65   1.0000      -0.368196       -10.0191 
  66   1.0000      -0.362201        -9.8560 
  67   1.0000      -0.360207        -9.8017 
  68   1.0000      -0.357101        -9.7172 
  69   1.0000      -0.355108        -9.6630 
  70   1.0000      -0.353197        -9.6110 
  71   1.0000      -0.351621        -9.5681 
  72   1.0000      -0.348060        -9.4712 
  73   1.0000      -0.346305        -9.4234 
  74   1.0000      -0.344031        -9.3616 
  75   1.0000      -0.343360        -9.3433 
  76   1.0000      -0.340498        -9.2654 
  77   1.0000      -0.339459        -9.2372 
  78   1.0000      -0.336247        -9.1498 
  79   1.0000      -0.335400        -9.1267 
  80   1.0000      -0.332062        -9.0359 
  81   1.0000      -0.329535        -8.9671 
  82   1.0000      -0.328062        -8.9270 
  83   1.0000      -0.324877        -8.8404 
  84   1.0000      -0.320214        -8.7135 
  85   1.0000      -0.319153        -8.6846 
  86   1.0000      -0.318364        -8.6631 
  87   1.0000      -0.312177        -8.4948 
  88   1.0000      -0.309508        -8.4221 
  89   1.0000      -0.307229        -8.3601 
  90   1.0000      -0.306178        -8.3315 
  91   1.0000      -0.303771        -8.2660 
  92   1.0000      -0.302056        -8.2194 
  93   1.0000      -0.296386        -8.0651 
  94   1.0000      -0.293002        -7.9730 
  95   1.0000      -0.290861        -7.9147 
  96   1.0000      -0.287300        -7.8178 
  97   1.0000      -0.285295        -7.7633 
  98   1.0000      -0.284315        -7.7366 
  99   1.0000      -0.283043        -7.7020 
 100   1.0000      -0.280580        -7.6350 
 101   1.0000      -0.279983        -7.6187 
 102   1.0000      -0.277494        -7.5510 
 103   1.0000      -0.276629        -7.5275 
 104   1.0000      -0.273937        -7.4542 
 105   1.0000      -0.273527        -7.4431 
 106   1.0000      -0.272384        -7.4119 
 107   1.0000      -0.269842        -7.3428 
 108   1.0000      -0.267700        -7.2845 
 109   1.0000      -0.267596        -7.2817 
 110   1.0000      -0.265552        -7.2261 
 111   1.0000      -0.264700        -7.2029 
 112   1.0000      -0.263166        -7.1611 
 113   1.0000      -0.262015        -7.1298 
 114   1.0000      -0.261197        -7.1075 
 115   1.0000      -0.259919        -7.0727 
 116   1.0000      -0.259315        -7.0563 
 117   1.0000      -0.258242        -7.0271 
 118   1.0000      -0.256521        -6.9803 
 119   1.0000      -0.255961        -6.9650 
 120   1.0000      -0.254819        -6.9340 
 121   1.0000      -0.250500        -6.8165 
 122   1.0000      -0.248378        -6.7587 
 123   1.0000      -0.247033        -6.7221 
 124   1.0000      -0.238810        -6.4983 
 125   1.0000      -0.237300        -6.4573 
 126   1.0000      -0.212222        -5.7749 
 127   1.0000      -0.207023        -5.6334 
 128   1.0000      -0.198695        -5.4068 
 129   0.0000      -0.165675        -4.5083 
 130   0.0000      -0.153392        -4.1740 
 131   0.0000      -0.126655        -3.4465 
 132   0.0000      -0.121681        -3.3111 
 133   0.0000      -0.112317        -3.0563 
 134   0.0000      -0.108788        -2.9603 
 135   0.0000      -0.077455        -2.1077 
 136   0.0000      -0.066078        -1.7981 
 137   0.0000      -0.063263        -1.7215 
 138   0.0000      -0.051300        -1.3959 
 139   0.0000      -0.042820        -1.1652 
 140   0.0000      -0.021186        -0.5765 
 141   0.0000      -0.012867        -0.3501 
 142   0.0000      -0.011447        -0.3115 
 143   0.0000      -0.007518        -0.2046 
 144   0.0000       0.002827         0.0769 
 145   0.0000       0.006199         0.1687 
 146   0.0000       0.012116         0.3297 
 147   0.0000       0.019660         0.5350 
 148   0.0000       0.043104         1.1729 
 149   0.0000       0.044341         1.2066 
 150   0.0000       0.052824         1.4374 
 151   0.0000       0.058055         1.5798 
 152   0.0000       0.064203         1.7470 
 153   0.0000       0.068317         1.8590 
 154   0.0000       0.072240         1.9658 
 155   0.0000       0.074630         2.0308 
 156   0.0000       0.080526         2.1912 
 157   0.0000       0.083527         2.2729 
 158   0.0000       0.086663         2.3582 
 159   0.0000       0.087085         2.3697 
 160   0.0000       0.091984         2.5030 
 161   0.0000       0.097926         2.6647 
 162   0.0000       0.102179         2.7804 
 163   0.0000       0.103804         2.8246 
 164   0.0000       0.122258         3.3268 
 165   0.0000       0.127863         3.4793 
 166   0.0000       0.133556         3.6342 
 167   0.0000       0.143442         3.9033 
 168   0.0000       0.145430         3.9573 
 169   0.0000       0.153517         4.1774 
 170   0.0000       0.159338         4.3358 
 171   0.0000       0.160298         4.3619 
 172   0.0000       0.164980         4.4893 
 173   0.0000       0.169127         4.6022 
 174   0.0000       0.174591         4.7509 
 175   0.0000       0.179344         4.8802 
 176   0.0000       0.180868         4.9217 
 177   0.0000       0.187567         5.1040 
 178   0.0000       0.190490         5.1835 
 179   0.0000       0.199660         5.4330 
 180   0.0000       0.213987         5.8229 
 181   0.0000       0.219077         5.9614 
 182   0.0000       0.232429         6.3247 
 183   0.0000       0.241822         6.5803 
 184   0.0000       0.243071         6.6143 
 185   0.0000       0.246456         6.7064 
 186   0.0000       0.249333         6.7847 
 187   0.0000       0.258851         7.0437 
 188   0.0000       0.261908         7.1269 
 189   0.0000       0.262450         7.1416 
 190   0.0000       0.269293         7.3278 
 191   0.0000       0.273309         7.4371 
 192   0.0000       0.277136         7.5412 
 193   0.0000       0.278715         7.5842 
 194   0.0000       0.280015         7.6196 
 195   0.0000       0.296267         8.0618 
 196   0.0000       0.300474         8.1763 
 197   0.0000       0.304232         8.2786 
 198   0.0000       0.304854         8.2955 
 199   0.0000       0.313488         8.5304 
 200   0.0000       0.316492         8.6122 
 201   0.0000       0.318938         8.6788 
 202   0.0000       0.321265         8.7421 
 203   0.0000       0.337663         9.1883 
 204   0.0000       0.339065         9.2264 
 205   0.0000       0.347300         9.4505 
 206   0.0000       0.350285         9.5317 
 207   0.0000       0.353935         9.6311 
 208   0.0000       0.357810         9.7365 
 209   0.0000       0.368392        10.0245 
 210   0.0000       0.371529        10.1098 
 211   0.0000       0.372706        10.1418 
 212   0.0000       0.373656        10.1677 
 213   0.0000       0.379613        10.3298 
 214   0.0000       0.384492        10.4626 
 215   0.0000       0.386038        10.5046 
 216   0.0000       0.388366        10.5680 
 217   0.0000       0.396711        10.7950 
 218   0.0000       0.402701        10.9581 
 219   0.0000       0.409768        11.1504 
 220   0.0000       0.420061        11.4304 
 221   0.0000       0.425624        11.5818 
 222   0.0000       0.430808        11.7229 
 223   0.0000       0.435035        11.8379 
 224   0.0000       0.437899        11.9158 
 225   0.0000       0.448965        12.2170 
 226   0.0000       0.460391        12.5279 
 227   0.0000       0.467082        12.7100 
 228   0.0000       0.469180        12.7670 
 229   0.0000       0.477531        12.9943 
 230   0.0000       0.479609        13.0508 
 231   0.0000       0.484106        13.1732 
 232   0.0000       0.494504        13.4561 
 233   0.0000       0.495165        13.4741 
 234   0.0000       0.498144        13.5552 
 235   0.0000       0.500115        13.6088 
 236   0.0000       0.504513        13.7285 
 237   0.0000       0.510043        13.8790 
 238   0.0000       0.510775        13.8989 
 239   0.0000       0.518294        14.1035 
 240   0.0000       0.522056        14.2059 
 241   0.0000       0.532348        14.4859 
 242   0.0000       0.535451        14.5704 
 243   0.0000       0.535670        14.5763 
 244   0.0000       0.543515        14.7898 
 245   0.0000       0.544207        14.8086 
 246   0.0000       0.547854        14.9079 
 247   0.0000       0.552704        15.0398 
 248   0.0000       0.566350        15.4112 
 249   0.0000       0.570807        15.5325 
 250   0.0000       0.574752        15.6398 
 251   0.0000       0.596224        16.2241 
 252   0.0000       0.635729        17.2991 
 253   0.0000       0.656792        17.8722 
 254   0.0000       0.692515        18.8443 
 255   0.0000       0.697493        18.9797 
 256   0.0000       0.721458        19.6319 
 257   0.0000       0.726995        19.7825 
 258   0.0000       0.732757        19.9393 
 259   0.0000       0.735843        20.0233 
 260   0.0000       0.740626        20.1535 
 261   0.0000       0.761460        20.7204 
 262   0.0000       0.764264        20.7967 
 263   0.0000       0.780755        21.2454 
 264   0.0000       0.785847        21.3840 
 265   0.0000       0.794980        21.6325 
 266   0.0000       0.806808        21.9544 
 267   0.0000       0.814214        22.1559 
 268   0.0000       0.827283        22.5115 
 269   0.0000       0.830245        22.5921 
 270   0.0000       0.839349        22.8399 
 271   0.0000       0.841605        22.9012 
 272   0.0000       0.846378        23.0311 
 273   0.0000       0.856098        23.2956 
 274   0.0000       0.864244        23.5173 
 275   0.0000       0.868554        23.6346 
 276   0.0000       0.880994        23.9731 
 277   0.0000       0.882550        24.0154 
 278   0.0000       0.898298        24.4439 
 279   0.0000       0.900988        24.5171 
 280   0.0000       0.914811        24.8933 
 281   0.0000       0.923711        25.1355 
 282   0.0000       0.927690        25.2437 
 283   0.0000       0.935532        25.4571 
 284   0.0000       0.955289        25.9947 
 285   0.0000       0.959433        26.1075 
 286   0.0000       0.979303        26.6482 
 287   0.0000       1.016862        27.6702 
 288   0.0000       1.037929        28.2435 
 289   0.0000       1.052816        28.6486 
 290   0.0000       1.067840        29.0574 
 291   0.0000       1.122890        30.5554 
 292   0.0000       1.189253        32.3612 
 293   0.0000       1.247279        33.9402 
 294   0.0000       1.272720        34.6325 
 295   0.0000       1.284293        34.9474 
 296   0.0000       1.285447        34.9788 
 297   0.0000       1.298365        35.3303 
 298   0.0000       1.302783        35.4505 
 299   0.0000       1.331849        36.2415 
 300   0.0000       1.344551        36.5871 
 301   0.0000       1.363691        37.1079 
 302   0.0000       1.366483        37.1839 
 303   0.0000       1.369674        37.2707 
 304   0.0000       1.374275        37.3959 
 305   0.0000       1.375744        37.4359 
 306   0.0000       1.384216        37.6664 
 307   0.0000       1.388297        37.7775 
 308   0.0000       1.393707        37.9247 
 309   0.0000       1.416913        38.5562 
 310   0.0000       1.417338        38.5677 
 311   0.0000       1.436189        39.0807 
 312   0.0000       1.446772        39.3687 
 313   0.0000       1.448499        39.4157 
 314   0.0000       1.455992        39.6195 
 315   0.0000       1.462484        39.7962 
 316   0.0000       1.464979        39.8641 
 317   0.0000       1.466442        39.9039 
 318   0.0000       1.467997        39.9462 
 319   0.0000       1.473804        40.1042 
 320   0.0000       1.477631        40.2084 
 321   0.0000       1.485273        40.4163 
 322   0.0000       1.486837        40.4589 
 323   0.0000       1.487880        40.4873 
 324   0.0000       1.494511        40.6677 
 325   0.0000       1.500781        40.8383 
 326   0.0000       1.502722        40.8911 
 327   0.0000       1.507631        41.0247 
 328   0.0000       1.516628        41.2695 
 329   0.0000       1.517811        41.3017 
 330   0.0000       1.521581        41.4043 
 331   0.0000       1.526366        41.5345 
 332   0.0000       1.529242        41.6128 
 333   0.0000       1.531563        41.6760 
 334   0.0000       1.533530        41.7295 
 335   0.0000       1.538425        41.8627 
 336   0.0000       1.540526        41.9198 
 337   0.0000       1.542448        41.9721 
 338   0.0000       1.543502        42.0008 
 339   0.0000       1.548896        42.1476 
 340   0.0000       1.549560        42.1657 
 341   0.0000       1.551794        42.2264 
 342   0.0000       1.553014        42.2597 
 343   0.0000       1.555918        42.3387 
 344   0.0000       1.556775        42.3620 
 345   0.0000       1.558350        42.4049 
 346   0.0000       1.560165        42.4542 
 347   0.0000       1.561717        42.4965 
 348   0.0000       1.563065        42.5332 
 349   0.0000       1.563705        42.5506 
 350   0.0000       1.564341        42.5679 
 351   0.0000       1.565487        42.5991 
 352   0.0000       1.568429        42.6791 
 353   0.0000       1.570250        42.7287 
 354   0.0000       1.571647        42.7667 
 355   0.0000       1.572459        42.7888 
 356   0.0000       1.574848        42.8538 
 357   0.0000       1.576596        42.9014 
 358   0.0000       1.579018        42.9673 
 359   0.0000       1.579470        42.9796 
 360   0.0000       1.582069        43.0503 
 361   0.0000       1.583623        43.0926 
 362   0.0000       1.584163        43.1073 
 363   0.0000       1.584743        43.1231 
 364   0.0000       1.588888        43.2358 
 365   0.0000       1.589725        43.2586 
 366   0.0000       1.592990        43.3475 
 367   0.0000       1.595141        43.4060 
 368   0.0000       1.596619        43.4462 
 369   0.0000       1.598964        43.5100 
 370   0.0000       1.599941        43.5366 
 371   0.0000       1.600145        43.5422 
 372   0.0000       1.603790        43.6413 
 373   0.0000       1.607775        43.7498 
 374   0.0000       1.609150        43.7872 
 375   0.0000       1.611417        43.8489 
 376   0.0000       1.612146        43.8687 
 377   0.0000       1.618249        44.0348 
 378   0.0000       1.619382        44.0656 
 379   0.0000       1.621075        44.1117 
 380   0.0000       1.622365        44.1468 
 381   0.0000       1.627674        44.2913 
 382   0.0000       1.629155        44.3316 
 383   0.0000       1.630989        44.3815 
 384   0.0000       1.633494        44.4496 
 385   0.0000       1.635088        44.4930 
 386   0.0000       1.637526        44.5593 
 387   0.0000       1.641190        44.6590 
 388   0.0000       1.641509        44.6677 
 389   0.0000       1.643666        44.7264 
 390   0.0000       1.646966        44.8162 
 391   0.0000       1.648440        44.8563 
 392   0.0000       1.650561        44.9141 
 393   0.0000       1.652519        44.9673 
 394   0.0000       1.656140        45.0659 
 395   0.0000       1.660672        45.1892 
 396   0.0000       1.661819        45.2204 
 397   0.0000       1.665505        45.3207 
 398   0.0000       1.668540        45.4033 
 399   0.0000       1.669887        45.4399 
 400   0.0000       1.674282        45.5595 
 401   0.0000       1.677363        45.6434 
 402   0.0000       1.678269        45.6680 
 403   0.0000       1.684405        45.8350 
 404   0.0000       1.689041        45.9611 
 405   0.0000       1.692394        46.0524 
 406   0.0000       1.696679        46.1690 
 407   0.0000       1.705852        46.4186 
 408   0.0000       1.717042        46.7231 
 409   0.0000       1.717960        46.7481 
 410   0.0000       1.730019        47.0762 
 411   0.0000       1.733014        47.1577 
 412   0.0000       1.739216        47.3265 
 413   0.0000       1.747308        47.5467 
 414   0.0000       1.753278        47.7091 
 415   0.0000       1.756691        47.8020 
 416   0.0000       1.763017        47.9741 
 417   0.0000       1.792599        48.7791 
 418   0.0000       1.809518        49.2395 
 419   0.0000       1.814488        49.3747 
 420   0.0000       1.829684        49.7882 
 421   0.0000       1.837690        50.0061 
 422   0.0000       1.848086        50.2890 
 423   0.0000       1.856987        50.5312 
 424   0.0000       1.860571        50.6287 
 425   0.0000       1.883388        51.2496 
 426   0.0000       1.900946        51.7274 
 427   0.0000       1.903558        51.7985 
 428   0.0000       1.910207        51.9794 
 429   0.0000       1.917818        52.1865 
 430   0.0000       1.934814        52.6490 
 431   0.0000       1.939896        52.7872 
 432   0.0000       1.955625        53.2153 
 433   0.0000       1.963332        53.4250 
 434   0.0000       1.973805        53.7100 
 435   0.0000       2.005575        54.5745 
 436   0.0000       2.012594        54.7655 
 437   0.0000       2.159559        58.7646 
 438   0.0000       2.225961        60.5715 
 439   0.0000       2.320788        63.1518 
 440   0.0000       2.326236        63.3001 
 441   0.0000       2.377258        64.6885 
 442   0.0000       2.392412        65.1009 
 443   0.0000       2.452200        66.7278 
 444   0.0000       2.466711        67.1226 
 445   0.0000       2.480215        67.4901 
 446   0.0000       2.510234        68.3069 
 447   0.0000       2.559714        69.6534 
 448   0.0000       2.567342        69.8609 
 449   0.0000       2.578237        70.1574 
 450   0.0000       2.598788        70.7166 
 451   0.0000       2.632768        71.6413 
 452   0.0000       3.016090        82.0720 
 453   0.0000       3.295805        89.6834 
 454   0.0000       3.299571        89.7859 
 455   0.0000       3.305899        89.9581 
 456   0.0000       3.318873        90.3111 
 457   0.0000       3.319353        90.3242 
 458   0.0000       3.329097        90.5893 
 459   0.0000       3.332331        90.6773 
 460   0.0000       3.352180        91.2175 
 461   0.0000       3.446463        93.7830 
 462   0.0000       3.457082        94.0720 
 463   0.0000       3.465048        94.2887 
 464   0.0000       3.606399        98.1351 
 465   0.0000      23.911119       650.6546 
 466   0.0000      24.095218       655.6642 
 467   0.0000      24.242725       659.6781 
 468   0.0000      24.281974       660.7461 
 469   0.0000      24.598940       669.3712 
 470   0.0000      24.715624       672.5463 
 471   0.0000      24.933875       678.4852 
 472   0.0000      25.011792       680.6055 
 473   0.0000      25.342274       689.5983 
 474   0.0000      25.464998       692.9378 
 475   0.0000      25.529313       694.6879 
 476   0.0000      25.623199       697.2427 
 477   0.0000      25.715294       699.7487 
 478   0.0000      25.782828       701.5864 
 479   0.0000      25.829905       702.8675 
 480   0.0000      25.885129       704.3702 
 481   0.0000      26.038225       708.5361 
 482   0.0000      26.167936       712.0657 
 483   0.0000      26.336543       716.6538 
 484   0.0000      26.468673       720.2492 
 485   0.0000      26.567946       722.9506 
 486   0.0000      26.748421       727.8615 
 487   0.0000      26.838137       730.3028 
 488   0.0000      26.861749       730.9454 
 489   0.0000      27.037843       735.7371 
 490   0.0000      27.309991       743.1426 
 491   0.0000      27.372974       744.8565 
 492   0.0000      27.493208       748.1282 
 493   0.0000      27.557856       749.8874 
 494   0.0000      27.742561       754.9135 
 495   0.0000      27.871576       758.4241 
 496   0.0000      27.883772       758.7560 
 497   0.0000      27.965794       760.9879 
 498   0.0000      28.198046       767.3078 
 499   0.0000      28.327815       770.8390 
 500   0.0000      29.173870       793.8614 
 501   0.0000      44.394032      1208.0230 
 502   0.0000      44.481705      1210.4087 
 503   0.0000      44.499392      1210.8900 
 504   0.0000      44.553154      1212.3530 
 505   0.0000      44.563121      1212.6242 
 506   0.0000      44.581504      1213.1244 
 507   0.0000      44.603620      1213.7262 
 508   0.0000      44.629026      1214.4175 
 509   0.0000      44.637657      1214.6524 
 510   0.0000      44.652069      1215.0446 
 511   0.0000      44.694223      1216.1916 
 512   0.0000      44.716958      1216.8103 
 513   0.0000     205.256196      5585.3051 
 514   0.0000     205.291698      5586.2711 
 515   0.0000     205.296563      5586.4035 
 516   0.0000     205.317829      5586.9822 
 517   0.0000     205.327143      5587.2356 
 518   0.0000     205.330039      5587.3144 
 519   0.0000     205.344569      5587.7098 
 520   0.0000     205.352995      5587.9391 
 521   0.0000     205.356640      5588.0383 
 522   0.0000     205.363648      5588.2290 
 523   0.0000     205.375164      5588.5423 
 524   0.0000     205.383018      5588.7561 

                 SPIN DOWN ORBITALS
  NO   OCC          E(Eh)            E(eV) 
   0   1.0000    -235.048538     -6395.9959 
   1   1.0000     -27.138160      -738.4669 
   2   1.0000     -23.206497      -631.4809 
   3   1.0000     -23.205506      -631.4539 
   4   1.0000     -23.204902      -631.4375 
   5   1.0000      -4.130005      -112.3832 
   6   1.0000      -4.124612      -112.2364 
   7   1.0000      -4.124139      -112.2235 
   8   1.0000      -4.118497      -112.0700 
   9   1.0000      -4.118165      -112.0610 
  10   1.0000      -4.117374      -112.0394 
  11   1.0000      -4.116892      -112.0263 
  12   1.0000      -4.112744      -111.9135 
  13   1.0000      -4.112288      -111.9010 
  14   1.0000      -4.109622      -111.8285 
  15   1.0000      -4.108918      -111.8093 
  16   1.0000      -4.108644      -111.8019 
  17   1.0000      -3.037233       -82.6473 
  18   1.0000      -2.319760       -63.1239 
  19   1.0000      -2.314624       -62.9841 
  20   1.0000      -2.314328       -62.9761 
  21   1.0000      -2.314086       -62.9695 
  22   1.0000      -2.310943       -62.8840 
  23   1.0000      -2.310705       -62.8775 
  24   1.0000      -2.310035       -62.8592 
  25   1.0000      -2.309588       -62.8471 
  26   1.0000      -2.308256       -62.8108 
  27   1.0000      -2.306854       -62.7727 
  28   1.0000      -2.305534       -62.7368 
  29   1.0000      -2.305151       -62.7263 
  30   1.0000      -2.304671       -62.7133 
  31   1.0000      -2.304387       -62.7056 
  32   1.0000      -2.303235       -62.6742 
  33   1.0000      -2.302326       -62.6495 
  34   1.0000      -2.301527       -62.6277 
  35   1.0000      -2.301023       -62.6140 
  36   1.0000      -2.300824       -62.6086 
  37   1.0000      -2.300496       -62.5997 
  38   1.0000      -2.300425       -62.5977 
  39   1.0000      -2.299998       -62.5861 
  40   1.0000      -2.299593       -62.5751 
  41   1.0000      -2.299295       -62.5670 
  42   1.0000      -2.298602       -62.5481 
  43   1.0000      -2.298256       -62.5387 
  44   1.0000      -2.296291       -62.4853 
  45   1.0000      -2.295545       -62.4649 
  46   1.0000      -2.295238       -62.4566 
  47   1.0000      -2.294877       -62.4468 
  48   1.0000      -2.294415       -62.4342 
  49   1.0000      -2.294083       -62.4252 
  50   1.0000      -2.293548       -62.4106 
  51   1.0000      -2.292664       -62.3866 
  52   1.0000      -2.292189       -62.3736 
  53   1.0000      -2.290435       -62.3259 
  54   1.0000      -1.896164       -51.5972 
  55   1.0000      -1.894893       -51.5626 
  56   1.0000      -1.893890       -51.5354 
  57   1.0000      -0.423033       -11.5113 
  58   1.0000      -0.388528       -10.5724 
  59   1.0000      -0.385335       -10.4855 
  60   1.0000      -0.381509       -10.3814 
  61   1.0000      -0.372608       -10.1392 
  62   1.0000      -0.369814       -10.0631 
  63   1.0000      -0.369371       -10.0511 
  64   1.0000      -0.365789        -9.9536 
  65   1.0000      -0.364853        -9.9281 
  66   1.0000      -0.358573        -9.7573 
  67   1.0000      -0.355478        -9.6730 
  68   1.0000      -0.354420        -9.6443 
  69   1.0000      -0.352263        -9.5856 
  70   1.0000      -0.351441        -9.5632 
  71   1.0000      -0.346606        -9.4316 
  72   1.0000      -0.345485        -9.4011 
  73   1.0000      -0.342120        -9.3096 
  74   1.0000      -0.339888        -9.2488 
  75   1.0000      -0.339299        -9.2328 
  76   1.0000      -0.336454        -9.1554 
  77   1.0000      -0.333336        -9.0705 
  78   1.0000      -0.332451        -9.0465 
  79   1.0000      -0.331703        -9.0261 
  80   1.0000      -0.328057        -8.9269 
  81   1.0000      -0.324439        -8.8284 
  82   1.0000      -0.319906        -8.7051 
  83   1.0000      -0.318553        -8.6683 
  84   1.0000      -0.316513        -8.6128 
  85   1.0000      -0.311189        -8.4679 
  86   1.0000      -0.307901        -8.3784 
  87   1.0000      -0.306733        -8.3466 
  88   1.0000      -0.305407        -8.3105 
  89   1.0000      -0.301800        -8.2124 
  90   1.0000      -0.301413        -8.2019 
  91   1.0000      -0.298013        -8.1093 
  92   1.0000      -0.294855        -8.0234 
  93   1.0000      -0.290373        -7.9015 
  94   1.0000      -0.287126        -7.8131 
  95   1.0000      -0.285429        -7.7669 
  96   1.0000      -0.283552        -7.7158 
  97   1.0000      -0.283152        -7.7050 
  98   1.0000      -0.282805        -7.6955 
  99   1.0000      -0.279216        -7.5979 
 100   1.0000      -0.277240        -7.5441 
 101   1.0000      -0.276731        -7.5302 
 102   1.0000      -0.275733        -7.5031 
 103   1.0000      -0.272993        -7.4285 
 104   1.0000      -0.270817        -7.3693 
 105   1.0000      -0.267658        -7.2833 
 106   1.0000      -0.266684        -7.2568 
 107   1.0000      -0.264793        -7.2054 
 108   1.0000      -0.263177        -7.1614 
 109   1.0000      -0.262426        -7.1410 
 110   1.0000      -0.260580        -7.0907 
 111   1.0000      -0.259703        -7.0669 
 112   1.0000      -0.258441        -7.0325 
 113   1.0000      -0.257283        -7.0010 
 114   1.0000      -0.254905        -6.9363 
 115   1.0000      -0.254115        -6.9148 
 116   1.0000      -0.249953        -6.8016 
 117   1.0000      -0.247264        -6.7284 
 118   1.0000      -0.246328        -6.7029 
 119   1.0000      -0.238836        -6.4991 
 120   1.0000      -0.238524        -6.4906 
 121   1.0000      -0.218800        -5.9538 
 122   1.0000      -0.211142        -5.7455 
 123   1.0000      -0.204805        -5.5730 
 124   0.0000      -0.173064        -4.7093 
 125   0.0000      -0.154203        -4.1961 
 126   0.0000      -0.129775        -3.5314 
 127   0.0000      -0.127679        -3.4743 
 128   0.0000      -0.113964        -3.1011 
 129   0.0000      -0.111797        -3.0421 
 130   0.0000      -0.107953        -2.9376 
 131   0.0000      -0.106105        -2.8873 
 132   0.0000      -0.104633        -2.8472 
 133   0.0000      -0.101222        -2.7544 
 134   0.0000      -0.100440        -2.7331 
 135   0.0000      -0.068749        -1.8708 
 136   0.0000      -0.059778        -1.6266 
 137   0.0000      -0.057057        -1.5526 
 138   0.0000      -0.047535        -1.2935 
 139   0.0000      -0.039668        -1.0794 
 140   0.0000      -0.018217        -0.4957 
 141   0.0000      -0.010182        -0.2771 
 142   0.0000      -0.008447        -0.2299 
 143   0.0000       0.002235         0.0608 
 144   0.0000       0.009740         0.2651 
 145   0.0000       0.013104         0.3566 
 146   0.0000       0.019173         0.5217 
 147   0.0000       0.024960         0.6792 
 148   0.0000       0.045190         1.2297 
 149   0.0000       0.050540         1.3753 
 150   0.0000       0.055597         1.5129 
 151   0.0000       0.060648         1.6503 
 152   0.0000       0.065749         1.7891 
 153   0.0000       0.071890         1.9562 
 154   0.0000       0.075368         2.0509 
 155   0.0000       0.075610         2.0574 
 156   0.0000       0.083118         2.2618 
 157   0.0000       0.085045         2.3142 
 158   0.0000       0.087231         2.3737 
 159   0.0000       0.088708         2.4139 
 160   0.0000       0.093494         2.5441 
 161   0.0000       0.100843         2.7441 
 162   0.0000       0.105543         2.8720 
 163   0.0000       0.106165         2.8889 
 164   0.0000       0.129030         3.5111 
 165   0.0000       0.132019         3.5924 
 166   0.0000       0.139466         3.7951 
 167   0.0000       0.144717         3.9380 
 168   0.0000       0.146081         3.9751 
 169   0.0000       0.160929         4.3791 
 170   0.0000       0.164625         4.4797 
 171   0.0000       0.167441         4.5563 
 172   0.0000       0.171417         4.6645 
 173   0.0000       0.176792         4.8108 
 174   0.0000       0.183392         4.9903 
 175   0.0000       0.185961         5.0603 
 176   0.0000       0.189679         5.1614 
 177   0.0000       0.197447         5.3728 
 178   0.0000       0.200642         5.4598 
 179   0.0000       0.202268         5.5040 
 180   0.0000       0.216180         5.8826 
 181   0.0000       0.222098         6.0436 
 182   0.0000       0.235553         6.4097 
 183   0.0000       0.243147         6.6164 
 184   0.0000       0.245761         6.6875 
 185   0.0000       0.247544         6.7360 
 186   0.0000       0.250477         6.8158 
 187   0.0000       0.259925         7.0729 
 188   0.0000       0.263927         7.1818 
 189   0.0000       0.266988         7.2651 
 190   0.0000       0.270337         7.3563 
 191   0.0000       0.274765         7.4767 
 192   0.0000       0.277873         7.5613 
 193   0.0000       0.280831         7.6418 
 194   0.0000       0.281592         7.6625 
 195   0.0000       0.296853         8.0778 
 196   0.0000       0.302420         8.2293 
 197   0.0000       0.305973         8.3259 
 198   0.0000       0.307021         8.3545 
 199   0.0000       0.314221         8.5504 
 200   0.0000       0.317557         8.6412 
 201   0.0000       0.321905         8.7595 
 202   0.0000       0.324260         8.8236 
 203   0.0000       0.338763         9.2182 
 204   0.0000       0.340855         9.2751 
 205   0.0000       0.350058         9.5256 
 206   0.0000       0.351667         9.5694 
 207   0.0000       0.356815         9.7094 
 208   0.0000       0.358890         9.7659 
 209   0.0000       0.369586        10.0569 
 210   0.0000       0.372912        10.1474 
 211   0.0000       0.374183        10.1820 
 212   0.0000       0.374737        10.1971 
 213   0.0000       0.380763        10.3611 
 214   0.0000       0.385598        10.4926 
 215   0.0000       0.387928        10.5560 
 216   0.0000       0.391294        10.6476 
 217   0.0000       0.398707        10.8494 
 218   0.0000       0.403987        10.9930 
 219   0.0000       0.411020        11.1844 
 220   0.0000       0.422339        11.4924 
 221   0.0000       0.430347        11.7103 
 222   0.0000       0.436888        11.8883 
 223   0.0000       0.438444        11.9307 
 224   0.0000       0.446947        12.1621 
 225   0.0000       0.451873        12.2961 
 226   0.0000       0.463130        12.6024 
 227   0.0000       0.470891        12.8136 
 228   0.0000       0.474216        12.9041 
 229   0.0000       0.481407        13.0998 
 230   0.0000       0.481511        13.1026 
 231   0.0000       0.487283        13.2596 
 232   0.0000       0.496672        13.5151 
 233   0.0000       0.499541        13.5932 
 234   0.0000       0.503442        13.6993 
 235   0.0000       0.506387        13.7795 
 236   0.0000       0.508735        13.8434 
 237   0.0000       0.511796        13.9267 
 238   0.0000       0.513737        13.9795 
 239   0.0000       0.520192        14.1551 
 240   0.0000       0.529352        14.4044 
 241   0.0000       0.533956        14.5297 
 242   0.0000       0.537432        14.6243 
 243   0.0000       0.539323        14.6757 
 244   0.0000       0.544922        14.8281 
 245   0.0000       0.547043        14.8858 
 246   0.0000       0.549417        14.9504 
 247   0.0000       0.561906        15.2902 
 248   0.0000       0.568333        15.4651 
 249   0.0000       0.573098        15.5948 
 250   0.0000       0.578710        15.7475 
 251   0.0000       0.598770        16.2934 
 252   0.0000       0.643955        17.5229 
 253   0.0000       0.671469        18.2716 
 254   0.0000       0.702575        19.1180 
 255   0.0000       0.704505        19.1706 
 256   0.0000       0.725679        19.7467 
 257   0.0000       0.733686        19.9646 
 258   0.0000       0.737859        20.0782 
 259   0.0000       0.743919        20.2431 
 260   0.0000       0.746245        20.3064 
 261   0.0000       0.773589        21.0504 
 262   0.0000       0.775629        21.1059 
 263   0.0000       0.788108        21.4455 
 264   0.0000       0.791840        21.5471 
 265   0.0000       0.800714        21.7885 
 266   0.0000       0.810830        22.0638 
 267   0.0000       0.822314        22.3763 
 268   0.0000       0.830390        22.5961 
 269   0.0000       0.834860        22.7177 
 270   0.0000       0.841572        22.9003 
 271   0.0000       0.848532        23.0897 
 272   0.0000       0.850087        23.1320 
 273   0.0000       0.863931        23.5088 
 274   0.0000       0.865734        23.5578 
 275   0.0000       0.871342        23.7104 
 276   0.0000       0.885843        24.1050 
 277   0.0000       0.889115        24.1941 
 278   0.0000       0.904946        24.6248 
 279   0.0000       0.916473        24.9385 
 280   0.0000       0.917948        24.9786 
 281   0.0000       0.930568        25.3220 
 282   0.0000       0.939962        25.5777 
 283   0.0000       0.941690        25.6247 
 284   0.0000       0.959489        26.1090 
 285   0.0000       0.979682        26.6585 
 286   0.0000       0.996200        27.1080 
 287   0.0000       1.042209        28.3599 
 288   0.0000       1.048566        28.5329 
 289   0.0000       1.068095        29.0643 
 290   0.0000       1.097918        29.8759 
 291   0.0000       1.137885        30.9634 
 292   0.0000       1.193406        32.4742 
 293   0.0000       1.249577        34.0027 
 294   0.0000       1.276344        34.7311 
 295   0.0000       1.287342        35.0304 
 296   0.0000       1.288862        35.0717 
 297   0.0000       1.301786        35.4234 
 298   0.0000       1.303950        35.4823 
 299   0.0000       1.335089        36.3296 
 300   0.0000       1.348459        36.6934 
 301   0.0000       1.365723        37.1632 
 302   0.0000       1.368046        37.2264 
 303   0.0000       1.371236        37.3132 
 304   0.0000       1.375597        37.4319 
 305   0.0000       1.376621        37.4598 
 306   0.0000       1.385048        37.6891 
 307   0.0000       1.389838        37.8194 
 308   0.0000       1.396084        37.9894 
 309   0.0000       1.418019        38.5863 
 310   0.0000       1.421992        38.6944 
 311   0.0000       1.444387        39.3038 
 312   0.0000       1.450517        39.4706 
 313   0.0000       1.453600        39.5545 
 314   0.0000       1.458439        39.6861 
 315   0.0000       1.467143        39.9230 
 316   0.0000       1.467531        39.9335 
 317   0.0000       1.469525        39.9878 
 318   0.0000       1.476261        40.1711 
 319   0.0000       1.477739        40.2113 
 320   0.0000       1.482078        40.3294 
 321   0.0000       1.487852        40.4865 
 322   0.0000       1.488556        40.5057 
 323   0.0000       1.491119        40.5754 
 324   0.0000       1.496918        40.7332 
 325   0.0000       1.503577        40.9144 
 326   0.0000       1.505910        40.9779 
 327   0.0000       1.512786        41.1650 
 328   0.0000       1.519856        41.3574 
 329   0.0000       1.520160        41.3656 
 330   0.0000       1.523358        41.4527 
 331   0.0000       1.532548        41.7027 
 332   0.0000       1.533077        41.7172 
 333   0.0000       1.534195        41.7476 
 334   0.0000       1.535244        41.7761 
 335   0.0000       1.540496        41.9190 
 336   0.0000       1.543133        41.9908 
 337   0.0000       1.544988        42.0413 
 338   0.0000       1.546166        42.0733 
 339   0.0000       1.550169        42.1822 
 340   0.0000       1.552871        42.2558 
 341   0.0000       1.553766        42.2801 
 342   0.0000       1.554999        42.3137 
 343   0.0000       1.557899        42.3926 
 344   0.0000       1.559107        42.4255 
 345   0.0000       1.560737        42.4698 
 346   0.0000       1.561694        42.4959 
 347   0.0000       1.563969        42.5578 
 348   0.0000       1.565634        42.6031 
 349   0.0000       1.566374        42.6232 
 350   0.0000       1.566497        42.6266 
 351   0.0000       1.567220        42.6462 
 352   0.0000       1.571816        42.7713 
 353   0.0000       1.573148        42.8075 
 354   0.0000       1.573493        42.8169 
 355   0.0000       1.574453        42.8430 
 356   0.0000       1.576188        42.8902 
 357   0.0000       1.579023        42.9674 
 358   0.0000       1.580880        43.0179 
 359   0.0000       1.581269        43.0285 
 360   0.0000       1.583568        43.0911 
 361   0.0000       1.585427        43.1417 
 362   0.0000       1.586174        43.1620 
 363   0.0000       1.588502        43.2253 
 364   0.0000       1.590433        43.2779 
 365   0.0000       1.591213        43.2991 
 366   0.0000       1.595356        43.4118 
 367   0.0000       1.596790        43.4509 
 368   0.0000       1.598026        43.4845 
 369   0.0000       1.600965        43.5645 
 370   0.0000       1.601762        43.5862 
 371   0.0000       1.603403        43.6308 
 372   0.0000       1.605487        43.6875 
 373   0.0000       1.610253        43.8172 
 374   0.0000       1.611597        43.8538 
 375   0.0000       1.613443        43.9040 
 376   0.0000       1.618318        44.0367 
 377   0.0000       1.620632        44.0996 
 378   0.0000       1.621319        44.1183 
[...]
CHARGE
  0 Aus       :     2.629158  s :     2.629158
      pz      :     2.120453  p :     6.462227
      px      :     2.223716
      py      :     2.118059
      dz2     :     1.989863  d :     9.912285
      dxz     :     2.006651
      dyz     :     1.980618
      dx2y2   :     1.956424
      dxy     :     1.978729
      f0      :     0.000617  f :     0.005182
      f+1     :     0.000683
      f-1     :     0.000563
      f+2     :     0.000935
      f-2     :     0.000754
      f+3     :     0.000796
      f-3     :     0.000835
  1 Aus       :     2.628867  s :     2.628867
      pz      :     2.181693  p :     6.434923
      px      :     2.131813
      py      :     2.121418
      dz2     :     1.987387  d :     9.912444
      dxz     :     1.980741
      dyz     :     1.978289
      dx2y2   :     1.983625
      dxy     :     1.982402
      f0      :     0.001069  f :     0.004857
      f+1     :     0.000673
      f-1     :     0.000661
      f+2     :     0.000555
      f-2     :     0.000627
      f+3     :     0.000541
      f-3     :     0.000732
  2 Aus       :     2.509705  s :     2.509705
      pz      :     2.190273  p :     6.611618
      px      :     2.229861
      py      :     2.191483
      dz2     :     1.984733  d :     9.896531
      dxz     :     1.979056
      dyz     :     1.952658
      dx2y2   :     1.985070
      dxy     :     1.995015
      f0      :     0.000853  f :     0.006739
      f+1     :     0.001225
      f-1     :     0.001047
      f+2     :     0.000995
      f-2     :     0.000927
      f+3     :     0.000776
      f-3     :     0.000916
  3 Aus       :     2.605589  s :     2.605589
      pz      :     2.233511  p :     6.503160
      px      :     2.104831
      py      :     2.164818
      dz2     :     1.949463  d :     9.874757
      dxz     :     1.990805
      dyz     :     1.983400
      dx2y2   :     1.969087
      dxy     :     1.982002
      f0      :     0.001199  f :     0.005358
      f+1     :     0.001103
      f-1     :     0.000725
      f+2     :     0.000529
      f-2     :     0.000529
      f+3     :     0.000648
      f-3     :     0.000626
  4 Aus       :     2.562444  s :     2.562444
      pz      :     2.189155  p :     6.487939
      px      :     2.201304
      py      :     2.097480
      dz2     :     1.963393  d :     9.898242
      dxz     :     1.987122
      dyz     :     1.999383
      dx2y2   :     1.959723
      dxy     :     1.988622
      f0      :     0.000663  f :     0.006069
      f+1     :     0.000958
      f-1     :     0.001109
      f+2     :     0.000660
      f-2     :     0.000644
      f+3     :     0.001010
      f-3     :     0.001026
  5 Aus       :     2.559542  s :     2.559542
      pz      :     2.188835  p :     6.494312
      px      :     2.161474
      py      :     2.144003
      dz2     :     1.967827  d :     9.898725
      dxz     :     1.980515
      dyz     :     2.001914
      dx2y2   :     1.996617
      dxy     :     1.951852
      f0      :     0.000656  f :     0.006073
      f+1     :     0.001018
      f-1     :     0.000998
      f+2     :     0.000683
      f-2     :     0.000637
      f+3     :     0.001096
      f-3     :     0.000986
  6 Aus       :     2.620262  s :     2.620262
      pz      :     2.133893  p :     6.449831
      px      :     2.223790
      py      :     2.092149
      dz2     :     1.976131  d :     9.875800
      dxz     :     1.982007
      dyz     :     1.981595
      dx2y2   :     1.953608
      dxy     :     1.982460
      f0      :     0.000613  f :     0.005612
      f+1     :     0.000767
      f-1     :     0.000515
      f+2     :     0.000658
      f-2     :     0.000972
      f+3     :     0.001062
      f-3     :     0.001024
  7 Aus       :     2.615427  s :     2.615427
      pz      :     2.135929  p :     6.455754
      px      :     2.173929
      py      :     2.145896
      dz2     :     1.976258  d :     9.878491
      dxz     :     1.976468
      dyz     :     1.988702
      dx2y2   :     1.986955
      dxy     :     1.950108
      f0      :     0.000620  f :     0.005645
      f+1     :     0.000793
      f-1     :     0.000510
      f+2     :     0.000934
      f-2     :     0.000701
      f+3     :     0.001079
      f-3     :     0.001008
  8 Aus       :     2.719309  s :     2.719309
      pz      :     2.127713  p :     6.369790
      px      :     2.181622
      py      :     2.060454
      dz2     :     1.982361  d :     9.854882
      dxz     :     1.961749
      dyz     :     1.953899
      dx2y2   :     1.975214
      dxy     :     1.981658
      f0      :     0.000581  f :     0.004491
      f+1     :     0.000972
      f-1     :     0.000745
      f+2     :     0.000637
      f-2     :     0.000503
      f+3     :     0.000572
      f-3     :     0.000481
  9 Aus       :     2.614434  s :     2.614434
      pz      :     2.184530  p :     6.449313
      px      :     2.141596
      py      :     2.123187
      dz2     :     1.988897  d :     9.915355
      dxz     :     1.969240
      dyz     :     1.989258
      dx2y2   :     1.989502
      dxy     :     1.978459
      f0      :     0.001075  f :     0.004921
      f+1     :     0.000804
      f-1     :     0.000540
      f+2     :     0.000545
      f-2     :     0.000669
      f+3     :     0.000709
      f-3     :     0.000580
 10 Aus       :     2.608311  s :     2.608311
      pz      :     2.228680  p :     6.496714
      px      :     2.087507
      py      :     2.180526
      dz2     :     1.947960  d :     9.875103
      dxz     :     1.991917
      dyz     :     1.983131
      dx2y2   :     1.959928
      dxy     :     1.992166
      f0      :     0.001159  f :     0.005336
      f+1     :     0.000934
      f-1     :     0.000872
      f+2     :     0.000426
      f-2     :     0.000664
      f+3     :     0.000658
      f-3     :     0.000623
 11 Aus       :     2.721165  s :     2.721165
      pz      :     2.129480  p :     6.373326
      px      :     2.174735
      py      :     2.069111
      dz2     :     1.982847  d :     9.854399
      dxz     :     1.949884
      dyz     :     1.965051
      dx2y2   :     1.983403
      dxy     :     1.973214
      f0      :     0.000582  f :     0.004445
      f+1     :     0.000831
      f-1     :     0.000869
      f+2     :     0.000594
      f-2     :     0.000522
      f+3     :     0.000525
      f-3     :     0.000520
 12 Mns       :     6.282272  s :     6.282272
      pz      :     4.170785  p :    12.562581
      px      :     4.189460
      py      :     4.202336
      dz2     :     1.313111  d :     6.459463
      dxz     :     1.276862
      dyz     :     1.218389
      dx2y2   :     1.295474
      dxy     :     1.355627
      f0      :     0.000085  f :     0.000819
      f+1     :     0.000129
      f-1     :     0.000134
      f+2     :     0.000087
      f-2     :     0.000119
      f+3     :     0.000139
      f-3     :     0.000125

SPIN
  0 Aus       :     0.030406  s :     0.030406
      pz      :     0.000899  p :    -0.010128
      px      :     0.001523
      py      :    -0.012550
      dz2     :    -0.011279  d :    -0.044027
      dxz     :    -0.001004
      dyz     :    -0.015473
      dx2y2   :    -0.003650
      dxy     :    -0.012622
      f0      :    -0.000025  f :    -0.000072
      f+1     :    -0.000025
      f-1     :    -0.000012
      f+2     :    -0.000007
      f-2     :    -0.000015
      f+3     :     0.000004
      f-3     :     0.000006
  1 Aus       :    -0.063610  s :    -0.063610
      pz      :    -0.006205  p :    -0.039910
      px      :    -0.008173
      py      :    -0.025533
      dz2     :    -0.012685  d :    -0.038637
      dxz     :    -0.004710
      dyz     :    -0.015183
      dx2y2   :    -0.004005
      dxy     :    -0.002054
      f0      :    -0.000018  f :    -0.000072
      f+1     :     0.000001
      f-1     :    -0.000010
      f+2     :    -0.000041
      f-2     :     0.000008
      f+3     :    -0.000016
      f-3     :     0.000003
  2 Aus       :     0.000738  s :     0.000738
      pz      :    -0.001926  p :    -0.064170
      px      :    -0.051652
      py      :    -0.010591
      dz2     :     0.002727  d :     0.020378
      dxz     :     0.006490
      dyz     :     0.021144
      dx2y2   :    -0.008346
      dxy     :    -0.001636
      f0      :     0.000045  f :     0.000244
      f+1     :     0.000017
      f-1     :     0.000150
      f+2     :     0.000058
      f-2     :     0.000008
      f+3     :    -0.000013
      f-3     :    -0.000021
  3 Aus       :    -0.089459  s :    -0.089459
      pz      :    -0.009502  p :    -0.063013
      px      :    -0.010667
      py      :    -0.042844
      dz2     :    -0.006624  d :    -0.008722
      dxz     :     0.002195
      dyz     :    -0.002558
      dx2y2   :     0.005391
      dxy     :    -0.007126
      f0      :     0.000006  f :     0.000070
      f+1     :     0.000030
      f-1     :    -0.000035
      f+2     :    -0.000005
      f-2     :    -0.000007
      f+3     :     0.000033
      f-3     :     0.000047
  4 Aus       :    -0.065020  s :    -0.065020
      pz      :    -0.004057  p :    -0.046711
      px      :    -0.036106
      py      :    -0.006549
      dz2     :     0.001120  d :     0.004737
      dxz     :    -0.000227
      dyz     :     0.001587
      dx2y2   :     0.004418
      dxy     :    -0.002162
      f0      :     0.000002  f :     0.000053
      f+1     :    -0.000032
      f-1     :     0.000057
      f+2     :    -0.000008
      f-2     :     0.000007
      f+3     :     0.000000
      f-3     :     0.000027
  5 Aus       :    -0.067639  s :    -0.067639
      pz      :    -0.004268  p :    -0.045845
      px      :    -0.022875
      py      :    -0.018702
      dz2     :     0.000786  d :     0.006818
      dxz     :     0.004113
      dyz     :    -0.001476
      dx2y2   :    -0.003103
      dxy     :     0.006498
      f0      :     0.000007  f :     0.000071
      f+1     :     0.000016
      f-1     :     0.000012
      f+2     :    -0.000006
      f-2     :     0.000016
      f+3     :     0.000032
      f-3     :    -0.000006
  6 Aus       :    -0.108594  s :    -0.108594
      pz      :    -0.003812  p :    -0.084180
      px      :    -0.067657
      py      :    -0.012711
      dz2     :     0.006627  d :     0.005873
      dxz     :    -0.003523
      dyz     :     0.001805
      dx2y2   :     0.006631
      dxy     :    -0.005666
      f0      :     0.000028  f :     0.000234
      f+1     :    -0.000004
      f-1     :     0.000095
      f+2     :     0.000055
      f-2     :     0.000027
      f+3     :     0.000006
      f-3     :     0.000028
  7 Aus       :    -0.113240  s :    -0.113240
      pz      :    -0.003552  p :    -0.078737
      px      :    -0.038156
      py      :    -0.037029
      dz2     :     0.006898  d :     0.008931
      dxz     :     0.003620
      dyz     :    -0.003981
      dx2y2   :    -0.006527
      dxy     :     0.008921
      f0      :     0.000029  f :     0.000236
      f+1     :     0.000039
      f-1     :     0.000051
      f+2     :    -0.000001
      f-2     :     0.000082
      f+3     :     0.000037
      f-3     :    -0.000001
  8 Aus       :    -0.000439  s :    -0.000439
      pz      :     0.003861  p :    -0.007481
      px      :    -0.011075
      py      :    -0.000267
      dz2     :     0.007359  d :     0.016398
      dxz     :     0.003744
      dyz     :     0.003202
      dx2y2   :     0.002907
      dxy     :    -0.000815
      f0      :     0.000019  f :     0.000209
      f+1     :     0.000072
      f-1     :     0.000034
      f+2     :     0.000017
      f-2     :     0.000053
      f+3     :     0.000014
      f-3     :     0.000001
  9 Aus       :    -0.078240  s :    -0.078240
      pz      :    -0.005537  p :    -0.041238
      px      :    -0.014463
      py      :    -0.021238
      dz2     :    -0.011931  d :    -0.039165
      dxz     :    -0.008488
      dyz     :    -0.013627
      dx2y2   :    -0.000009
      dxy     :    -0.005111
      f0      :    -0.000017  f :    -0.000066
      f+1     :    -0.000002
      f-1     :    -0.000004
      f+2     :     0.000001
      f-2     :    -0.000030
      f+3     :    -0.000004
      f-3     :    -0.000011
 10 Aus       :    -0.086556  s :    -0.086556
      pz      :    -0.011212  p :    -0.065346
      px      :    -0.011176
      py      :    -0.042957
      dz2     :    -0.006562  d :    -0.010683
      dxz     :     0.003317
      dyz     :    -0.004624
      dx2y2   :     0.000415
      dxy     :    -0.003229
      f0      :     0.000005  f :     0.000062
      f+1     :     0.000027
      f-1     :    -0.000028
      f+2     :     0.000005
      f-2     :    -0.000021
      f+3     :     0.000053
      f-3     :     0.000020
 11 Aus       :     0.002504  s :     0.002504
      pz      :     0.004022  p :    -0.004295
      px      :    -0.000810
      py      :    -0.007507
      dz2     :     0.007436  d :     0.017933
      dxz     :     0.011132
      dyz     :    -0.002500
      dx2y2   :    -0.000027
      dxy     :     0.001890
      f0      :     0.000019  f :     0.000225
      f+1     :     0.000120
      f-1     :    -0.000014
      f+2     :     0.000036
      f-2     :     0.000044
      f+3     :     0.000005
      f-3     :     0.000015
 12 Mns       :     0.026012  s :     0.026012
      pz      :     0.011434  p :     0.031035
      px      :     0.008963
      py      :     0.010639
      dz2     :     0.870819  d :     4.192092
      dxz     :     0.886796
      dyz     :     0.905906
      dx2y2   :     0.780084
      dxy     :     0.748488
      f0      :     0.000003  f :     0.000037
      f+1     :     0.000008
      f-1     :     0.000006
      f+2     :     0.000002
      f-2     :     0.000003
      f+3     :     0.000008
      f-3     :     0.000008


                      *****************************
                      * MAYER POPULATION ANALYSIS *
                      *****************************

  NA   - Mulliken gross atomic population
  ZA   - Total nuclear charge
  QA   - Mulliken gross atomic charge
  VA   - Mayer's total valence
  BVA  - Mayer's bonded valence
  FA   - Mayer's free valence

  ATOM       NA         ZA         QA         VA         BVA        FA
  0 Au    18.9314    19.0000     0.0686     1.6712     1.6653     0.0058
  1 Au    18.8290    19.0000     0.1710     1.5529     1.5265     0.0264
  2 Au    19.1583    19.0000    -0.1583     2.1726     2.1689     0.0036
  3 Au    18.8591    19.0000     0.1409     1.6960     1.6616     0.0344
  4 Au    18.8204    19.0000     0.1796     1.6430     1.6219     0.0211
  5 Au    18.8249    19.0000     0.1751     1.6484     1.6256     0.0228
  6 Au    18.8878    19.0000     0.1122     1.6081     1.5479     0.0603
  7 Au    18.8838    19.0000     0.1162     1.6099     1.5455     0.0644
  8 Au    18.7962    19.0000     0.2038     1.4741     1.4714     0.0026
  9 Au    18.8482    19.0000     0.1518     1.5788     1.5431     0.0357
 10 Au    18.8302    19.0000     0.1698     1.6594     1.6265     0.0328
 11 Au    18.8074    19.0000     0.1926     1.4781     1.4750     0.0031
 12 Mn    26.5232    25.0000    -1.5232     8.4459     4.5013     3.9446

  Mayer bond orders larger than 0.100000
B(  0-Au,  1-Au) :   0.3166 B(  0-Au,  2-Au) :   0.4099 B(  0-Au,  6-Au) :   0.1211 
B(  0-Au,  7-Au) :   0.1201 B(  0-Au,  9-Au) :   0.3310 B(  0-Au, 12-Mn) :   0.1410 
B(  1-Au,  2-Au) :   0.2799 B(  1-Au,  3-Au) :   0.2909 B(  1-Au,  7-Au) :   0.2338 
B(  1-Au, 12-Mn) :   0.1323 B(  2-Au,  4-Au) :   0.3417 B(  2-Au,  5-Au) :   0.3312 
B(  2-Au,  9-Au) :   0.2669 B(  2-Au, 12-Mn) :   0.3205 B(  3-Au,  4-Au) :   0.2202 
B(  3-Au,  7-Au) :   0.2110 B(  3-Au,  8-Au) :   0.2460 B(  3-Au, 12-Mn) :   0.4295 
B(  4-Au,  5-Au) :   0.1999 B(  4-Au,  8-Au) :   0.1765 B(  4-Au, 12-Mn) :   0.4543 
B(  5-Au, 10-Au) :   0.2237 B(  5-Au, 11-Au) :   0.1684 B(  5-Au, 12-Mn) :   0.4566 
B(  6-Au,  7-Au) :   0.2531 B(  6-Au,  9-Au) :   0.2297 B(  6-Au, 10-Au) :   0.2077 
B(  6-Au, 12-Mn) :   0.5335 B(  7-Au, 12-Mn) :   0.5259 B(  8-Au, 11-Au) :   0.2993 
B(  8-Au, 12-Mn) :   0.4613 B(  9-Au, 10-Au) :   0.2822 B(  9-Au, 12-Mn) :   0.1513 
B( 10-Au, 11-Au) :   0.2418 B( 10-Au, 12-Mn) :   0.4158 B( 11-Au, 12-Mn) :   0.4795 


-------
TIMINGS
-------

Total SCF time: 0 days 0 hours 3 min 12 sec 

Total time                  ....     192.282 sec
Sum of individual times     ....     189.773 sec  ( 98.7%)

Fock matrix formation       ....     178.605 sec  ( 92.9%)
  Split-RI-J                ....      31.918 sec  ( 17.9% of F)
  XC integration            ....     145.736 sec  ( 81.6% of F)
    Basis function eval.    ....       8.967 sec  (  6.2% of XC)
    Density eval.           ....      77.649 sec  ( 53.3% of XC)
    XC-Functional eval.     ....       4.992 sec  (  3.4% of XC)
    XC-Potential eval.      ....      51.302 sec  ( 35.2% of XC)
Diagonalization             ....       7.654 sec  (  4.0%)
Density matrix formation    ....       0.325 sec  (  0.2%)
Population analysis         ....       0.207 sec  (  0.1%)
Initial guess               ....       0.470 sec  (  0.2%)
Orbital Transformation      ....       0.000 sec  (  0.0%)
Orbital Orthonormalization  ....       0.420 sec  (  0.2%)
DIIS solution               ....       0.000 sec  (  0.0%)
Grid generation             ....       2.512 sec  (  1.3%)

Maximum memory used throughout the entire SCF-calculation: 81.9 MB

-------------------------   --------------------
FINAL SINGLE POINT ENERGY     -2781.128991322297
-------------------------   --------------------


                            ***************************************
                            *     ORCA property calculations      *
                            ***************************************

                                    ---------------------
                                    Active property flags
                                    ---------------------
   (+) Dipole Moment


------------------------------------------------------------------------------
                       ORCA ELECTRIC PROPERTIES CALCULATION
------------------------------------------------------------------------------

Dipole Moment Calculation                       ... on
Quadrupole Moment Calculation                   ... off
Polarizability Calculation                      ... off
GBWName                                         ... scan_job2.gbw
Electron density                                ... scan_job2.scfp
The origin for moment calculation is the CENTER OF MASS  = (13.431323, 15.211614 15.483374)

-------------
DIPOLE MOMENT
-------------
                                X             Y             Z
Electronic contribution:     -1.53839      -8.53078      29.27036
Nuclear contribution   :      1.51912       8.44168     -29.25852
                        -----------------------------------------
Total Dipole Moment    :     -0.01927      -0.08911       0.01184
                        -----------------------------------------
Magnitude (a.u.)       :      0.09193
Magnitude (Debye)      :      0.23367



--------------------
Rotational spectrum 
--------------------
 
Rotational constants in cm-1:     0.001478     0.001380     0.001033 
Rotational constants in MHz :    44.305732    41.361868    30.974659 

 Dipole components along the rotational axes: 
x,y,z [a.u.] :    -0.033574     0.004553     0.085462 
x,y,z [Debye]:    -0.085338     0.011574     0.217226 

 

Timings for individual modules:

Sum of individual times         ...      208.522 sec (=   3.475 min)
GTO integral calculation        ...       15.932 sec (=   0.266 min)   7.6 %
SCF iterations                  ...      192.590 sec (=   3.210 min)  92.4 %



                             ****ORCA TERMINATED NORMALLY****
TOTAL RUN TIME: 0 days 0 hours 7 minutes 49 seconds 234 msec
