
                                 *****************
                                 * O   R   C   A *
                                 *****************

                                            #,                                       
                                            ###                                      
                                            ####                                     
                                            #####                                    
                                            ######                                   
                                           ########,                                 
                                     ,,################,,,,,                         
                               ,,#################################,,                 
                          ,,##########################################,,             
                       ,#########################################, ''#####,          
                    ,#############################################,,   '####,        
                  ,##################################################,,,,####,       
                ,###########''''           ''''###############################       
              ,#####''   ,,,,##########,,,,          '''####'''          '####       
            ,##' ,,,,###########################,,,                        '##       
           ' ,,###''''                  '''############,,,                           
         ,,##''                                '''############,,,,        ,,,,,,###''
      ,#''                                            '''#######################'''  
     '                                                          ''''####''''         
             ,#######,   #######,   ,#######,      ##                                
            ,#'     '#,  ##    ##  ,#'     '#,    #''#        ######   ,####,        
            ##       ##  ##   ,#'  ##            #'  '#       #        #'  '#        
            ##       ##  #######   ##           ,######,      #####,   #    #        
            '#,     ,#'  ##    ##  '#,     ,#' ,#      #,         ##   #,  ,#        
             '#######'   ##     ##  '#######'  #'      '#     #####' # '####'        



                  #######################################################
                  #                        -***-                        #
                  #          Department of theory and spectroscopy      #
                  #    Directorship and core code : Frank Neese         #
                  #        Max Planck Institute fuer Kohlenforschung    #
                  #                Kaiser Wilhelm Platz 1               #
                  #                 D-45470 Muelheim/Ruhr               #
                  #                      Germany                        #
                  #                                                     #
                  #                  All rights reserved                #
                  #                        -***-                        #
                  #######################################################


                         Program Version 5.0.3 -  RELEASE  -


 With contributions from (in alphabetic order):
   Daniel Aravena         : Magnetic Suceptibility
   Michael Atanasov       : Ab Initio Ligand Field Theory (pilot matlab implementation)
   Alexander A. Auer      : GIAO ZORA, VPT2 properties, NMR spectrum
   Ute Becker             : Parallelization
   Giovanni Bistoni       : ED, misc. LED, open-shell LED, HFLD
   Martin Brehm           : Molecular dynamics
   Dmytro Bykov           : SCF Hessian
   Vijay G. Chilkuri      : MRCI spin determinant printing, contributions to CSF-ICE
   Dipayan Datta          : RHF DLPNO-CCSD density
   Achintya Kumar Dutta   : EOM-CC, STEOM-CC
   Dmitry Ganyushin       : Spin-Orbit,Spin-Spin,Magnetic field MRCI
   Miquel Garcia          : C-PCM and meta-GGA Hessian, CC/C-PCM, Gaussian charge scheme
   Yang Guo               : DLPNO-NEVPT2, F12-NEVPT2, CIM, IAO-localization
   Andreas Hansen         : Spin unrestricted coupled pair/coupled cluster methods
   Benjamin Helmich-Paris : MC-RPA, TRAH-SCF, COSX integrals
   Lee Huntington         : MR-EOM, pCC
   Robert Izsak           : Overlap fitted RIJCOSX, COSX-SCS-MP3, EOM
   Marcus Kettner         : VPT2
   Christian Kollmar      : KDIIS, OOCD, Brueckner-CCSD(T), CCSD density, CASPT2, CASPT2-K
   Simone Kossmann        : Meta GGA functionals, TD-DFT gradient, OOMP2, MP2 Hessian
   Martin Krupicka        : Initial AUTO-CI
   Lucas Lang             : DCDCAS
   Marvin Lechner         : AUTO-CI (C++ implementation), FIC-MRCC
   Dagmar Lenk            : GEPOL surface, SMD
   Dimitrios Liakos       : Extrapolation schemes; Compound Job, initial MDCI parallelization
   Dimitrios Manganas     : Further ROCIS development; embedding schemes
   Dimitrios Pantazis     : SARC Basis sets
   Anastasios Papadopoulos: AUTO-CI, single reference methods and gradients
   Taras Petrenko         : DFT Hessian,TD-DFT gradient, ASA, ECA, R-Raman, ABS, FL, XAS/XES, NRVS
   Peter Pinski           : DLPNO-MP2, DLPNO-MP2 Gradient
   Christoph Reimann      : Effective Core Potentials
   Marius Retegan         : Local ZFS, SOC
   Christoph Riplinger    : Optimizer, TS searches, QM/MM, DLPNO-CCSD(T), (RO)-DLPNO pert. Triples
   Tobias Risthaus        : Range-separated hybrids, TD-DFT gradient, RPA, STAB
   Michael Roemelt        : Original ROCIS implementation
   Masaaki Saitow         : Open-shell DLPNO-CCSD energy and density
   Barbara Sandhoefer     : DKH picture change effects
   Avijit Sen             : IP-ROCIS
   Kantharuban Sivalingam : CASSCF convergence, NEVPT2, FIC-MRCI
   Bernardo de Souza      : ESD, SOC TD-DFT
   Georgi Stoychev        : AutoAux, RI-MP2 NMR, DLPNO-MP2 response
   Willem Van den Heuvel  : Paramagnetic NMR
   Boris Wezisla          : Elementary symmetry handling
   Frank Wennmohs         : Technical directorship


 We gratefully acknowledge several colleagues who have allowed us to
 interface, adapt or use parts of their codes:
   Stefan Grimme, W. Hujo, H. Kruse, P. Pracht,  : VdW corrections, initial TS optimization,
                  C. Bannwarth, S. Ehlert          DFT functionals, gCP, sTDA/sTD-DF
   Ed Valeev, F. Pavosevic, A. Kumar             : LibInt (2-el integral package), F12 methods
   Garnet Chan, S. Sharma, J. Yang, R. Olivares  : DMRG
   Ulf Ekstrom                                   : XCFun DFT Library
   Mihaly Kallay                                 : mrcc  (arbitrary order and MRCC methods)
   Jiri Pittner, Ondrej Demel                    : Mk-CCSD
   Frank Weinhold                                : gennbo (NPA and NBO analysis)
   Christopher J. Cramer and Donald G. Truhlar   : smd solvation model
   Lars Goerigk                                  : TD-DFT with DH, B97 family of functionals
   V. Asgeirsson, H. Jonsson                     : NEB implementation
   FAccTs GmbH                                   : IRC, NEB, NEB-TS, DLPNO-Multilevel, CI-OPT
                                                   MM, QMMM, 2- and 3-layer-ONIOM, Crystal-QMMM,
                                                   LR-CPCM, SF, NACMEs, symmetry and pop. for TD-DFT,
                                                   nearIR, NL-DFT gradient (VV10), updates on ESD,
                                                   ML-optimized integration grids
   S Lehtola, MJT Oliveira, MAL Marques          : LibXC Library
   Liviu Ungur et al                             : ANISO software


 Your calculation uses the libint2 library for the computation of 2-el integrals
 For citations please refer to: http://libint.valeyev.net

 Your ORCA version has been built with support for libXC version: 5.1.0
 For citations please refer to: https://tddft.org/programs/libxc/

 This ORCA versions uses:
   CBLAS   interface :  Fast vector & matrix operations
   LAPACKE interface :  Fast linear algebra routines
   SCALAPACK package :  Parallel linear algebra routines
   Shared memory     :  Shared parallel matrices
   BLAS/LAPACK       :  OpenBLAS 0.3.15  USE64BITINT DYNAMIC_ARCH NO_AFFINITY Haswell SINGLE_THREADED
        Core in use  :  Haswell
   Copyright (c) 2011-2014, The OpenBLAS Project




***************************************
The coordinates will be read from file: pbe.xyz
***************************************


================================================================================

cite the ECPs for Au [Def2-ECP] as follows:
Ce-Yb(ecp-28): M. Dolg, H. Stoll, H.Preuss, J. Chem. Phys., 1989, 90, 1730-1734.
Y-Cd(ecp-28), Hf-Hg(ecp-46): D. Andrae,U. Haeussermann, M. Dolg, H. Stoll, H. Preuss, Theor. Chim. Acta, 1990, 77, 123-141.
In-Sb(ecp-28), Tl-Bi(ecp-46): B. Metz, H. Stoll, M. Dolg, J. Chem. Phys., 2000, 113, 2563-2569.
Te-Xe(ecp-28), Po-Rn(ecp-46): K. A. Peterson, D. Figgen, E. Goll, H. Stoll, M. Dolg, J. Chem. Phys., 2003, 119, 11113-11123.
Rb(ecp-28), Cs(ecp-46): T. Leininger, A. Nicklass, W. Kuechle, H. Stoll, M. Dolg, A. Bergner, Chem. Phys. Lett., 1996, 255, 274-280.
Sr(ecp-28), Ba(ecp-46): M. Kaupp, P. V. Schleyer, H. Stoll and H. Preuss, J. Chem. Phys., 1991, 94, 1360-1366.
La(ecp-46): M. Dolg, H. Stoll, A. Savin, H. Preuss, Theor. Chim. Acta, 1989, 75, 173-194.
Lu(ecp-28): X. Cao, M. Dolg, J. Chem. Phys., 2001, 115, 7348-7355.

ECP parameters for Au [Def2-ECP] have been obtained from:
TURBOMOLE (7.0.2)

----- Orbital basis set information -----
Your calculation utilizes the basis: def2-TZVP
   F. Weigend and R. Ahlrichs, Phys. Chem. Chem. Phys. 7, 3297 (2005).

----- AuxJ basis set information -----
Your calculation utilizes the auxiliary basis: def2/J
   F. Weigend, Phys. Chem. Chem. Phys. 8, 1057 (2006).

----- AuxC basis set information -----
Your calculation utilizes the auxiliary basis: def2-TZVP/C
  H-La, Hf-Rn : A. Hellweg, C. Hattig, S. Hofener and W. Klopper, Theor. Chem. Acc. 117, 587 (2007).
        Ce-Lu : J. Chmela and M. E. Harding, Mol. Phys. (2018).

================================================================================
                                        WARNINGS
                       Please study these warnings very carefully!
================================================================================


WARNING: your system is open-shell and RHF/RKS was chosen
  ===> : WILL SWITCH to UHF/UKS


WARNING: No MP2 level density has been requested!
         To caclulate MP2 level properties use
         %mp2 Density relaxed end
         or
         %mp2 Density unrelaxed end
         Otherwise for double-hybrid DFT only the energy is correct!

WARNING: The frozen-core approximation is turned on by default for 
         the MP2 part of double-hybrid DFT.

INFO   : the flag for use of the SHARK integral package has been found!



***************************************
The coordinates will be read from file: pbe.xyz
***************************************


================================================================================

cite the ECPs for Au [Def2-ECP] as follows:
Ce-Yb(ecp-28): M. Dolg, H. Stoll, H.Preuss, J. Chem. Phys., 1989, 90, 1730-1734.
Y-Cd(ecp-28), Hf-Hg(ecp-46): D. Andrae,U. Haeussermann, M. Dolg, H. Stoll, H. Preuss, Theor. Chim. Acta, 1990, 77, 123-141.
In-Sb(ecp-28), Tl-Bi(ecp-46): B. Metz, H. Stoll, M. Dolg, J. Chem. Phys., 2000, 113, 2563-2569.
Te-Xe(ecp-28), Po-Rn(ecp-46): K. A. Peterson, D. Figgen, E. Goll, H. Stoll, M. Dolg, J. Chem. Phys., 2003, 119, 11113-11123.
Rb(ecp-28), Cs(ecp-46): T. Leininger, A. Nicklass, W. Kuechle, H. Stoll, M. Dolg, A. Bergner, Chem. Phys. Lett., 1996, 255, 274-280.
Sr(ecp-28), Ba(ecp-46): M. Kaupp, P. V. Schleyer, H. Stoll and H. Preuss, J. Chem. Phys., 1991, 94, 1360-1366.
La(ecp-46): M. Dolg, H. Stoll, A. Savin, H. Preuss, Theor. Chim. Acta, 1989, 75, 173-194.
Lu(ecp-28): X. Cao, M. Dolg, J. Chem. Phys., 2001, 115, 7348-7355.

ECP parameters for Au [Def2-ECP] have been obtained from:
TURBOMOLE (7.0.2)

----- Orbital basis set information -----
Your calculation utilizes the basis: def2-TZVP
   F. Weigend and R. Ahlrichs, Phys. Chem. Chem. Phys. 7, 3297 (2005).

----- AuxJ basis set information -----
Your calculation utilizes the auxiliary basis: def2/J
   F. Weigend, Phys. Chem. Chem. Phys. 8, 1057 (2006).

----- AuxC basis set information -----
Your calculation utilizes the auxiliary basis: def2-TZVP/C
  H-La, Hf-Rn : A. Hellweg, C. Hattig, S. Hofener and W. Klopper, Theor. Chem. Acc. 117, 587 (2007).
        Ce-Lu : J. Chmela and M. E. Harding, Mol. Phys. (2018).

================================================================================
                                        WARNINGS
                       Please study these warnings very carefully!
================================================================================


WARNING: No MP2 level density has been requested!
         To caclulate MP2 level properties use
         %mp2 Density relaxed end
         or
         %mp2 Density unrelaxed end
         Otherwise for double-hybrid DFT only the energy is correct!

WARNING: The frozen-core approximation is turned on by default for 
         the MP2 part of double-hybrid DFT.

INFO   : the flag for use of the SHARK integral package has been found!

================================================================================
                                       INPUT FILE
================================================================================
NAME = b2plyp.inp
|  1> !RI-B2PLYP def2-TZVP def2-TZVP/C
|  2> !RIJCOSX VERYSLOWCONV
|  3> 
|  4> %scf
|  5>   AutoTRAHIter 200
|  6>   maxiter 400
|  7> end
|  8> 
|  9> 
| 10> %pal nprocs 6 end 
| 11> 
| 12> *xyzfile 0 5 pbe.xyz
| 13> 
| 14> $new_job
| 15> 
| 16> !RI-B2PLYP def2-TZVP def2-TZVP/C
| 17> !RIJCOSX VERYSLOWCONV
| 18> 
| 19> %scf
| 20>   AutoTRAHIter 200
| 21>   maxiter 400
| 22> end
| 23> 
| 24> 
| 25> %pal nprocs 6 end 
| 26> 
| 27> *xyzfile 0 3 pbe.xyz
| 28> 
| 29> 
| 30> 
| 31> 
| 32> 
| 33>                          ****END OF INPUT****
================================================================================


                 $$$$$$$$$$$$$$$$$$$$$$$$$$$$$$$$$$$$$$$$$$$$$$ 
                 $ THERE ARE  2 JOBS TO BE PROCESSED THIS RUN $
                 $$$$$$$$$$$$$$$$$$$$$$$$$$$$$$$$$$$$$$$$$$$$$$ 




                 $$$$$$$$$$$$$$$$  JOB NUMBER  1 $$$$$$$$$$$$$$


                       ****************************
                       * Single Point Calculation *
                       ****************************

---------------------------------
CARTESIAN COORDINATES (ANGSTROEM)
---------------------------------
  Au     5.579424    7.471784   11.125606
  Au     9.502226    8.071671    5.793329
  Au     7.731477    4.698717    7.294677
  Au     4.883658    7.032808    8.502997
  Au     9.511052    9.497135    8.255395
  Au     9.368312    6.732360    8.225067
  Au     7.295367    5.866263    9.728241
  Au     7.084494    8.686610    9.187964
  Au     5.782392    8.962818    4.692164
  Au     7.172694    9.936223    6.732737
  Au     4.451290    6.769169    5.936810
  Au     7.801553    7.129650    3.976831
  Au     5.097980    6.671246    3.231487
  Au     6.441347    4.908036    4.987801
  Cr     7.038181    7.230568    6.645528

----------------------------
CARTESIAN COORDINATES (A.U.)
----------------------------
  NO LB      ZA    FRAG     MASS         X           Y           Z
   0 Au   19.0000*   0   196.966   10.543584   14.119626   21.024349
   1 Au   19.0000*   0   196.966   17.956605   15.253247   10.947805
   2 Au   19.0000*   0   196.966   14.610374    8.879288   13.784942
   3 Au   19.0000*   0   196.966    9.228776   13.290080   16.068336
   4 Au   19.0000*   0   196.966   17.973283   17.946985   15.600436
   5 Au   19.0000*   0   196.966   17.703544   12.722316   15.543124
   6 Au   19.0000*   0   196.966   13.786245   11.085630   18.383711
   7 Au   19.0000*   0   196.966   13.387753   16.415314   17.362736
   8 Au   19.0000*   0   196.966   10.927138   16.937271    8.866905
   9 Au   19.0000*   0   196.966   13.554427   18.776740   12.723028
  10 Au   19.0000*   0   196.966    8.411719   12.791876   11.218945
  11 Au   19.0000*   0   196.966   14.742798   13.473087    7.515122
  12 Au   19.0000*   0   196.966    9.633786   12.606828    6.106626
  13 Au   19.0000*   0   196.966   12.172383    9.274844    9.425578
  14 Cr   24.0000    0    52.000   13.300234   13.663792   12.558228
* core charge reduced due to ECP

--------------------------------
INTERNAL COORDINATES (ANGSTROEM)
--------------------------------
 Au     0   0   0     0.000000000000     0.00000000     0.00000000
 Au     1   0   0     6.646910527586     0.00000000     0.00000000
 Au     2   1   0     4.094681312936    51.41300386     0.00000000
 Au     1   2   3     2.748612445575    53.01272414   295.25850359
 Au     2   1   3     2.844960018729    49.66915429   212.87956637
 Au     5   2   1     2.768623732153    59.33666099    47.63902451
 Au     6   5   2     2.703101632562   110.69595630   231.71375838
 Au     5   2   1     2.723016239994    98.30708283   346.67523295
 Au     2   1   3     3.980436313691    71.97718318    95.76674959
 Au     9   2   1     2.654127293305    51.67550873    51.30563845
 Au     4   1   2     2.615676656203   173.74377340   341.06479524
 Au     2   1   3     2.660706059371    97.96144831    58.53097134
 Au    11   4   1     2.783265487688   156.74322149    24.89028581
 Au     3   2   1     2.651400646004    80.00152614   113.71886557
 Cr     3   2   1     2.704130435587    41.54755760    48.86935330

---------------------------
INTERNAL COORDINATES (A.U.)
---------------------------
 Au     0   0   0     0.000000000000     0.00000000     0.00000000
 Au     1   0   0    12.560840533816     0.00000000     0.00000000
 Au     2   1   0     7.737826287133    51.41300386     0.00000000
 Au     1   2   3     5.194124770424    53.01272414   295.25850359
 Au     2   1   3     5.376195297354    49.66915429   212.87956637
 Au     5   2   1     5.231940621644    59.33666099    47.63902451
 Au     6   5   2     5.108121797698   110.69595630   231.71375838
 Au     5   2   1     5.145754951809    98.30708283   346.67523295
 Au     2   1   3     7.521934526391    71.97718318    95.76674959
 Au     9   2   1     5.015573708912    51.67550873    51.30563845
 Au     4   1   2     4.942912535114   173.74377340   341.06479524
 Au     2   1   3     5.028005775075    97.96144831    58.53097134
 Au    11   4   1     5.259609529724   156.74322149    24.89028581
 Au     3   2   1     5.010421092250    80.00152614   113.71886557
 Cr     3   2   1     5.110065953660    41.54755760    48.86935330

---------------------
BASIS SET INFORMATION
---------------------
There are 2 groups of distinct atoms

 Group   1 Type Au  : 8s7p6d1f contracted to 6s4p3d1f pattern {311111/4111/411/1}
 Group   2 Type Cr  : 17s11p7d1f contracted to 6s4p4d1f pattern {842111/6311/4111/1}

Atom   0Au   basis set group =>   1
Atom   1Au   basis set group =>   1
Atom   2Au   basis set group =>   1
Atom   3Au   basis set group =>   1
Atom   4Au   basis set group =>   1
Atom   5Au   basis set group =>   1
Atom   6Au   basis set group =>   1
Atom   7Au   basis set group =>   1
Atom   8Au   basis set group =>   1
Atom   9Au   basis set group =>   1
Atom  10Au   basis set group =>   1
Atom  11Au   basis set group =>   1
Atom  12Au   basis set group =>   1
Atom  13Au   basis set group =>   1
Atom  14Cr   basis set group =>   2
---------------------------------
AUXILIARY/J BASIS SET INFORMATION
---------------------------------
There are 2 groups of distinct atoms

 Group   1 Type Au  : 11s5p5d3f3g contracted to 8s5p5d2f3g pattern {41111111/11111/11111/21/111}
 Group   2 Type Cr  : 19s5p5d3f3g contracted to 8s5p5d2f3g pattern {121111111/11111/11111/21/111}

Atom   0Au   basis set group =>   1
Atom   1Au   basis set group =>   1
Atom   2Au   basis set group =>   1
Atom   3Au   basis set group =>   1
Atom   4Au   basis set group =>   1
Atom   5Au   basis set group =>   1
Atom   6Au   basis set group =>   1
Atom   7Au   basis set group =>   1
Atom   8Au   basis set group =>   1
Atom   9Au   basis set group =>   1
Atom  10Au   basis set group =>   1
Atom  11Au   basis set group =>   1
Atom  12Au   basis set group =>   1
Atom  13Au   basis set group =>   1
Atom  14Cr   basis set group =>   2
---------------------------------
AUXILIARY/C BASIS SET INFORMATION
---------------------------------
There are 2 groups of distinct atoms

 Group   1 Type Au  : 8s8p7d5f3g2h contracted to 8s8p7d5f3g2h pattern {11111111/11111111/1111111/11111/111/11}
 Group   2 Type Cr  : 11s9p8d6f5g2h contracted to 9s8p8d6f5g2h pattern {311111111/21111111/11111111/111111/11111/11}

Atom   0Au   basis set group =>   1
Atom   1Au   basis set group =>   1
Atom   2Au   basis set group =>   1
Atom   3Au   basis set group =>   1
Atom   4Au   basis set group =>   1
Atom   5Au   basis set group =>   1
Atom   6Au   basis set group =>   1
Atom   7Au   basis set group =>   1
Atom   8Au   basis set group =>   1
Atom   9Au   basis set group =>   1
Atom  10Au   basis set group =>   1
Atom  11Au   basis set group =>   1
Atom  12Au   basis set group =>   1
Atom  13Au   basis set group =>   1
Atom  14Cr   basis set group =>   2
-------------------------
ECP PARAMETER INFORMATION
-------------------------

 Group 1, Type Au ECP Def2-ECP (replacing 60 core electrons, lmax=3)

Atom   0Au   ECP group =>   1
Atom   1Au   ECP group =>   1
Atom   2Au   ECP group =>   1
Atom   3Au   ECP group =>   1
Atom   4Au   ECP group =>   1
Atom   5Au   ECP group =>   1
Atom   6Au   ECP group =>   1
Atom   7Au   ECP group =>   1
Atom   8Au   ECP group =>   1
Atom   9Au   ECP group =>   1
Atom  10Au   ECP group =>   1
Atom  11Au   ECP group =>   1
Atom  12Au   ECP group =>   1
Atom  13Au   ECP group =>   1



           ************************************************************
           *        Program running with 6 parallel MPI-processes     *
           *              working on a common directory               *
           ************************************************************
------------------------------------------------------------------------------
                           ORCA GTO INTEGRAL CALCULATION
                           -- RI-GTO INTEGRALS CHOSEN --
------------------------------------------------------------------------------
------------------------------------------------------------------------------
                   ___                                                        
                  /   \      - P O W E R E D   B Y -                         
                 /     \                                                     
                 |  |  |   _    _      __       _____    __    __             
                 |  |  |  | |  | |    /  \     |  _  \  |  |  /  |          
                  \  \/   | |  | |   /    \    | | | |  |  | /  /          
                 / \  \   | |__| |  /  /\  \   | |_| |  |  |/  /          
                |  |  |   |  __  | /  /__\  \  |    /   |      \           
                |  |  |   | |  | | |   __   |  |    \   |  |\   \          
                \     /   | |  | | |  |  |  |  | |\  \  |  | \   \       
                 \___/    |_|  |_| |__|  |__|  |_| \__\ |__|  \__/        
                                                                              
                      - O R C A' S   B I G   F R I E N D -                    
                                      &                                       
                       - I N T E G R A L  F E E D E R -                       
                                                                              
 v1 FN, 2020, v2 2021                                                         
------------------------------------------------------------------------------


Reading SHARK input file b2plyp.SHARKINP.tmp ... ok
----------------------
SHARK INTEGRAL PACKAGE
----------------------

Number of atoms                             ...     15
Number of basis functions                   ...    605
Number of shells                            ...    211
Maximum angular momentum                    ...      3
Integral batch strategy                     ... SHARK/LIBINT Hybrid
RI-J (if used) integral strategy            ... SPLIT-RIJ (Revised 2003 algorithm where possible)
Printlevel                                  ...      1
Contraction scheme used                     ... SEGMENTED contraction
Coulomb Range Separation                    ... NOT USED
Exchange Range Separation                   ... NOT USED
Finite Nucleus Model                        ... NOT USED
Auxiliary Coulomb fitting basis             ... AVAILABLE
   # of basis functions in Aux-J            ...   1335
   # of shells in Aux-J                     ...    345
   Maximum angular momentum in Aux-J        ...      4
Auxiliary J/K fitting basis                 ... NOT available
Auxiliary Correlation fitting basis         ... AVAILABLE
   # of basis functions in Aux-C            ...   2296
   # of shells in Aux-C                     ...    500
   Maximum angular momentum in Aux-C        ...      5
Auxiliary 'external' fitting basis          ... NOT available
Integral threshold                          ...     1.000000e-10
Primitive cut-off                           ...     1.000000e-11
Primitive pair pre-selection threshold      ...     1.000000e-11

Calculating pre-screening integrals         ... done (  0.3 sec) Dimension = 211
Organizing shell pair data                  ... done (  0.8 sec)
Shell pair information
Total number of shell pairs                 ...     22366
Shell pairs after pre-screening             ...     17383
Total number of primitive shell pairs       ...     59609
Primitive shell pairs kept                  ...     33332
          la=0 lb=0:   2750 shell pairs
          la=1 lb=0:   3963 shell pairs
          la=1 lb=1:   1497 shell pairs
          la=2 lb=0:   3435 shell pairs
          la=2 lb=1:   2457 shell pairs
          la=2 lb=2:   1012 shell pairs
          la=3 lb=0:    901 shell pairs
          la=3 lb=1:    690 shell pairs
          la=3 lb=2:    594 shell pairs
          la=3 lb=3:     84 shell pairs

Calculating one electron integrals          ... done (  0.3 sec)
Calculating ECP integrals                   ... done ( 20.1 sec)
Calculating RI/J V-Matrix + Cholesky decomp.... done (  2.7 sec)
Calculating RI/C V-Matrix + Cholesky decomp.... done (  4.0 sec)
Calculating Nuclear repulsion               ... done (  0.0 sec) ENN=   5428.832285125166 Eh

SHARK setup successfully completed in  29.5 seconds

Maximum memory used throughout the entire GTOINT-calculation: 48.9 MB


           ************************************************************
           *        Program running with 6 parallel MPI-processes     *
           *              working on a common directory               *
           ************************************************************
-------------------------------------------------------------------------------
                                 ORCA SCF
-------------------------------------------------------------------------------

------------
SCF SETTINGS
------------
Hamiltonian:
 Density Functional     Method          .... DFT(GTOs)
 Exchange Functional    Exchange        .... B88
   X-Alpha parameter    XAlpha          ....  0.666667
   Becke's b parameter  XBeta           ....  0.004200
 Correlation Functional Correlation     .... LYP
 LDA part of GGA corr.  LDAOpt          .... VWN-3
 Gradients option       PostSCFGGA      .... off
 Hybrid DFT is turned on
   Fraction HF Exchange ScalHFX         ....  0.530000
   Scaling of DF-GGA-X  ScalDFX         ....  0.470000
   Scaling of DF-GGA-C  ScalDFC         ....  0.730000
   Scaling of DF-LDA-C  ScalLDAC        ....  0.730000
   Perturbative correction              ....  0.270000
   Density functional embedding theory  .... OFF
   NL short-range parameter             ....  7.800000
 RI-approximation to the Coulomb term is turned on
   Number of AuxJ basis functions       .... 1335
   RIJ-COSX (HFX calculated with COS-X)).... on


General Settings:
 Integral files         IntName         .... b2plyp
 Hartree-Fock type      HFTyp           .... UHF
 Total Charge           Charge          ....    0
 Multiplicity           Mult            ....    5
 Number of Electrons    NEL             ....  290
 Basis Dimension        Dim             ....  605
 Nuclear Repulsion      ENuc            ....   5428.8322851252 Eh

Convergence Acceleration:
 DIIS                   CNVDIIS         .... on
   Start iteration      DIISMaxIt       ....     0
   Startup error        DIISStart       ....  0.200000
   # of expansion vecs  DIISMaxEq       ....     5
   Bias factor          DIISBfac        ....   1.050
   Max. coefficient     DIISMaxC        ....  10.000
 Trust-Rad. Augm. Hess. CNVTRAH         .... auto
   Auto Start mean grad. ratio tolernc. ....  1.125000
   Auto Start start iteration           ....   200
   Auto Start num. interpolation iter.  ....    10
   Max. Number of Micro iterations      ....    16
   Max. Number of Macro iterations      .... Maxiter - #DIIS iter
   Number of Davidson start vectors     ....     2
   Converg. threshold I  (grad. norm)   ....   5.000e-05
   Converg. threshold II (energy diff.) ....   1.000e-06
   Grad. Scal. Fac. for Micro threshold ....   0.100
   Minimum threshold for Micro iter.    ....   0.010
   NR start threshold (gradient norm)   ....   0.001
   Initial trust radius                 ....   0.400
   Minimum AH scaling param. (alpha)    ....   1.000
   Maximum AH scaling param. (alpha)    .... 1000.000
   Orbital update algorithm             .... Taylor
   White noise on init. David. guess    .... on
   Maximum white noise                  ....   0.010
   Quad. conv. algorithm                .... NR
 SOSCF                  CNVSOSCF        .... off
 Level Shifting         CNVShift        .... on
   Level shift para.    LevelShift      ....    0.2500
   Turn off err/grad.   ShiftErr        ....    0.0000
 Zerner damping         CNVZerner       .... off
 Static damping         CNVDamp         .... on
   Fraction old density DampFac         ....    0.9200
   Max. Damping (<1)    DampMax         ....    0.9800
   Min. Damping (>=0)   DampMin         ....    0.0000
   Turn off err/grad.   DampErr         ....    0.0030
 Fernandez-Rico         CNVRico         .... off

SCF Procedure:
 Maximum # iterations   MaxIter         ....   400
 SCF integral mode      SCFMode         .... Direct
   Integral package                     .... SHARK and LIBINT hybrid scheme
 Reset frequency        DirectResetFreq ....    20
 Integral Threshold     Thresh          ....  1.000e-10 Eh
 Primitive CutOff       TCut            ....  1.000e-11 Eh

Convergence Tolerance:
 Convergence Check Mode ConvCheckMode   .... Total+1el-Energy
 Convergence forced     ConvForced      .... 0
 Energy Change          TolE            ....  1.000e-06 Eh
 1-El. energy change                    ....  1.000e-03 Eh
 DIIS Error             TolErr          ....  1.000e-06


Diagonalization of the overlap matrix:
Smallest eigenvalue                        ... 2.113e-04
Time for diagonalization                   ...    0.128 sec
Threshold for overlap eigenvalues          ... 1.000e-08
Number of eigenvalues below threshold      ... 0
Time for construction of square roots      ...    0.269 sec
Total time needed                          ...    0.589 sec

Time for model grid setup =    1.328 sec

------------------------------
INITIAL GUESS: MODEL POTENTIAL
------------------------------
Loading Hartree-Fock densities                     ... done
  calling /media/Programs/ORCA501/orca b2plyp_atom79.inp > b2plyp_atom79.out in order to generate an atomic fitting density for atom 0 (Au with ECP) on-the-fly... 
    atom 0 (Au), assumed electronic state with S=2: 1s2 2s2 2p6 3s2 3p6 4s2 3d10 4p6 5s2 4d10 5p6 6s1 4f14 5d10           ... done
Calculating cut-offs                               ... done
Initializing the effective Hamiltonian             ... done
Setting up the integral package (SHARK)            ... done
Starting the Coulomb interaction                   ... done (   2.3 sec)
Reading the grid                                   ... done
Mapping shells                                     ... done
Starting the XC term evaluation                    ... done (   1.1 sec)
  promolecular density results
     # of electrons  =   1130.014840499
     EX              =  -5190.682851640
     EC              =    -22.953175293
     EX+EC           =  -5213.636026934
Transforming the Hamiltonian                       ... done (   1.2 sec)
Diagonalizing the Hamiltonian                      ... done (   0.8 sec)
Back transforming the eigenvectors                 ... done (   0.1 sec)
Now organizing SCF variables                       ... done
                      ------------------
                      INITIAL GUESS DONE (   8.7 sec)
                      ------------------
-------------------
DFT GRID GENERATION
-------------------

General Integration Accuracy     IntAcc      ... 4.388
Radial Grid Type                 RadialGrid  ... OptM3 with GC (2021)
Angular Grid (max. ang.)         AngularGrid ... 4 (Lebedev-302)
Angular grid pruning method      GridPruning ... 4 (adaptive)
Weight generation scheme         WeightScheme... Becke
Basis function cutoff            BFCut       ... 1.0000e-10
Integration weight cutoff        WCut        ... 1.0000e-14
Angular grids for H and He will be reduced by one unit
Partially contracted basis set               ... off
Rotationally invariant grid construction     ... off

Total number of grid points                  ...   166286
Total number of batches                      ...     2606
Average number of points per batch           ...       63
Average number of grid points per atom       ...    11086
Time for grid setup =    4.269 sec

--------------------
COSX GRID GENERATION
--------------------

GRIDX 1
-------
General Integration Accuracy     IntAcc      ... 3.816
Radial Grid Type                 RadialGrid  ... OptM3 with GC (2021)
Angular Grid (max. ang.)         AngularGrid ... 1 (Lebedev-50)
Angular grid pruning method      GridPruning ... 4 (adaptive)
Weight generation scheme         WeightScheme... Becke
Basis function cutoff            BFCut       ... 1.0000e-10
Integration weight cutoff        WCut        ... 1.0000e-14
Angular grids for H and He will be reduced by one unit
Partially contracted basis set               ... on
Rotationally invariant grid construction     ... off

Total number of grid points                  ...    17410
Total number of batches                      ...      279
Average number of points per batch           ...       62
Average number of grid points per atom       ...     1161
UseSFitting                                  ... on

GRIDX 2
-------
General Integration Accuracy     IntAcc      ... 4.020
Radial Grid Type                 RadialGrid  ... OptM3 with GC (2021)
Angular Grid (max. ang.)         AngularGrid ... 2 (Lebedev-110)
Angular grid pruning method      GridPruning ... 4 (adaptive)
Weight generation scheme         WeightScheme... Becke
Basis function cutoff            BFCut       ... 1.0000e-10
Integration weight cutoff        WCut        ... 1.0000e-14
Angular grids for H and He will be reduced by one unit
Partially contracted basis set               ... on
Rotationally invariant grid construction     ... off

Total number of grid points                  ...    52835
Total number of batches                      ...      834
Average number of points per batch           ...       63
Average number of grid points per atom       ...     3522
UseSFitting                                  ... on

GRIDX 3
-------
General Integration Accuracy     IntAcc      ... 4.338
Radial Grid Type                 RadialGrid  ... OptM3 with GC (2021)
Angular Grid (max. ang.)         AngularGrid ... 3 (Lebedev-194)
Angular grid pruning method      GridPruning ... 4 (adaptive)
Weight generation scheme         WeightScheme... Becke
Basis function cutoff            BFCut       ... 1.0000e-10
Integration weight cutoff        WCut        ... 1.0000e-14
Angular grids for H and He will be reduced by one unit
Partially contracted basis set               ... on
Rotationally invariant grid construction     ... off

Total number of grid points                  ...    96205
Total number of batches                      ...     1509
Average number of points per batch           ...       63
Average number of grid points per atom       ...     6414
UseSFitting                                  ... on

Time for X-Grid setup             =    5.992 sec

--------------
SCF ITERATIONS
--------------
ITER       Energy         Delta-E        Max-DP      RMS-DP      [F,P]     Damp
               ***  Starting incremental Fock matrix formation  ***
  0  -2938.5235372436   0.000000000000 0.05933055  0.00046692  0.2738372 0.9200
  1  -2938.8417069062  -0.318169662538 0.05240837  0.00045183  0.2520355 0.9200
                               ***Turning on DIIS***
  2  -2939.0210599934  -0.179353087222 0.04633942  0.00038507  0.2317041 0.9200
  3  -2939.1001301588  -0.079070165430 0.03817460  0.00026152  0.2130385 0.9200
  4  -2939.1705683725  -0.070438213676 0.03453970  0.00024007  0.1958862 0.9200
  5  -2939.2384450133  -0.067876640858 0.03432275  0.00022569  0.1801577 0.9200
  6  -2939.2987313183  -0.060286304990 0.03207132  0.00020814  0.1658004 0.9200
  7  -2939.3601388503  -0.061407531937 0.01913800  0.00020002  0.1526308 0.9200
  8  -2939.4241080016  -0.063969151357 0.01800561  0.00018655  0.1404633 0.9200
  9  -2939.4824658187  -0.058357817117 0.02450847  0.00016883  0.1292306 0.9200
 10  -2939.5369921382  -0.054526319463 0.02507901  0.00015808  0.1188792 0.9200
 11  -2939.5868198604  -0.049827722193 0.02448817  0.00014740  0.1093556 0.9200
 12  -2939.6339415995  -0.047121739135 0.02187213  0.00013797  0.1006076 0.9200
 13  -2939.6789175523  -0.044975952725 0.01899294  0.00012867  0.0925663 0.9200
 14  -2939.7208706460  -0.041953093692 0.01727329  0.00011806  0.0851693 0.9200
 15  -2939.7599325801  -0.039061934155 0.01590007  0.00010927  0.0783609 0.9200
 16  -2939.7962482292  -0.036315649056 0.01534041  0.00010163  0.0720930 0.9200
 17  -2939.8301551311  -0.033906901916 0.01486900  0.00009459  0.0663259 0.9200
 18  -2939.8618952542  -0.031740123132 0.01377642  0.00008786  0.0610214 0.9200
 19  -2939.8915028819  -0.029607627670 0.01187093  0.00008103  0.0561428 0.9200
               *** Restarting incremental Fock matrix formation ***
                                   *** Resetting DIIS ***
 20  -2939.9197195813  -0.028216699413 0.00859722  0.00007159  0.0516550 0.9200
 21  -2939.9456171996  -0.025897618345 0.00814417  0.00006571  0.0475179 0.9200
 22  -2939.9696587824  -0.024041582765 0.00815696  0.00006147  0.0437164 0.9200
 23  -2939.9919291518  -0.022270369388 0.00823462  0.00005841  0.0402301 0.9200
 24  -2940.0125439108  -0.020614759010 0.00820389  0.00005561  0.0370269 0.9200
 25  -2940.0316326964  -0.019088785617 0.00793603  0.00005240  0.0340775 0.9200
 26  -2940.0493320671  -0.017699370635 0.00737281  0.00004905  0.0313559 0.9200
 27  -2940.0657365699  -0.016404502866 0.00663500  0.00004571  0.0288480 0.9200
 28  -2940.0809373967  -0.015200826813 0.00598512  0.00004257  0.0265409 0.9200
 29  -2940.0950220819  -0.014084685157 0.00551838  0.00003962  0.0244197 0.9200
 30  -2940.1080722593  -0.013050177415 0.00513420  0.00003686  0.0224689 0.9200
 31  -2940.1201615695  -0.012089310172 0.00472591  0.00003427  0.0206738 0.9200
 32  -2940.1313567739  -0.011195204379 0.00427894  0.00003185  0.0190217 0.9200
 33  -2940.1417203907  -0.010363616846 0.00387150  0.00002959  0.0175016 0.9200
 34  -2940.1513112677  -0.009590877035 0.00352095  0.00002749  0.0161030 0.9200
 35  -2940.1601845442  -0.008873276488 0.00321093  0.00002555  0.0148163 0.9200
 36  -2940.1683915528  -0.008207008606 0.00290807  0.00002374  0.0136325 0.9200
 37  -2940.1759799928  -0.007588440007 0.00261247  0.00002207  0.0125432 0.9200
 38  -2940.1829944195  -0.007014426669 0.00235103  0.00002052  0.0115410 0.9200
 39  -2940.1894764855  -0.006482065941 0.00182360  0.00001895  0.0106189 0.9200
               *** Restarting incremental Fock matrix formation ***
                                   *** Resetting DIIS ***
 40  -2940.1954701148  -0.005993629383 0.00160633  0.00001591  0.0097704 0.9200
 41  -2940.2010211849  -0.005551070108 0.00155875  0.00001434  0.0089932 0.9200
 42  -2940.2061444571  -0.005123272200 0.00147792  0.00001352  0.0082790 0.9200
 43  -2940.2108690138  -0.004724556637 0.00138470  0.00001307  0.0076207 0.9200
 44  -2940.2152242603  -0.004355246551 0.00131171  0.00001266  0.0070139 0.9200
 45  -2940.2192386339  -0.004014373570 0.00125253  0.00001206  0.0064549 0.9200
 46  -2940.2229402626  -0.003701628696 0.00117080  0.00001141  0.0059402 0.9200
 47  -2940.2263536832  -0.003413420611 0.00108116  0.00001076  0.0054664 0.9200
 48  -2940.2295013787  -0.003147695538 0.00098647  0.00001013  0.0050303 0.9200
 49  -2940.2324040476  -0.002902668883 0.00089138  0.00000951  0.0046289 0.9200
 50  -2940.2350807410  -0.002676693323 0.00082612  0.00000893  0.0042596 0.9200
 51  -2940.2375489465  -0.002468205566 0.00076099  0.00000837  0.0039197 0.9200
 52  -2940.2398247059  -0.002275759412 0.00070578  0.00000785  0.0036070 0.9200
 53  -2940.2419228560  -0.002098150039 0.00066006  0.00000737  0.0033193 0.9200
 54  -2940.2438571264  -0.001934270458 0.00060474  0.00000691  0.0030545 0.9200
 55  -2940.2456401478  -0.001783021341 0.00677636  0.00008093  0.0028108 0.0000
 56  -2940.2664407714  -0.020800623643 0.00184106  0.00000781  0.0004259 0.0000
               *** Restarting incremental Fock matrix formation ***
                                   *** Resetting DIIS ***
 57  -2940.2655563791   0.000884392306 0.01474540  0.00015354  0.0004157 0.0000
 58  -2940.2657521127  -0.000195733618 0.00501431  0.00005171  0.0002318 0.0000
 59  -2940.2657820900  -0.000029977223 0.00154763  0.00001713  0.0002483 0.0000
 60  -2940.2657904189  -0.000008328951 0.00065534  0.00000774  0.0002203 0.0000
 61  -2940.2657945244  -0.000004105537 0.00061318  0.00000411  0.0002123 0.0000
 62  -2940.2657972511  -0.000002726691 0.00044702  0.00000352  0.0002064 0.0000
 63  -2940.2657997025  -0.000002451376 0.00040766  0.00000296  0.0001936 0.0000
 64  -2940.2658016755  -0.000001973007 0.00047429  0.00000329  0.0001835 0.0000
 65  -2940.2658037685  -0.000002092988 0.00052261  0.00000326  0.0001653 0.0000
 66  -2940.2658058590  -0.000002090458 0.00048445  0.00000295  0.0001459 0.0000
 67  -2940.2658075246  -0.000001665650 0.00052945  0.00000290  0.0001289 0.0000
 68  -2940.2658092733  -0.000001748667 0.00053789  0.00000273  0.0001237 0.0000
 69  -2940.2658107597  -0.000001486459 0.00049736  0.00000248  0.0001159 0.0000
 70  -2940.2658120491  -0.000001289384 0.00060891  0.00000279  0.0001069 0.0000
 71  -2940.2658133103  -0.000001261145 0.00032885  0.00000169  0.0001019 0.0000
 72  -2940.2658141337  -0.000000823426 0.00105452  0.00000440  0.0000828 0.0000
 73  -2940.2658155944  -0.000001460735 0.00010348  0.00000089  0.0001470 0.0000
 74  -2940.2658158832  -0.000000288785 0.00050118  0.00000216  0.0000466 0.0000
 75  -2940.2658165473  -0.000000664057 0.00062010  0.00000267  0.0000595 0.0000
 76  -2940.2658171059  -0.000000558598 0.00353454  0.00000701  0.0000893 0.0000
               *** Restarting incremental Fock matrix formation ***
                                   *** Resetting DIIS ***
 77  -2940.2658165331   0.000000572776 0.00167881  0.00000322  0.0000747 0.0000
 78  -2940.2658166695  -0.000000136441 0.00078101  0.00000139  0.0000300 0.0000
 79  -2940.2658167453  -0.000000075814 0.00038424  0.00000078  0.0000251 0.0000
 80  -2940.2658167609  -0.000000015587 0.00023194  0.00000064  0.0000278 0.0000
 81  -2940.2658169078  -0.000000146837 0.00011916  0.00000051  0.0000296 0.0000
 82  -2940.2658169270  -0.000000019258 0.00016091  0.00000064  0.0000303 0.0000
                 **** Energy Check signals convergence ****

               *****************************************************
               *                     SUCCESS                       *
               *           SCF CONVERGED AFTER  83 CYCLES          *
               *****************************************************

Old exchange energy                            =   -113.716148789 Eh
New exchange energy                            =   -113.716350079 Eh
Exchange energy change after final integration =     -0.000201290 Eh
Total energy after final integration           =  -2940.266018380 Eh
Final COS-X integration done in                =    50.674 sec

----------------
TOTAL SCF ENERGY
----------------

Total Energy       :        -2940.26601838 Eh          -80008.70592 eV

Components:
Nuclear Repulsion  :         5428.83228513 Eh          147726.03672 eV
Electronic Energy  :        -8369.09830351 Eh         -227734.74265 eV
One Electron Energy:       -15631.45267315 Eh         -425353.45179 eV
Two Electron Energy:         7262.35436965 Eh          197618.70914 eV
Max COSX asymmetry :            0.00000748 Eh               0.00020 eV

Virial components:
Potential Energy   :        -4626.72295127 Eh         -125899.53211 eV
Kinetic Energy     :         1686.45693289 Eh           45890.82619 eV
Virial Ratio       :            2.74345752


DFT components:
N(Alpha)           :      146.999949919382 electrons
N(Beta)            :      142.999947327600 electrons
N(Total)           :      289.999897246982 electrons
E(X)               :     -102.483177931424 Eh       
E(C)               :       -7.961339766595 Eh       
E(XC)              :     -110.444517698019 Eh       
DFET-embed. en.    :        0.000000000000 Eh       

---------------
SCF CONVERGENCE
---------------

  Last Energy change         ...   -1.6339e-07  Tolerance :   1.0000e-06
  Last MAX-Density change    ...    0.0000e+00  Tolerance :   1.0000e-05
  Last RMS-Density change    ...    0.0000e+00  Tolerance :   1.0000e-06
  Last DIIS Error            ...    2.8701e-05  Tolerance :   1.0000e-06

             **** THE GBW FILE WAS UPDATED (b2plyp.gbw) ****
             **** DENSITY b2plyp.scfp WAS UPDATED ****
             **** ENERGY FILE WAS UPDATED (b2plyp.en.tmp) ****
----------------------
UHF SPIN CONTAMINATION
----------------------

Warning: in a DFT calculation there is little theoretical justification to 
         calculate <S**2> as in Hartree-Fock theory. We will do it anyways
         but you should keep in mind that the values have only limited relevance

Expectation value of <S**2>     :     6.089528
Ideal value S*(S+1) for S=2.0   :     6.000000
Deviation                       :     0.089528

             **** THE GBW FILE WAS UPDATED (b2plyp.gbw) ****
             **** DENSITY b2plyp.scfp WAS UPDATED ****
----------------
ORBITAL ENERGIES
----------------
                 SPIN UP ORBITALS
  NO   OCC          E(Eh)            E(eV) 
   0   1.0000    -217.752859     -5925.3565 
   1   1.0000     -25.438151      -692.2073 
   2   1.0000     -21.577727      -587.1598 
   3   1.0000     -21.577333      -587.1491 
   4   1.0000     -21.571478      -586.9898 
   5   1.0000      -4.406034      -119.8943 
   6   1.0000      -4.400498      -119.7436 
   7   1.0000      -4.397451      -119.6607 
   8   1.0000      -4.396962      -119.6474 
   9   1.0000      -4.395383      -119.6045 
  10   1.0000      -4.394732      -119.5867 
  11   1.0000      -4.393115      -119.5427 
  12   1.0000      -4.392947      -119.5382 
  13   1.0000      -4.392754      -119.5329 
  14   1.0000      -4.391387      -119.4957 
  15   1.0000      -4.388967      -119.4299 
  16   1.0000      -4.388518      -119.4176 
  17   1.0000      -4.386376      -119.3594 
  18   1.0000      -4.382059      -119.2419 
  19   1.0000      -3.229312       -87.8740 
  20   1.0000      -2.529275       -68.8251 
  21   1.0000      -2.523443       -68.6664 
  22   1.0000      -2.522528       -68.6415 
  23   1.0000      -2.520595       -68.5889 
  24   1.0000      -2.520075       -68.5747 
  25   1.0000      -2.517482       -68.5042 
  26   1.0000      -2.516548       -68.4787 
  27   1.0000      -2.516123       -68.4672 
  28   1.0000      -2.515609       -68.4532 
  29   1.0000      -2.515353       -68.4462 
  30   1.0000      -2.514864       -68.4329 
  31   1.0000      -2.514585       -68.4253 
  32   1.0000      -2.514235       -68.4158 
  33   1.0000      -2.513981       -68.4089 
  34   1.0000      -2.512839       -68.3778 
  35   1.0000      -2.512503       -68.3687 
  36   1.0000      -2.512087       -68.3574 
  37   1.0000      -2.511927       -68.3530 
  38   1.0000      -2.511472       -68.3406 
  39   1.0000      -2.511320       -68.3365 
  40   1.0000      -2.510598       -68.3169 
  41   1.0000      -2.509792       -68.2949 
  42   1.0000      -2.509574       -68.2890 
  43   1.0000      -2.509400       -68.2842 
  44   1.0000      -2.508756       -68.2667 
  45   1.0000      -2.508231       -68.2524 
  46   1.0000      -2.507282       -68.2266 
  47   1.0000      -2.507180       -68.2238 
  48   1.0000      -2.507014       -68.2193 
  49   1.0000      -2.505881       -68.1885 
  50   1.0000      -2.505329       -68.1735 
  51   1.0000      -2.505081       -68.1667 
  52   1.0000      -2.504508       -68.1511 
  53   1.0000      -2.504024       -68.1380 
  54   1.0000      -2.503630       -68.1272 
  55   1.0000      -2.503481       -68.1232 
  56   1.0000      -2.502711       -68.1022 
  57   1.0000      -2.501647       -68.0733 
  58   1.0000      -2.499765       -68.0221 
  59   1.0000      -2.499637       -68.0186 
  60   1.0000      -2.498520       -67.9882 
  61   1.0000      -2.495340       -67.9016 
  62   1.0000      -2.122306       -57.7509 
  63   1.0000      -2.110997       -57.4431 
  64   1.0000      -2.110218       -57.4220 
  65   1.0000      -0.494774       -13.4635 
  66   1.0000      -0.482509       -13.1297 
  67   1.0000      -0.479080       -13.0364 
  68   1.0000      -0.468850       -12.7581 
  69   1.0000      -0.467849       -12.7308 
  70   1.0000      -0.464931       -12.6514 
  71   1.0000      -0.459165       -12.4945 
  72   1.0000      -0.458544       -12.4776 
  73   1.0000      -0.456332       -12.4174 
  74   1.0000      -0.453653       -12.3445 
  75   1.0000      -0.450521       -12.2593 
  76   1.0000      -0.448463       -12.2033 
  77   1.0000      -0.444005       -12.0820 
  78   1.0000      -0.443029       -12.0554 
  79   1.0000      -0.440561       -11.9883 
  80   1.0000      -0.439716       -11.9653 
  81   1.0000      -0.437775       -11.9125 
  82   1.0000      -0.436732       -11.8841 
  83   1.0000      -0.434455       -11.8221 
  84   1.0000      -0.431630       -11.7453 
  85   1.0000      -0.429056       -11.6752 
  86   1.0000      -0.428144       -11.6504 
  87   1.0000      -0.425107       -11.5678 
  88   1.0000      -0.424194       -11.5429 
  89   1.0000      -0.421711       -11.4754 
  90   1.0000      -0.416338       -11.3291 
  91   1.0000      -0.415151       -11.2968 
  92   1.0000      -0.411505       -11.1976 
  93   1.0000      -0.408536       -11.1168 
  94   1.0000      -0.407203       -11.0805 
  95   1.0000      -0.406945       -11.0735 
  96   1.0000      -0.402009       -10.9392 
  97   1.0000      -0.398354       -10.8398 
  98   1.0000      -0.397354       -10.8126 
  99   1.0000      -0.395876       -10.7723 
 100   1.0000      -0.394692       -10.7401 
 101   1.0000      -0.392362       -10.6767 
 102   1.0000      -0.389939       -10.6108 
 103   1.0000      -0.386401       -10.5145 
 104   1.0000      -0.383996       -10.4491 
 105   1.0000      -0.382914       -10.4196 
 106   1.0000      -0.382018       -10.3952 
 107   1.0000      -0.380901       -10.3648 
 108   1.0000      -0.379688       -10.3318 
 109   1.0000      -0.377269       -10.2660 
 110   1.0000      -0.373001       -10.1499 
 111   1.0000      -0.372301       -10.1308 
 112   1.0000      -0.370152       -10.0724 
 113   1.0000      -0.367947       -10.0123 
 114   1.0000      -0.365792        -9.9537 
 115   1.0000      -0.365368        -9.9422 
 116   1.0000      -0.364235        -9.9113 
 117   1.0000      -0.362345        -9.8599 
 118   1.0000      -0.359989        -9.7958 
 119   1.0000      -0.359182        -9.7738 
 120   1.0000      -0.356365        -9.6972 
 121   1.0000      -0.355247        -9.6668 
 122   1.0000      -0.354095        -9.6354 
 123   1.0000      -0.353542        -9.6204 
 124   1.0000      -0.351069        -9.5531 
 125   1.0000      -0.349670        -9.5150 
 126   1.0000      -0.348038        -9.4706 
 127   1.0000      -0.346911        -9.4399 
 128   1.0000      -0.344881        -9.3847 
 129   1.0000      -0.341281        -9.2867 
 130   1.0000      -0.340246        -9.2586 
 131   1.0000      -0.337478        -9.1832 
 132   1.0000      -0.333277        -9.0689 
 133   1.0000      -0.331377        -9.0172 
 134   1.0000      -0.330431        -8.9915 
 135   1.0000      -0.328862        -8.9488 
 136   1.0000      -0.324883        -8.8405 
 137   1.0000      -0.322036        -8.7631 
 138   1.0000      -0.319709        -8.6997 
 139   1.0000      -0.315208        -8.5772 
 140   1.0000      -0.313381        -8.5275 
 141   1.0000      -0.309506        -8.4221 
 142   1.0000      -0.292464        -7.9584 
 143   1.0000      -0.246778        -6.7152 
 144   1.0000      -0.234325        -6.3763 
 145   1.0000      -0.233568        -6.3557 
 146   1.0000      -0.215232        -5.8568 
 147   0.0000      -0.101372        -2.7585 
 148   0.0000      -0.084488        -2.2990 
 149   0.0000      -0.071815        -1.9542 
 150   0.0000      -0.066999        -1.8231 
 151   0.0000      -0.059798        -1.6272 
 152   0.0000      -0.052624        -1.4320 
 153   0.0000      -0.049014        -1.3337 
 154   0.0000      -0.035962        -0.9786 
 155   0.0000      -0.009577        -0.2606 
 156   0.0000      -0.004157        -0.1131 
 157   0.0000      -0.001291        -0.0351 
 158   0.0000       0.004026         0.1096 
 159   0.0000       0.016483         0.4485 
 160   0.0000       0.019024         0.5177 
 161   0.0000       0.024449         0.6653 
 162   0.0000       0.038255         1.0410 
 163   0.0000       0.044949         1.2231 
 164   0.0000       0.052735         1.4350 
 165   0.0000       0.056903         1.5484 
 166   0.0000       0.071947         1.9578 
 167   0.0000       0.072480         1.9723 
 168   0.0000       0.077124         2.0987 
 169   0.0000       0.079052         2.1511 
 170   0.0000       0.087000         2.3674 
 171   0.0000       0.089281         2.4295 
 172   0.0000       0.090360         2.4588 
 173   0.0000       0.094644         2.5754 
 174   0.0000       0.098402         2.6776 
 175   0.0000       0.102996         2.8027 
 176   0.0000       0.105020         2.8577 
 177   0.0000       0.107663         2.9297 
 178   0.0000       0.110094         2.9958 
 179   0.0000       0.114490         3.1154 
 180   0.0000       0.119911         3.2629 
 181   0.0000       0.126496         3.4421 
 182   0.0000       0.130577         3.5532 
 183   0.0000       0.133887         3.6433 
 184   0.0000       0.141394         3.8475 
 185   0.0000       0.144872         3.9422 
 186   0.0000       0.149146         4.0585 
 187   0.0000       0.150987         4.1086 
 188   0.0000       0.155618         4.2346 
 189   0.0000       0.161383         4.3915 
 190   0.0000       0.170011         4.6262 
 191   0.0000       0.173046         4.7088 
 192   0.0000       0.175749         4.7824 
 193   0.0000       0.178831         4.8662 
 194   0.0000       0.190773         5.1912 
 195   0.0000       0.193704         5.2709 
 196   0.0000       0.198367         5.3978 
 197   0.0000       0.204381         5.5615 
 198   0.0000       0.209245         5.6938 
 199   0.0000       0.214521         5.8374 
 200   0.0000       0.218459         5.9446 
 201   0.0000       0.222549         6.0559 
 202   0.0000       0.226291         6.1577 
 203   0.0000       0.228272         6.2116 
 204   0.0000       0.229694         6.2503 
 205   0.0000       0.264898         7.2082 
 206   0.0000       0.278735         7.5848 
 207   0.0000       0.288420         7.8483 
 208   0.0000       0.292337         7.9549 
 209   0.0000       0.295964         8.0536 
 210   0.0000       0.300602         8.1798 
 211   0.0000       0.304147         8.2763 
 212   0.0000       0.310889         8.4597 
 213   0.0000       0.314862         8.5678 
 214   0.0000       0.325700         8.8627 
 215   0.0000       0.328786         8.9467 
 216   0.0000       0.336646         9.1606 
 217   0.0000       0.343678         9.3520 
 218   0.0000       0.346060         9.4168 
 219   0.0000       0.353635         9.6229 
 220   0.0000       0.360681         9.8146 
 221   0.0000       0.361682         9.8419 
 222   0.0000       0.365133         9.9358 
 223   0.0000       0.367809        10.0086 
 224   0.0000       0.369709        10.0603 
 225   0.0000       0.372267        10.1299 
 226   0.0000       0.378985        10.3127 
 227   0.0000       0.381388        10.3781 
 228   0.0000       0.385273        10.4838 
 229   0.0000       0.387349        10.5403 
 230   0.0000       0.391794        10.6613 
 231   0.0000       0.396145        10.7796 
 232   0.0000       0.398835        10.8529 
 233   0.0000       0.406862        11.0713 
 234   0.0000       0.410551        11.1716 
 235   0.0000       0.413816        11.2605 
 236   0.0000       0.418400        11.3852 
 237   0.0000       0.421001        11.4560 
 238   0.0000       0.431344        11.7375 
 239   0.0000       0.435079        11.8391 
 240   0.0000       0.437940        11.9170 
 241   0.0000       0.439711        11.9651 
 242   0.0000       0.447856        12.1868 
 243   0.0000       0.450410        12.2563 
 244   0.0000       0.458191        12.4680 
 245   0.0000       0.460285        12.5250 
 246   0.0000       0.462470        12.5845 
 247   0.0000       0.466987        12.7074 
 248   0.0000       0.475432        12.9372 
 249   0.0000       0.478653        13.0248 
 250   0.0000       0.483454        13.1554 
 251   0.0000       0.485817        13.2198 
 252   0.0000       0.490651        13.3513 
 253   0.0000       0.495674        13.4880 
 254   0.0000       0.500261        13.6128 
 255   0.0000       0.506025        13.7696 
 256   0.0000       0.509041        13.8517 
 257   0.0000       0.513449        13.9717 
 258   0.0000       0.517343        14.0776 
 259   0.0000       0.521639        14.1945 
 260   0.0000       0.523955        14.2575 
 261   0.0000       0.531665        14.4673 
 262   0.0000       0.536671        14.6036 
 263   0.0000       0.541261        14.7285 
 264   0.0000       0.544031        14.8038 
 265   0.0000       0.552067        15.0225 
 266   0.0000       0.559328        15.2201 
 267   0.0000       0.564570        15.3627 
 268   0.0000       0.571321        15.5464 
 269   0.0000       0.576015        15.6742 
 270   0.0000       0.578244        15.7348 
 271   0.0000       0.584742        15.9116 
 272   0.0000       0.587214        15.9789 
 273   0.0000       0.589535        16.0421 
 274   0.0000       0.599009        16.2999 
 275   0.0000       0.602762        16.4020 
 276   0.0000       0.604950        16.4615 
 277   0.0000       0.612320        16.6621 
 278   0.0000       0.613828        16.7031 
 279   0.0000       0.622226        16.9316 
 280   0.0000       0.626122        17.0377 
 281   0.0000       0.631203        17.1759 
 282   0.0000       0.637897        17.3581 
 283   0.0000       0.643473        17.5098 
 284   0.0000       0.646135        17.5822 
 285   0.0000       0.648031        17.6338 
 286   0.0000       0.652886        17.7659 
 287   0.0000       0.660351        17.9691 
 288   0.0000       0.665561        18.1108 
 289   0.0000       0.678600        18.4656 
 290   0.0000       0.688996        18.7485 
 291   0.0000       0.695872        18.9356 
 292   0.0000       0.705652        19.2018 
 293   0.0000       0.712728        19.3943 
 294   0.0000       0.736379        20.0379 
 295   0.0000       0.789775        21.4909 
 296   0.0000       0.807995        21.9867 
 297   0.0000       0.828796        22.5527 
 298   0.0000       0.845482        23.0067 
 299   0.0000       0.849050        23.1038 
 300   0.0000       0.864396        23.5214 
 301   0.0000       0.874589        23.7988 
 302   0.0000       0.881500        23.9868 
 303   0.0000       0.887772        24.1575 
 304   0.0000       0.899767        24.4839 
 305   0.0000       0.902376        24.5549 
 306   0.0000       0.913455        24.8564 
 307   0.0000       0.926829        25.2203 
 308   0.0000       0.934978        25.4421 
 309   0.0000       0.944577        25.7032 
 310   0.0000       0.950037        25.8518 
 311   0.0000       0.957197        26.0467 
 312   0.0000       0.966917        26.3111 
 313   0.0000       0.977435        26.5974 
 314   0.0000       0.988047        26.8861 
 315   0.0000       0.995105        27.0782 
 316   0.0000       0.999454        27.1965 
 317   0.0000       1.004511        27.3341 
 318   0.0000       1.007197        27.4072 
 319   0.0000       1.013247        27.5718 
 320   0.0000       1.024918        27.8894 
 321   0.0000       1.029989        28.0274 
 322   0.0000       1.041309        28.3354 
 323   0.0000       1.047294        28.4983 
 324   0.0000       1.052543        28.6412 
 325   0.0000       1.064061        28.9546 
 326   0.0000       1.093035        29.7430 
 327   0.0000       1.098080        29.8803 
 328   0.0000       1.117162        30.3995 
 329   0.0000       1.158202        31.5163 
 330   0.0000       1.162995        31.6467 
 331   0.0000       1.198644        32.6168 
 332   0.0000       1.232637        33.5418 
 333   0.0000       1.253423        34.1074 
 334   0.0000       1.285701        34.9857 
 335   0.0000       1.317122        35.8407 
 336   0.0000       1.350112        36.7384 
 337   0.0000       1.375494        37.4291 
 338   0.0000       1.385905        37.7124 
 339   0.0000       1.395050        37.9612 
 340   0.0000       1.409714        38.3603 
 341   0.0000       1.417727        38.5783 
 342   0.0000       1.437869        39.1264 
 343   0.0000       1.458067        39.6760 
 344   0.0000       1.463908        39.8350 
 345   0.0000       1.483548        40.3694 
 346   0.0000       1.485931        40.4342 
 347   0.0000       1.502042        40.8726 
 348   0.0000       1.512839        41.1664 
 349   0.0000       1.519737        41.3542 
 350   0.0000       1.521689        41.4073 
 351   0.0000       1.523302        41.4511 
 352   0.0000       1.534110        41.7453 
 353   0.0000       1.536227        41.8029 
 354   0.0000       1.544857        42.0377 
 355   0.0000       1.548565        42.1386 
 356   0.0000       1.551171        42.2095 
 357   0.0000       1.555247        42.3204 
 358   0.0000       1.559697        42.4415 
 359   0.0000       1.568910        42.6922 
 360   0.0000       1.577432        42.9241 
 361   0.0000       1.579887        42.9909 
 362   0.0000       1.584444        43.1149 
 363   0.0000       1.586206        43.1628 
 364   0.0000       1.592308        43.3289 
 365   0.0000       1.594187        43.3800 
 366   0.0000       1.600486        43.5514 
 367   0.0000       1.609596        43.7993 
 368   0.0000       1.611811        43.8596 
 369   0.0000       1.616375        43.9838 
 370   0.0000       1.620093        44.0850 
 371   0.0000       1.626452        44.2580 
 372   0.0000       1.630290        44.3624 
 373   0.0000       1.631334        44.3909 
 374   0.0000       1.632928        44.4342 
 375   0.0000       1.638127        44.5757 
 376   0.0000       1.639121        44.6027 
 377   0.0000       1.645535        44.7773 
 378   0.0000       1.649294        44.8796 
 379   0.0000       1.650938        44.9243 
 380   0.0000       1.651860        44.9494 
 381   0.0000       1.655789        45.0563 
 382   0.0000       1.658086        45.1188 
 383   0.0000       1.661465        45.2108 
 384   0.0000       1.663420        45.2640 
 385   0.0000       1.664832        45.3024 
 386   0.0000       1.667702        45.3805 
 387   0.0000       1.669649        45.4334 
 388   0.0000       1.674640        45.5693 
 389   0.0000       1.675748        45.5994 
 390   0.0000       1.677186        45.6385 
 391   0.0000       1.680315        45.7237 
 392   0.0000       1.682800        45.7913 
 393   0.0000       1.683777        45.8179 
 394   0.0000       1.685668        45.8693 
 395   0.0000       1.687206        45.9112 
 396   0.0000       1.688390        45.9434 
 397   0.0000       1.689481        45.9731 
 398   0.0000       1.691199        46.0199 
 399   0.0000       1.692144        46.0456 
 400   0.0000       1.693910        46.0936 
 401   0.0000       1.696147        46.1545 
 402   0.0000       1.698115        46.2081 
 403   0.0000       1.698360        46.2147 
 404   0.0000       1.699242        46.2387 
 405   0.0000       1.701223        46.2926 
 406   0.0000       1.703294        46.3490 
 407   0.0000       1.704039        46.3693 
 408   0.0000       1.704462        46.3808 
 409   0.0000       1.706794        46.4442 
 410   0.0000       1.707936        46.4753 
 411   0.0000       1.709114        46.5074 
 412   0.0000       1.711649        46.5763 
 413   0.0000       1.713211        46.6188 
 414   0.0000       1.714786        46.6617 
 415   0.0000       1.715931        46.6929 
 416   0.0000       1.717165        46.7264 
 417   0.0000       1.717720        46.7415 
 418   0.0000       1.722349        46.8675 
 419   0.0000       1.723073        46.8872 
 420   0.0000       1.725506        46.9534 
 421   0.0000       1.725899        46.9641 
 422   0.0000       1.727416        47.0054 
 423   0.0000       1.728465        47.0339 
 424   0.0000       1.732784        47.1514 
 425   0.0000       1.734423        47.1960 
 426   0.0000       1.736483        47.2521 
 427   0.0000       1.740578        47.3635 
 428   0.0000       1.741012        47.3753 
 429   0.0000       1.742847        47.4253 
 430   0.0000       1.745161        47.4883 
 431   0.0000       1.747937        47.5638 
 432   0.0000       1.748548        47.5804 
 433   0.0000       1.750082        47.6222 
 434   0.0000       1.753482        47.7147 
 435   0.0000       1.754930        47.7541 
 436   0.0000       1.755799        47.7777 
 437   0.0000       1.757430        47.8221 
 438   0.0000       1.758792        47.8592 
 439   0.0000       1.764234        48.0073 
 440   0.0000       1.764625        48.0179 
 441   0.0000       1.766608        48.0719 
 442   0.0000       1.768985        48.1365 
 443   0.0000       1.771577        48.2071 
 444   0.0000       1.773113        48.2489 
 445   0.0000       1.775431        48.3119 
 446   0.0000       1.777086        48.3570 
 447   0.0000       1.780368        48.4463 
 448   0.0000       1.782069        48.4926 
 449   0.0000       1.786086        48.6019 
 450   0.0000       1.787101        48.6295 
 451   0.0000       1.789326        48.6900 
 452   0.0000       1.791739        48.7557 
 453   0.0000       1.793872        48.8137 
 454   0.0000       1.795757        48.8650 
 455   0.0000       1.798015        48.9265 
 456   0.0000       1.803751        49.0826 
 457   0.0000       1.804941        49.1149 
 458   0.0000       1.809395        49.2361 
 459   0.0000       1.810592        49.2687 
 460   0.0000       1.814841        49.3843 
 461   0.0000       1.817890        49.4673 
 462   0.0000       1.824462        49.6461 
 463   0.0000       1.825902        49.6853 
 464   0.0000       1.830954        49.8228 
 465   0.0000       1.832440        49.8632 
 466   0.0000       1.834332        49.9147 
 467   0.0000       1.841359        50.1059 
 468   0.0000       1.847359        50.2692 
 469   0.0000       1.850200        50.3465 
 470   0.0000       1.851689        50.3870 
 471   0.0000       1.855306        50.4855 
 472   0.0000       1.859355        50.5956 
 473   0.0000       1.860318        50.6218 
 474   0.0000       1.873697        50.9859 
 475   0.0000       1.886067        51.3225 
 476   0.0000       1.892303        51.4922 
 477   0.0000       1.897464        51.6326 
 478   0.0000       1.900582        51.7175 
 479   0.0000       1.926361        52.4190 
 480   0.0000       1.928234        52.4699 
 481   0.0000       1.933171        52.6043 
 482   0.0000       1.958367        53.2899 
 483   0.0000       1.961297        53.3696 
 484   0.0000       1.965256        53.4773 
 485   0.0000       1.976305        53.7780 
 486   0.0000       1.988190        54.1014 
 487   0.0000       1.995936        54.3122 
 488   0.0000       2.004755        54.5522 
 489   0.0000       2.013908        54.8012 
 490   0.0000       2.019507        54.9536 
 491   0.0000       2.021514        55.0082 
 492   0.0000       2.045609        55.6639 
 493   0.0000       2.048165        55.7334 
 494   0.0000       2.059410        56.0394 
 495   0.0000       2.065768        56.2124 
 496   0.0000       2.083638        56.6987 
 497   0.0000       2.085645        56.7533 
 498   0.0000       2.099771        57.1377 
 499   0.0000       2.118239        57.6402 
 500   0.0000       2.123263        57.7769 
 501   0.0000       2.140019        58.2329 
 502   0.0000       2.174342        59.1669 
 503   0.0000       2.179435        59.3054 
 504   0.0000       2.187689        59.5300 
 505   0.0000       2.215850        60.2963 
 506   0.0000       2.264167        61.6111 
 507   0.0000       2.384081        64.8741 
 508   0.0000       2.394783        65.1654 
 509   0.0000       2.444381        66.5150 
 510   0.0000       2.498453        67.9864 
 511   0.0000       2.523350        68.6639 
 512   0.0000       2.539051        69.0911 
 513   0.0000       2.599963        70.7486 
 514   0.0000       2.621551        71.3360 
 515   0.0000       2.642766        71.9133 
 516   0.0000       2.664930        72.5164 
 517   0.0000       2.689670        73.1896 
 518   0.0000       2.720520        74.0291 
 519   0.0000       2.754683        74.9587 
 520   0.0000       2.757934        75.0472 
 521   0.0000       2.759137        75.0799 
 522   0.0000       2.793037        76.0024 
 523   0.0000       2.798564        76.1528 
 524   0.0000       2.834481        77.1302 
 525   0.0000       2.853474        77.6470 
 526   0.0000       2.967402        80.7471 
 527   0.0000       3.032982        82.5316 
 528   0.0000       3.041671        82.7681 
 529   0.0000       3.050932        83.0201 
 530   0.0000       3.066734        83.4501 
 531   0.0000       3.077654        83.7472 
 532   0.0000       3.099005        84.3282 
 533   0.0000       3.110459        84.6399 
 534   0.0000       3.120341        84.9088 
 535   0.0000      23.924650       651.0228 
 536   0.0000      24.077928       655.1937 
 537   0.0000      24.170002       657.6992 
 538   0.0000      24.284919       660.8263 
 539   0.0000      24.406879       664.1450 
 540   0.0000      24.548268       667.9923 
 541   0.0000      24.845726       676.0866 
 542   0.0000      25.049147       681.6219 
 543   0.0000      25.125345       683.6954 
 544   0.0000      25.338485       689.4952 
 545   0.0000      25.471348       693.1106 
 546   0.0000      25.588382       696.2953 
 547   0.0000      25.746353       700.5939 
 548   0.0000      25.849863       703.4105 
 549   0.0000      25.871088       703.9881 
 550   0.0000      25.967086       706.6003 
 551   0.0000      26.123797       710.8646 
 552   0.0000      26.248811       714.2665 
 553   0.0000      26.292144       715.4456 
 554   0.0000      26.319295       716.1844 
 555   0.0000      26.413280       718.7419 
 556   0.0000      26.472454       720.3521 
 557   0.0000      26.496825       721.0153 
 558   0.0000      26.545878       722.3501 
 559   0.0000      26.648059       725.1306 
 560   0.0000      26.726491       727.2648 
 561   0.0000      26.748496       727.8636 
 562   0.0000      26.873777       731.2726 
 563   0.0000      26.993649       734.5345 
 564   0.0000      27.130624       738.2618 
 565   0.0000      27.250640       741.5276 
 566   0.0000      27.330524       743.7014 
 567   0.0000      27.390226       745.3259 
 568   0.0000      27.658909       752.6372 
 569   0.0000      27.820329       757.0296 
 570   0.0000      28.040469       763.0199 
 571   0.0000      28.098128       764.5889 
 572   0.0000      28.228918       768.1479 
 573   0.0000      28.500556       775.5395 
 574   0.0000      28.753797       782.4306 
 575   0.0000      29.258031       796.1515 
 576   0.0000      29.917661       814.1009 
 577   0.0000      44.126724      1200.7492 
 578   0.0000      44.180414      1202.2102 
 579   0.0000      44.200797      1202.7648 
 580   0.0000      44.226130      1203.4542 
 581   0.0000      44.280293      1204.9280 
 582   0.0000      44.315724      1205.8921 
 583   0.0000      44.343352      1206.6440 
 584   0.0000      44.388770      1207.8798 
 585   0.0000      44.395090      1208.0518 
 586   0.0000      44.411248      1208.4915 
 587   0.0000      44.420921      1208.7547 
 588   0.0000      44.436281      1209.1727 
 589   0.0000      44.458884      1209.7877 
 590   0.0000      44.488488      1210.5933 
 591   0.0000     202.682163      5515.2620 
 592   0.0000     202.705217      5515.8894 
 593   0.0000     202.709388      5516.0029 
 594   0.0000     202.723536      5516.3879 
 595   0.0000     202.742637      5516.9076 
 596   0.0000     202.760482      5517.3932 
 597   0.0000     202.772445      5517.7187 
 598   0.0000     202.788491      5518.1554 
 599   0.0000     202.791501      5518.2373 
 600   0.0000     202.794517      5518.3194 
 601   0.0000     202.801192      5518.5010 
 602   0.0000     202.807379      5518.6694 
 603   0.0000     202.817596      5518.9474 
 604   0.0000     202.835507      5519.4348 

                 SPIN DOWN ORBITALS
  NO   OCC          E(Eh)            E(eV) 
   0   1.0000    -217.751553     -5925.3210 
   1   1.0000     -25.366925      -690.2691 
   2   1.0000     -21.517489      -585.5206 
   3   1.0000     -21.516309      -585.4885 
   4   1.0000     -21.495430      -584.9204 
   5   1.0000      -4.405123      -119.8695 
   6   1.0000      -4.400146      -119.7341 
   7   1.0000      -4.396758      -119.6419 
   8   1.0000      -4.396491      -119.6346 
   9   1.0000      -4.395053      -119.5955 
  10   1.0000      -4.394509      -119.5807 
  11   1.0000      -4.392499      -119.5260 
  12   1.0000      -4.392148      -119.5164 
  13   1.0000      -4.391927      -119.5104 
  14   1.0000      -4.391110      -119.4882 
  15   1.0000      -4.388430      -119.4153 
  16   1.0000      -4.388109      -119.4065 
  17   1.0000      -4.385674      -119.3403 
  18   1.0000      -4.381290      -119.2210 
  19   1.0000      -3.011577       -81.9492 
  20   1.0000      -2.528103       -68.7932 
  21   1.0000      -2.522065       -68.6289 
  22   1.0000      -2.521707       -68.6191 
  23   1.0000      -2.520086       -68.5750 
  24   1.0000      -2.519453       -68.5578 
  25   1.0000      -2.516944       -68.4895 
  26   1.0000      -2.516044       -68.4650 
  27   1.0000      -2.515291       -68.4446 
  28   1.0000      -2.515085       -68.4389 
  29   1.0000      -2.514421       -68.4209 
  30   1.0000      -2.514097       -68.4121 
  31   1.0000      -2.513848       -68.4053 
  32   1.0000      -2.513576       -68.3979 
  33   1.0000      -2.513306       -68.3905 
  34   1.0000      -2.512380       -68.3653 
  35   1.0000      -2.512125       -68.3584 
  36   1.0000      -2.511266       -68.3350 
  37   1.0000      -2.511089       -68.3302 
  38   1.0000      -2.510881       -68.3245 
  39   1.0000      -2.510540       -68.3153 
  40   1.0000      -2.510133       -68.3042 
  41   1.0000      -2.509111       -68.2764 
  42   1.0000      -2.508726       -68.2659 
  43   1.0000      -2.508325       -68.2550 
  44   1.0000      -2.508040       -68.2472 
  45   1.0000      -2.507580       -68.2347 
  46   1.0000      -2.506712       -68.2111 
  47   1.0000      -2.506588       -68.2077 
  48   1.0000      -2.505766       -68.1854 
  49   1.0000      -2.505428       -68.1762 
  50   1.0000      -2.504707       -68.1565 
  51   1.0000      -2.504596       -68.1535 
  52   1.0000      -2.503894       -68.1344 
  53   1.0000      -2.503170       -68.1147 
  54   1.0000      -2.503074       -68.1121 
  55   1.0000      -2.502560       -68.0981 
  56   1.0000      -2.502016       -68.0833 
  57   1.0000      -2.500936       -68.0539 
  58   1.0000      -2.499108       -68.0042 
  59   1.0000      -2.498614       -67.9907 
  60   1.0000      -2.497447       -67.9590 
  61   1.0000      -2.494697       -67.8842 
  62   1.0000      -1.881338       -51.1938 
  63   1.0000      -1.878764       -51.1238 
  64   1.0000      -1.832289       -49.8591 
  65   1.0000      -0.492488       -13.4013 
  66   1.0000      -0.476341       -12.9619 
  67   1.0000      -0.472917       -12.8687 
  68   1.0000      -0.465949       -12.6791 
  69   1.0000      -0.462494       -12.5851 
  70   1.0000      -0.460722       -12.5369 
  71   1.0000      -0.454851       -12.3771 
  72   1.0000      -0.454243       -12.3606 
  73   1.0000      -0.451406       -12.2834 
  74   1.0000      -0.448729       -12.2105 
  75   1.0000      -0.444413       -12.0931 
  76   1.0000      -0.443257       -12.0616 
  77   1.0000      -0.440681       -11.9915 
  78   1.0000      -0.438877       -11.9424 
  79   1.0000      -0.437957       -11.9174 
  80   1.0000      -0.436291       -11.8721 
  81   1.0000      -0.435219       -11.8429 
  82   1.0000      -0.431742       -11.7483 
  83   1.0000      -0.430494       -11.7143 
  84   1.0000      -0.429654       -11.6915 
  85   1.0000      -0.427414       -11.6305 
  86   1.0000      -0.424981       -11.5643 
  87   1.0000      -0.420491       -11.4421 
  88   1.0000      -0.417028       -11.3479 
  89   1.0000      -0.413639       -11.2557 
  90   1.0000      -0.412635       -11.2284 
  91   1.0000      -0.410608       -11.1732 
  92   1.0000      -0.409759       -11.1501 
  93   1.0000      -0.406351       -11.0574 
  94   1.0000      -0.404084       -10.9957 
  95   1.0000      -0.399441       -10.8693 
  96   1.0000      -0.396904       -10.8003 
  97   1.0000      -0.395680       -10.7670 
  98   1.0000      -0.395167       -10.7531 
  99   1.0000      -0.394069       -10.7232 
 100   1.0000      -0.392158       -10.6712 
 101   1.0000      -0.387745       -10.5511 
 102   1.0000      -0.385401       -10.4873 
 103   1.0000      -0.382692       -10.4136 
 104   1.0000      -0.381493       -10.3810 
 105   1.0000      -0.380023       -10.3410 
 106   1.0000      -0.377618       -10.2755 
 107   1.0000      -0.377089       -10.2611 
 108   1.0000      -0.374725       -10.1968 
 109   1.0000      -0.373271       -10.1572 
 110   1.0000      -0.371887       -10.1196 
 111   1.0000      -0.370275       -10.0757 
 112   1.0000      -0.368591       -10.0299 
 113   1.0000      -0.365763        -9.9529 
 114   1.0000      -0.365127        -9.9356 
 115   1.0000      -0.363754        -9.8983 
 116   1.0000      -0.361583        -9.8392 
 117   1.0000      -0.357578        -9.7302 
 118   1.0000      -0.355780        -9.6813 
 119   1.0000      -0.354918        -9.6578 
[...]
      f-3     :     0.000005
  4 Aus       :    -0.013756  s :    -0.013756
      pz      :    -0.019844  p :    -0.108269
      px      :    -0.067808
      py      :    -0.020617
      dz2     :    -0.005673  d :    -0.034749
      dxz     :    -0.000172
      dyz     :    -0.002451
      dx2y2   :    -0.023341
      dxy     :    -0.003112
      f0      :    -0.000015  f :    -0.000153
      f+1     :    -0.000015
      f-1     :    -0.000037
      f+2     :    -0.000002
      f-2     :    -0.000016
      f+3     :    -0.000021
      f-3     :    -0.000046
  5 Aus       :    -0.065053  s :    -0.065053
      pz      :    -0.008857  p :    -0.039850
      px      :    -0.026623
      py      :    -0.004371
      dz2     :     0.003497  d :     0.005026
      dxz     :     0.004153
      dyz     :    -0.003166
      dx2y2   :     0.001401
      dxy     :    -0.000860
      f0      :     0.000028  f :     0.000213
      f+1     :     0.000036
      f-1     :    -0.000003
      f+2     :     0.000088
      f-2     :     0.000002
      f+3     :     0.000019
      f-3     :     0.000041
  6 Aus       :    -0.021893  s :    -0.021893
      pz      :    -0.011720  p :    -0.040782
      px      :    -0.027508
      py      :    -0.001555
      dz2     :     0.002342  d :    -0.004507
      dxz     :     0.000588
      dyz     :    -0.005297
      dx2y2   :    -0.001712
      dxy     :    -0.000427
      f0      :    -0.000021  f :    -0.000032
      f+1     :    -0.000003
      f-1     :     0.000025
      f+2     :    -0.000014
      f-2     :    -0.000016
      f+3     :     0.000005
      f-3     :    -0.000009
  7 Aus       :    -0.070279  s :    -0.070279
      pz      :    -0.001580  p :    -0.014286
      px      :     0.006430
      py      :    -0.019136
      dz2     :     0.003179  d :    -0.010138
      dxz     :    -0.006401
      dyz     :    -0.002113
      dx2y2   :    -0.001779
      dxy     :    -0.003025
      f0      :     0.000039  f :     0.000201
      f+1     :     0.000004
      f-1     :     0.000121
      f+2     :     0.000025
      f-2     :     0.000016
      f+3     :    -0.000015
      f-3     :     0.000012
  8 Aus       :    -0.061063  s :    -0.061063
      pz      :     0.003277  p :    -0.032802
      px      :    -0.013189
      py      :    -0.022889
      dz2     :     0.001511  d :    -0.010142
      dxz     :    -0.005157
      dyz     :     0.000419
      dx2y2   :     0.000939
      dxy     :    -0.007854
      f0      :    -0.000014  f :     0.000060
      f+1     :     0.000005
      f-1     :     0.000014
      f+2     :     0.000020
      f-2     :     0.000053
      f+3     :     0.000005
      f-3     :    -0.000022
  9 Aus       :    -0.047616  s :    -0.047616
      pz      :    -0.041135  p :    -0.049323
      px      :     0.000221
      py      :    -0.008408
      dz2     :    -0.005460  d :    -0.003181
      dxz     :    -0.001031
      dyz     :     0.000140
      dx2y2   :    -0.002366
      dxy     :     0.005536
      f0      :     0.000015  f :     0.000338
      f+1     :    -0.000001
      f-1     :     0.000050
      f+2     :     0.000048
      f-2     :    -0.000001
      f+3     :     0.000089
      f-3     :     0.000137
 10 Aus       :    -0.037902  s :    -0.037902
      pz      :    -0.010570  p :    -0.023304
      px      :    -0.006403
      py      :    -0.006331
      dz2     :    -0.005747  d :    -0.006645
      dxz     :     0.000889
      dyz     :    -0.003862
      dx2y2   :     0.002984
      dxy     :    -0.000909
      f0      :     0.000049  f :     0.000314
      f+1     :     0.000021
      f-1     :    -0.000013
      f+2     :     0.000051
      f-2     :     0.000014
      f+3     :     0.000110
      f-3     :     0.000081
 11 Aus       :    -0.071802  s :    -0.071802
      pz      :     0.000465  p :    -0.016847
      px      :     0.000290
      py      :    -0.017602
      dz2     :     0.004830  d :    -0.004341
      dxz     :     0.005680
      dyz     :     0.001017
      dx2y2   :    -0.013291
      dxy     :    -0.002577
      f0      :     0.000132  f :     0.000342
      f+1     :     0.000129
      f-1     :     0.000051
      f+2     :     0.000011
      f-2     :     0.000025
      f+3     :    -0.000011
      f-3     :     0.000004
 12 Aus       :     0.006692  s :     0.006692
      pz      :    -0.002088  p :    -0.042904
      px      :    -0.025140
      py      :    -0.015675
      dz2     :    -0.000471  d :    -0.012898
      dxz     :    -0.002637
      dyz     :    -0.003476
      dx2y2   :    -0.005423
      dxy     :    -0.000889
      f0      :     0.000006  f :    -0.000027
      f+1     :     0.000005
      f-1     :     0.000004
      f+2     :    -0.000001
      f-2     :    -0.000004
      f+3     :    -0.000026
      f-3     :    -0.000010
 13 Aus       :    -0.163330  s :    -0.163330
      pz      :    -0.011422  p :    -0.068647
      px      :    -0.012573
      py      :    -0.044652
      dz2     :    -0.000411  d :    -0.000394
      dxz     :    -0.001847
      dyz     :     0.004458
      dx2y2   :     0.001312
      dxy     :    -0.003906
      f0      :     0.000027  f :     0.000141
      f+1     :    -0.000014
      f-1     :     0.000007
      f+2     :     0.000086
      f-2     :     0.000023
      f+3     :     0.000003
      f-3     :     0.000009
 14 Crs       :     0.016684  s :     0.016684
      pz      :     0.005661  p :     0.041046
      px      :     0.017977
      py      :     0.017408
      dz2     :     0.865340  d :     3.579887
      dxz     :     0.687260
      dyz     :     0.769818
      dx2y2   :     0.444414
      dxy     :     0.813056
      f0      :    -0.000008  f :     0.000085
      f+1     :     0.000005
      f-1     :     0.000006
      f+2     :     0.000014
      f-2     :     0.000014
      f+3     :     0.000022
      f-3     :     0.000032


                      *****************************
                      * MAYER POPULATION ANALYSIS *
                      *****************************

  NA   - Mulliken gross atomic population
  ZA   - Total nuclear charge
  QA   - Mulliken gross atomic charge
  VA   - Mayer's total valence
  BVA  - Mayer's bonded valence
  FA   - Mayer's free valence

  ATOM       NA         ZA         QA         VA         BVA        FA
  0 Au    18.6247    19.0000     0.3753     1.2495     1.1347     0.1147
  1 Au    18.7233    19.0000     0.2767     1.5773     1.5542     0.0231
  2 Au    18.8139    19.0000     0.1861     1.5306     1.5141     0.0164
  3 Au    18.9318    19.0000     0.0682     1.8276     1.8247     0.0029
  4 Au    18.5855    19.0000     0.4145     1.2690     1.2548     0.0142
  5 Au    18.6811    19.0000     0.3189     1.5521     1.5296     0.0225
  6 Au    18.6819    19.0000     0.3181     1.4485     1.4433     0.0052
  7 Au    19.1697    19.0000    -0.1697     1.9501     1.9038     0.0463
  8 Au    18.6982    19.0000     0.3018     1.5053     1.4811     0.0242
  9 Au    18.6743    19.0000     0.3257     1.4719     1.4585     0.0135
 10 Au    18.8647    19.0000     0.1353     1.7738     1.7635     0.0104
 11 Au    18.8242    19.0000     0.1758     1.6325     1.6068     0.0257
 12 Au    18.6440    19.0000     0.3560     1.2633     1.2606     0.0027
 13 Au    18.6720    19.0000     0.3280     1.4159     1.2789     0.1370
 14 Cr    27.4107    24.0000    -3.4107     9.5429     5.8016     3.7413

  Mayer bond orders larger than 0.100000
B(  0-Au,  3-Au) :   0.3219 B(  0-Au,  6-Au) :   0.3110 B(  0-Au,  7-Au) :   0.3205 
B(  1-Au,  4-Au) :   0.2073 B(  1-Au,  5-Au) :   0.1635 B(  1-Au, 11-Au) :   0.3153 
B(  1-Au, 14-Cr) :   0.6394 B(  2-Au,  5-Au) :   0.2529 B(  2-Au,  6-Au) :   0.2184 
B(  2-Au, 13-Au) :   0.2952 B(  2-Au, 14-Cr) :   0.6050 B(  3-Au,  6-Au) :   0.1261 
B(  3-Au,  7-Au) :   0.1996 B(  3-Au, 10-Au) :   0.4886 B(  3-Au, 14-Cr) :   0.5830 
B(  4-Au,  5-Au) :   0.2188 B(  4-Au,  7-Au) :   0.2716 B(  4-Au,  9-Au) :   0.1184 
B(  4-Au, 14-Cr) :   0.3180 B(  5-Au,  6-Au) :   0.2442 B(  5-Au, 14-Cr) :   0.3501 
B(  6-Au,  7-Au) :   0.1928 B(  6-Au, 14-Cr) :   0.2695 B(  7-Au,  9-Au) :   0.2252 
B(  7-Au, 14-Cr) :   0.3791 B(  8-Au,  9-Au) :   0.3535 B(  8-Au, 10-Au) :   0.1244 
B(  8-Au, 11-Au) :   0.1316 B(  8-Au, 12-Au) :   0.2017 B(  8-Au, 14-Cr) :   0.4248 
B(  9-Au, 14-Cr) :   0.5452 B( 10-Au, 12-Au) :   0.2365 B( 10-Au, 13-Au) :   0.1051 
B( 10-Au, 14-Cr) :   0.5190 B( 11-Au, 12-Au) :   0.1897 B( 11-Au, 13-Au) :   0.1499 
B( 11-Au, 14-Cr) :   0.5111 B( 12-Au, 13-Au) :   0.2076 B( 12-Au, 14-Cr) :   0.2834 
B( 13-Au, 14-Cr) :   0.3351 

-------
TIMINGS
-------

Total SCF time: 0 days 1 hours 5 min 28 sec 

Total time                  ....    3928.772 sec
Sum of individual times     ....    3885.004 sec  ( 98.9%)

Fock matrix formation       ....    3048.428 sec  ( 77.6%)
  Split-RI-J                ....     294.873 sec  (  9.7% of F)
  Chain of spheres X        ....    2225.366 sec  ( 73.0% of F)
  XC integration            ....     311.240 sec  ( 10.2% of F)
    Basis function eval.    ....      38.928 sec  ( 12.5% of XC)
    Density eval.           ....     123.829 sec  ( 39.8% of XC)
    XC-Functional eval.     ....       6.178 sec  (  2.0% of XC)
    XC-Potential eval.      ....      83.359 sec  ( 26.8% of XC)
Diagonalization             ....     342.476 sec  (  8.7%)
Density matrix formation    ....      14.724 sec  (  0.4%)
Population analysis         ....       2.867 sec  (  0.1%)
Initial guess               ....       0.869 sec  (  0.0%)
Orbital Transformation      ....       0.000 sec  (  0.0%)
Orbital Orthonormalization  ....       0.536 sec  (  0.0%)
DIIS solution               ....     462.014 sec  ( 11.8%)
Grid generation             ....      13.627 sec  (  0.3%)

Maximum memory used throughout the entire SCF-calculation: 146.3 MB


           ************************************************************
           *        Program running with 6 parallel MPI-processes     *
           *              working on a common directory               *
           ************************************************************

------------------------------------------------------------------------------
                                ORCA  MP2 
------------------------------------------------------------------------------

Freezing NCore=10 chemical core electrons

   <<< Use J-auxbasis for calculation of Separable RI-J derivative contributions (Dim=1335) >>> 


-------------
RI-MP2 ENERGY
-------------
Dimension of the basis                    ...  605
Memory devoted to MP2                     ...  256 MB   
Data format for buffers                   ... DOUBLE
Compression type for matrix containers    ... UNCOMPRESSED
Overall scaling of the MP2 energy         ...   2.700e-01
Calculating two index integrals           ... done (    0.133 sec)
Cholesky decomposition of V**-1           ... done (   31.612 sec)

-----------------
RI-TRANSFORMATION (AUX index driven)
-----------------

Dimension of the orbital-basis         ... 605
Dimension of the aux-basis             ... 2296
Transformation of internal/external MOs...    5- 145 to  146- 604
Number Format for Storage              ... Double (8 Byte)
Integral mode                          ... Direct

First Phase: integral generation and transformation of MO indices
  Aux angular momentum 0               ... done (    0.405 sec)
  Aux angular momentum 1               ... done (    0.935 sec)
  Aux angular momentum 2               ... done (    1.508 sec)
  Aux angular momentum 3               ... done (    1.460 sec)
  Aux angular momentum 4               ... done (    1.254 sec)
  Aux angular momentum 5               ... done (    0.996 sec)
Closing buffer VIA ( 1.11 GB; CompressionRatio= 1.00)
  Phase 1 completed in     7.182 sec
Second Phase: sorting and transformation of aux index

IA-Transformation
Memory available                       ... 164 MB 
Max. # MO pairs treated in a batch     ... 19    
# of internal orbitals                 ... 141
# batches for internal orbitals        ... 2
Closing buffer IAV ( 1.11 GB; CompressionRatio= 1.00)
(ia|v) transformation done in     7.316 sec

  Phase 2 completed in     7.621 sec
RI-Integral transformation completed in    14.903 sec

-----------------
RI-TRANSFORMATION (AUX index driven)
-----------------

Dimension of the orbital-basis         ... 605
Dimension of the aux-basis             ... 2296
Transformation of internal/external MOs...    5- 143 to  144- 604
Number Format for Storage              ... Double (8 Byte)
Integral mode                          ... Direct

First Phase: integral generation and transformation of MO indices
  Aux angular momentum 0               ... done (    0.517 sec)
  Aux angular momentum 1               ... done (    1.112 sec)
  Aux angular momentum 2               ... done (    1.427 sec)
  Aux angular momentum 3               ... done (    1.547 sec)
  Aux angular momentum 4               ... done (    1.088 sec)
  Aux angular momentum 5               ... done (    1.021 sec)
Closing buffer VIA ( 1.10 GB; CompressionRatio= 1.00)
  Phase 1 completed in     7.264 sec
Second Phase: sorting and transformation of aux index

IA-Transformation
Memory available                       ... 164 MB 
Max. # MO pairs treated in a batch     ... 19    
# of internal orbitals                 ... 139
# batches for internal orbitals        ... 2
Closing buffer IAV ( 1.10 GB; CompressionRatio= 1.00)
(ia|v) transformation done in     7.248 sec

  Phase 2 completed in     7.532 sec
RI-Integral transformation completed in    14.954 sec
Opening buffers                              ... done

Starting loop over batches of integrals:

Operator 0  - window                       ... (  5-145)x(146-604)
Operator 0  - Memory available             ...   256 MB
Operator 0  - Memory needed per MO         ...   8.0 MB
Operator 0  - Number of orbitals per batch ... 22
Operator 0  - Number of batches            ... 2

OPERATOR  0   PASS   0:  MOs     5 ...   26 +   27 ...   48 +   49 ...   70 +   71 ...   92
                            +   93 ...  114 +  115 ...  136
  Reading integrals       ... ok
  Internal MO   7
  Internal MO  10
  Internal MO  13
  Internal MO  16
  Internal MO  19
  Internal MO  22
  Internal MO  25
OPERATOR  0   PASS   1:  MOs   137 ...  138 +  139 ...  140 +  141 ...  142 +  143 ...  143
                            +  144 ...  144 +  145 ...  145
  Reading integrals       ... ok
  Internal MO 145

Operator 1  - window                       ... (  5-143)x(144-604)
Operator 1  - Memory available             ...   256 MB
Operator 1  - Memory needed per MO         ...   8.1 MB
Operator 1  - Number of orbitals per batch ... 22
Operator 1  - Number of batches            ... 2

OPERATOR  1   PASS   0:  MOs     5 ...   26 +   27 ...   48 +   49 ...   70 +   71 ...   92
                            +   93 ...  114 +  115 ...  136
  Reading integrals       ... ok
  Internal MO   7
  Internal MO  10
  Internal MO  13
  Internal MO  16
  Internal MO  19
  Internal MO  22
  Internal MO  25
OPERATOR  1   PASS   1:  MOs   137 ...  138 +  139 ...  139 +  140 ...  140 +  141 ...  141
                            +  142 ...  142 +  143 ...  143
  Reading integrals       ... ok
Time spent in pair loops =   751.064 sec
Deleting buffer (Ka|jb)[aa] ...done
Deleting buffer (Ka|jb)[ba] ...done
Deleting buffer (Ka|jb)[ab] ...done
Deleting buffer (Ka|jb)[bb] ...done

Correlation energy components}
 E2 and T2 for alpha/alpha pairs :     -0.421893976 Eh      0.000000000
 E2 and T2 for beta/beta   pairs :     -0.411324325 Eh      0.000000000
 E2 and T2 for alpha/beta  pairs :     -1.417052592 Eh      0.000000000


-----------------------------------------------
 RI-MP2 CORRELATION ENERGY:     -2.250270893 Eh
-----------------------------------------------


-------
TIMINGS
-------

Total time                :  825.260 sec
Integral trafo            :   29.869 sec (  3.6%)
I/O of integrals          :    0.288 sec (  0.0%)
K(i,j) Operators          :  411.843 sec ( 49.9%)
T(i,j) pair energies      :   11.958 sec (  1.4%)
V-calculation             :    0.133 sec (  0.0%)
V**(-1/2)                 :   31.612 sec (  3.8%)
Gamma(ia|P)               :    0.000 sec (  0.0%)
Gamma-Trafo               :    0.000 sec (  0.0%)
D(virtual)                :    0.000 sec (  0.0%)
D(internal)               :    0.000 sec (  0.0%)
W(virtual)                :    0.000 sec (  0.0%)
W(internal)               :    0.000 sec (  0.0%)
L(virtual)                :    0.000 sec (  0.0%)
L(internal)               :    0.000 sec (  0.0%)
G(D)                      :    0.000 sec (  0.0%)
G(Z)                      :    0.000 sec (  0.0%)
Z-Vector Solution         :    0.000 sec (  0.0%)
3-Index Derivative        :    0.000 sec (  0.0%)
2-Index Derivative        :    0.000 sec (  0.0%)
Separable Gradient (RIJ)  :    0.000 sec (  0.0%)
Separable Gradient (COSX) :    0.000 sec (  0.0%)


---------------------------------------
MP2 TOTAL ENERGY:    -2942.483492779 Eh
---------------------------------------

Maximum memory used throughout the entire MP2-calculation: 299.9 MB

-------------------------   --------------------
FINAL SINGLE POINT ENERGY     -2942.483492779268
-------------------------   --------------------


                            ***************************************
                            *     ORCA property calculations      *
                            ***************************************


  WARNING: The energy has been calculated at the MP2 level but the densities
           used in the property calculations are still SCF densities
           MP2 response densities have not been calculated 
           use %mp2 Density relaxed end
           or  %mp2 Density unrelaxed end

                                    ---------------------
                                    Active property flags
                                    ---------------------
   (+) Dipole Moment


------------------------------------------------------------------------------
                       ORCA ELECTRIC PROPERTIES CALCULATION
------------------------------------------------------------------------------

Dipole Moment Calculation                       ... on
Quadrupole Moment Calculation                   ... off
Polarizability Calculation                      ... off
GBWName                                         ... b2plyp_job2.gbw
Electron density                                ... b2plyp_job2.scfp
The origin for moment calculation is the CENTER OF MASS  = (13.190106, 13.823638 13.172113)

-------------
DIPOLE MOMENT
-------------
                                X             Y             Z
Electronic contribution:     -1.93477       2.88934      11.63910
Nuclear contribution   :      2.09065      -3.03450     -11.65393
                        -----------------------------------------
Total Dipole Moment    :      0.15588      -0.14515      -0.01483
                        -----------------------------------------
Magnitude (a.u.)       :      0.21351
Magnitude (Debye)      :      0.54271



--------------------
Rotational spectrum 
--------------------
 
Rotational constants in cm-1:     0.001245     0.000853     0.000762 
Rotational constants in MHz :    37.315197    25.579018    22.851191 

 Dipole components along the rotational axes: 
x,y,z [a.u.] :     0.000547     0.046984    -0.208280 
x,y,z [Debye]:     0.001390     0.119425    -0.529405 

 

Timings for individual modules:

Sum of individual times         ...     4787.479 sec (=  79.791 min)
GTO integral calculation        ...       30.665 sec (=   0.511 min)   0.6 %
SCF iterations                  ...     3929.812 sec (=  65.497 min)  82.1 %
MP2 module                      ...      827.001 sec (=  13.783 min)  17.3 %



                             ****ORCA TERMINATED NORMALLY****
TOTAL RUN TIME: 0 days 2 hours 16 minutes 55 seconds 758 msec
