
                                 *****************
                                 * O   R   C   A *
                                 *****************

                                            #,                                       
                                            ###                                      
                                            ####                                     
                                            #####                                    
                                            ######                                   
                                           ########,                                 
                                     ,,################,,,,,                         
                               ,,#################################,,                 
                          ,,##########################################,,             
                       ,#########################################, ''#####,          
                    ,#############################################,,   '####,        
                  ,##################################################,,,,####,       
                ,###########''''           ''''###############################       
              ,#####''   ,,,,##########,,,,          '''####'''          '####       
            ,##' ,,,,###########################,,,                        '##       
           ' ,,###''''                  '''############,,,                           
         ,,##''                                '''############,,,,        ,,,,,,###''
      ,#''                                            '''#######################'''  
     '                                                          ''''####''''         
             ,#######,   #######,   ,#######,      ##                                
            ,#'     '#,  ##    ##  ,#'     '#,    #''#        ######   ,####,        
            ##       ##  ##   ,#'  ##            #'  '#       #        #'  '#        
            ##       ##  #######   ##           ,######,      #####,   #    #        
            '#,     ,#'  ##    ##  '#,     ,#' ,#      #,         ##   #,  ,#        
             '#######'   ##     ##  '#######'  #'      '#     #####' # '####'        



                  #######################################################
                  #                        -***-                        #
                  #          Department of theory and spectroscopy      #
                  #    Directorship and core code : Frank Neese         #
                  #        Max Planck Institute fuer Kohlenforschung    #
                  #                Kaiser Wilhelm Platz 1               #
                  #                 D-45470 Muelheim/Ruhr               #
                  #                      Germany                        #
                  #                                                     #
                  #                  All rights reserved                #
                  #                        -***-                        #
                  #######################################################


                         Program Version 5.0.3 -  RELEASE  -


 With contributions from (in alphabetic order):
   Daniel Aravena         : Magnetic Suceptibility
   Michael Atanasov       : Ab Initio Ligand Field Theory (pilot matlab implementation)
   Alexander A. Auer      : GIAO ZORA, VPT2 properties, NMR spectrum
   Ute Becker             : Parallelization
   Giovanni Bistoni       : ED, misc. LED, open-shell LED, HFLD
   Martin Brehm           : Molecular dynamics
   Dmytro Bykov           : SCF Hessian
   Vijay G. Chilkuri      : MRCI spin determinant printing, contributions to CSF-ICE
   Dipayan Datta          : RHF DLPNO-CCSD density
   Achintya Kumar Dutta   : EOM-CC, STEOM-CC
   Dmitry Ganyushin       : Spin-Orbit,Spin-Spin,Magnetic field MRCI
   Miquel Garcia          : C-PCM and meta-GGA Hessian, CC/C-PCM, Gaussian charge scheme
   Yang Guo               : DLPNO-NEVPT2, F12-NEVPT2, CIM, IAO-localization
   Andreas Hansen         : Spin unrestricted coupled pair/coupled cluster methods
   Benjamin Helmich-Paris : MC-RPA, TRAH-SCF, COSX integrals
   Lee Huntington         : MR-EOM, pCC
   Robert Izsak           : Overlap fitted RIJCOSX, COSX-SCS-MP3, EOM
   Marcus Kettner         : VPT2
   Christian Kollmar      : KDIIS, OOCD, Brueckner-CCSD(T), CCSD density, CASPT2, CASPT2-K
   Simone Kossmann        : Meta GGA functionals, TD-DFT gradient, OOMP2, MP2 Hessian
   Martin Krupicka        : Initial AUTO-CI
   Lucas Lang             : DCDCAS
   Marvin Lechner         : AUTO-CI (C++ implementation), FIC-MRCC
   Dagmar Lenk            : GEPOL surface, SMD
   Dimitrios Liakos       : Extrapolation schemes; Compound Job, initial MDCI parallelization
   Dimitrios Manganas     : Further ROCIS development; embedding schemes
   Dimitrios Pantazis     : SARC Basis sets
   Anastasios Papadopoulos: AUTO-CI, single reference methods and gradients
   Taras Petrenko         : DFT Hessian,TD-DFT gradient, ASA, ECA, R-Raman, ABS, FL, XAS/XES, NRVS
   Peter Pinski           : DLPNO-MP2, DLPNO-MP2 Gradient
   Christoph Reimann      : Effective Core Potentials
   Marius Retegan         : Local ZFS, SOC
   Christoph Riplinger    : Optimizer, TS searches, QM/MM, DLPNO-CCSD(T), (RO)-DLPNO pert. Triples
   Tobias Risthaus        : Range-separated hybrids, TD-DFT gradient, RPA, STAB
   Michael Roemelt        : Original ROCIS implementation
   Masaaki Saitow         : Open-shell DLPNO-CCSD energy and density
   Barbara Sandhoefer     : DKH picture change effects
   Avijit Sen             : IP-ROCIS
   Kantharuban Sivalingam : CASSCF convergence, NEVPT2, FIC-MRCI
   Bernardo de Souza      : ESD, SOC TD-DFT
   Georgi Stoychev        : AutoAux, RI-MP2 NMR, DLPNO-MP2 response
   Willem Van den Heuvel  : Paramagnetic NMR
   Boris Wezisla          : Elementary symmetry handling
   Frank Wennmohs         : Technical directorship


 We gratefully acknowledge several colleagues who have allowed us to
 interface, adapt or use parts of their codes:
   Stefan Grimme, W. Hujo, H. Kruse, P. Pracht,  : VdW corrections, initial TS optimization,
                  C. Bannwarth, S. Ehlert          DFT functionals, gCP, sTDA/sTD-DF
   Ed Valeev, F. Pavosevic, A. Kumar             : LibInt (2-el integral package), F12 methods
   Garnet Chan, S. Sharma, J. Yang, R. Olivares  : DMRG
   Ulf Ekstrom                                   : XCFun DFT Library
   Mihaly Kallay                                 : mrcc  (arbitrary order and MRCC methods)
   Jiri Pittner, Ondrej Demel                    : Mk-CCSD
   Frank Weinhold                                : gennbo (NPA and NBO analysis)
   Christopher J. Cramer and Donald G. Truhlar   : smd solvation model
   Lars Goerigk                                  : TD-DFT with DH, B97 family of functionals
   V. Asgeirsson, H. Jonsson                     : NEB implementation
   FAccTs GmbH                                   : IRC, NEB, NEB-TS, DLPNO-Multilevel, CI-OPT
                                                   MM, QMMM, 2- and 3-layer-ONIOM, Crystal-QMMM,
                                                   LR-CPCM, SF, NACMEs, symmetry and pop. for TD-DFT,
                                                   nearIR, NL-DFT gradient (VV10), updates on ESD,
                                                   ML-optimized integration grids
   S Lehtola, MJT Oliveira, MAL Marques          : LibXC Library
   Liviu Ungur et al                             : ANISO software


 Your calculation uses the libint2 library for the computation of 2-el integrals
 For citations please refer to: http://libint.valeyev.net

 Your ORCA version has been built with support for libXC version: 5.1.0
 For citations please refer to: https://tddft.org/programs/libxc/

 This ORCA versions uses:
   CBLAS   interface :  Fast vector & matrix operations
   LAPACKE interface :  Fast linear algebra routines
   SCALAPACK package :  Parallel linear algebra routines
   Shared memory     :  Shared parallel matrices
   BLAS/LAPACK       :  OpenBLAS 0.3.15  USE64BITINT DYNAMIC_ARCH NO_AFFINITY Haswell SINGLE_THREADED
        Core in use  :  Haswell
   Copyright (c) 2011-2014, The OpenBLAS Project




***************************************
The coordinates will be read from file: pbe.xyz
***************************************


================================================================================

cite the ECPs for Au [Def2-ECP] as follows:
Ce-Yb(ecp-28): M. Dolg, H. Stoll, H.Preuss, J. Chem. Phys., 1989, 90, 1730-1734.
Y-Cd(ecp-28), Hf-Hg(ecp-46): D. Andrae,U. Haeussermann, M. Dolg, H. Stoll, H. Preuss, Theor. Chim. Acta, 1990, 77, 123-141.
In-Sb(ecp-28), Tl-Bi(ecp-46): B. Metz, H. Stoll, M. Dolg, J. Chem. Phys., 2000, 113, 2563-2569.
Te-Xe(ecp-28), Po-Rn(ecp-46): K. A. Peterson, D. Figgen, E. Goll, H. Stoll, M. Dolg, J. Chem. Phys., 2003, 119, 11113-11123.
Rb(ecp-28), Cs(ecp-46): T. Leininger, A. Nicklass, W. Kuechle, H. Stoll, M. Dolg, A. Bergner, Chem. Phys. Lett., 1996, 255, 274-280.
Sr(ecp-28), Ba(ecp-46): M. Kaupp, P. V. Schleyer, H. Stoll and H. Preuss, J. Chem. Phys., 1991, 94, 1360-1366.
La(ecp-46): M. Dolg, H. Stoll, A. Savin, H. Preuss, Theor. Chim. Acta, 1989, 75, 173-194.
Lu(ecp-28): X. Cao, M. Dolg, J. Chem. Phys., 2001, 115, 7348-7355.

ECP parameters for Au [Def2-ECP] have been obtained from:
TURBOMOLE (7.0.2)

----- Orbital basis set information -----
Your calculation utilizes the basis: def2-TZVP
   F. Weigend and R. Ahlrichs, Phys. Chem. Chem. Phys. 7, 3297 (2005).

----- AuxJ basis set information -----
Your calculation utilizes the auxiliary basis: def2/J
   F. Weigend, Phys. Chem. Chem. Phys. 8, 1057 (2006).

================================================================================
                                        WARNINGS
                       Please study these warnings very carefully!
================================================================================


WARNING: your system is open-shell and RHF/RKS was chosen
  ===> : WILL SWITCH to UHF/UKS


INFO   : the flag for use of the SHARK integral package has been found!



***************************************
The coordinates will be read from file: pbe.xyz
***************************************


================================================================================

cite the ECPs for Au [Def2-ECP] as follows:
Ce-Yb(ecp-28): M. Dolg, H. Stoll, H.Preuss, J. Chem. Phys., 1989, 90, 1730-1734.
Y-Cd(ecp-28), Hf-Hg(ecp-46): D. Andrae,U. Haeussermann, M. Dolg, H. Stoll, H. Preuss, Theor. Chim. Acta, 1990, 77, 123-141.
In-Sb(ecp-28), Tl-Bi(ecp-46): B. Metz, H. Stoll, M. Dolg, J. Chem. Phys., 2000, 113, 2563-2569.
Te-Xe(ecp-28), Po-Rn(ecp-46): K. A. Peterson, D. Figgen, E. Goll, H. Stoll, M. Dolg, J. Chem. Phys., 2003, 119, 11113-11123.
Rb(ecp-28), Cs(ecp-46): T. Leininger, A. Nicklass, W. Kuechle, H. Stoll, M. Dolg, A. Bergner, Chem. Phys. Lett., 1996, 255, 274-280.
Sr(ecp-28), Ba(ecp-46): M. Kaupp, P. V. Schleyer, H. Stoll and H. Preuss, J. Chem. Phys., 1991, 94, 1360-1366.
La(ecp-46): M. Dolg, H. Stoll, A. Savin, H. Preuss, Theor. Chim. Acta, 1989, 75, 173-194.
Lu(ecp-28): X. Cao, M. Dolg, J. Chem. Phys., 2001, 115, 7348-7355.

ECP parameters for Au [Def2-ECP] have been obtained from:
TURBOMOLE (7.0.2)

----- Orbital basis set information -----
Your calculation utilizes the basis: def2-TZVP
   F. Weigend and R. Ahlrichs, Phys. Chem. Chem. Phys. 7, 3297 (2005).

----- AuxJ basis set information -----
Your calculation utilizes the auxiliary basis: def2/J
   F. Weigend, Phys. Chem. Chem. Phys. 8, 1057 (2006).

================================================================================
                                        WARNINGS
                       Please study these warnings very carefully!
================================================================================


INFO   : the flag for use of the SHARK integral package has been found!

================================================================================
                                       INPUT FILE
================================================================================
NAME = pbeSP.inp
|  1> !PBE def2-TZVP VERYSLOWCONV
|  2> 
|  3> %scf
|  4>   AutoTRAHIter 200
|  5>   maxiter 400
|  6> end
|  7> 
|  8> 
|  9> %pal nprocs 6 end 
| 10> 
| 11> *xyzfile 0 5 pbe.xyz
| 12> 
| 13> $new_job
| 14> 
| 15> !PBE def2-TZVP VERYSLOWCONV
| 16> 
| 17> %scf
| 18>   AutoTRAHIter 200
| 19>   maxiter 400
| 20> end
| 21>  
| 22> 
| 23> %pal nprocs 6 end 
| 24> 
| 25> *xyzfile 0 3 pbe.xyz
| 26> 
| 27> 
| 28> 
| 29> 
| 30> 
| 31>                          ****END OF INPUT****
================================================================================


                 $$$$$$$$$$$$$$$$$$$$$$$$$$$$$$$$$$$$$$$$$$$$$$ 
                 $ THERE ARE  2 JOBS TO BE PROCESSED THIS RUN $
                 $$$$$$$$$$$$$$$$$$$$$$$$$$$$$$$$$$$$$$$$$$$$$$ 




                 $$$$$$$$$$$$$$$$  JOB NUMBER  1 $$$$$$$$$$$$$$


                       ****************************
                       * Single Point Calculation *
                       ****************************

---------------------------------
CARTESIAN COORDINATES (ANGSTROEM)
---------------------------------
  Au     6.925415    8.934746    5.364537
  Au     5.478501    5.924576    9.673877
  Au    10.285475    8.158185    8.622450
  Au     8.094350    6.831043    9.538817
  Au     7.159739    4.876774    7.693805
  Au    11.920646    9.858590    7.228404
  Au     9.423143    9.565001    6.168159
  Au     8.837301    6.889217    6.643338
  Au     6.647107    6.005127    5.175555
  Au     4.433018    7.645100    5.327008
  Au     7.246177   10.437674    7.824940
  Au     4.709251    9.690320    7.209291
  Au     3.631181    7.198855    8.034229
  Au     9.810703   11.090343    8.570577
  Au     8.320683    9.507586   10.236034
  Au     5.678852    8.765541    9.719818
  Cr     6.243347    7.405690    7.476231

----------------------------
CARTESIAN COORDINATES (A.U.)
----------------------------
  NO LB      ZA    FRAG     MASS         X           Y           Z
   0 Au   19.0000*   0   196.966   13.087138   16.884223   10.137506
   1 Au   19.0000*   0   196.966   10.352867   11.195827   18.280978
   2 Au   19.0000*   0   196.966   19.436730   15.416735   16.294069
   3 Au   19.0000*   0   196.966   15.296105   12.908800   18.025752
   4 Au   19.0000*   0   196.966   13.529946    9.215768   14.539185
   5 Au   19.0000*   0   196.966   22.526756   18.630035   13.659704
   6 Au   19.0000*   0   196.966   17.807160   18.075231   11.656131
   7 Au   19.0000*   0   196.966   16.700078   13.018733   12.554090
   8 Au   19.0000*   0   196.966   12.561212   11.348045    9.780382
   9 Au   19.0000*   0   196.966    8.377190   14.447144   10.066587
  10 Au   19.0000*   0   196.966   13.693290   19.724345   14.786993
  11 Au   19.0000*   0   196.966    8.899194   18.312050   13.623586
  12 Au   19.0000*   0   196.966    6.861938   13.603864   15.182492
  13 Au   19.0000*   0   196.966   18.539542   20.957711   16.196043
  14 Au   19.0000*   0   196.966   15.723812   17.966734   19.343301
  15 Au   19.0000*   0   196.966   10.731475   16.564473   18.367795
  16 Cr   24.0000    0    52.000   11.798216   13.994726   14.128029
* core charge reduced due to ECP

--------------------------------
INTERNAL COORDINATES (ANGSTROEM)
--------------------------------
 Au     0   0   0     0.000000000000     0.00000000     0.00000000
 Au     1   0   0     5.452072040077     0.00000000     0.00000000
 Au     1   2   0     4.744158660133    63.56386759     0.00000000
 Au     3   1   2     2.720673055663    74.97425825     0.95932464
 Au     2   1   3     2.800916299077    59.23475277   287.28557259
 Au     3   1   2     2.740169045942    88.37839533   185.79618231
 Au     1   2   3     2.698457513838    98.00217070   355.37393290
 Au     3   1   2     2.761226594963    37.96025906    71.21002351
 Au     8   3   1     2.780818103179   159.63597563   307.09153075
 Au     9   8   3     2.759463331382   114.45835568    27.95131569
 Au     7   1   2     2.871526511474    62.68248738   298.92624589
 Au    11   7   1     2.715428939188   119.59270617     4.74120003
 Au     2   1   3     2.779356525171    57.10980471   160.58716998
 Au    11   7   1     2.749317477054    61.40977915   181.08603667
 Au    14  11   7     2.738435109449    61.32719059   242.29704104
 Au    15  14  11     2.792199899214   123.77785172   358.49613338
 Cr    13   2   1     2.679095164077    60.67353453     1.04669367

---------------------------
INTERNAL COORDINATES (A.U.)
---------------------------
 Au     0   0   0     0.000000000000     0.00000000     0.00000000
 Au     1   0   0    10.302923018155     0.00000000     0.00000000
 Au     1   2   0     8.965160603522    63.56386759     0.00000000
 Au     3   1   2     5.141326975142    74.97425825     0.95932464
 Au     2   1   3     5.292964729292    59.23475277   287.28557259
 Au     3   1   2     5.178169057479    88.37839533   185.79618231
 Au     1   2   3     5.099345685176    98.00217070   355.37393290
 Au     3   1   2     5.217962058181    37.96025906    71.21002351
 Au     8   3   1     5.254984643259   159.63597563   307.09153075
 Au     9   8   3     5.214629972911   114.45835568    27.95131569
 Au     7   1   2     5.426398692979    62.68248738   298.92624589
 Au    11   7   1     5.131417031189   119.59270617     4.74120003
 Au     2   1   3     5.252222661099    57.10980471   160.58716998
 Au    11   7   1     5.195457086835    61.40977915   181.08603667
 Au    14  11   7     5.174892392373    61.32719059   242.29704104
 Au    15  14  11     5.276493120677   123.77785172   358.49613338
 Cr    13   2   1     5.062756146818    60.67353453     1.04669367

---------------------
BASIS SET INFORMATION
---------------------
There are 2 groups of distinct atoms

 Group   1 Type Au  : 8s7p6d1f contracted to 6s4p3d1f pattern {311111/4111/411/1}
 Group   2 Type Cr  : 17s11p7d1f contracted to 6s4p4d1f pattern {842111/6311/4111/1}

Atom   0Au   basis set group =>   1
Atom   1Au   basis set group =>   1
Atom   2Au   basis set group =>   1
Atom   3Au   basis set group =>   1
Atom   4Au   basis set group =>   1
Atom   5Au   basis set group =>   1
Atom   6Au   basis set group =>   1
Atom   7Au   basis set group =>   1
Atom   8Au   basis set group =>   1
Atom   9Au   basis set group =>   1
Atom  10Au   basis set group =>   1
Atom  11Au   basis set group =>   1
Atom  12Au   basis set group =>   1
Atom  13Au   basis set group =>   1
Atom  14Au   basis set group =>   1
Atom  15Au   basis set group =>   1
Atom  16Cr   basis set group =>   2
---------------------------------
AUXILIARY/J BASIS SET INFORMATION
---------------------------------
There are 2 groups of distinct atoms

 Group   1 Type Au  : 11s5p5d3f3g contracted to 8s5p5d2f3g pattern {41111111/11111/11111/21/111}
 Group   2 Type Cr  : 19s5p5d3f3g contracted to 8s5p5d2f3g pattern {121111111/11111/11111/21/111}

Atom   0Au   basis set group =>   1
Atom   1Au   basis set group =>   1
Atom   2Au   basis set group =>   1
Atom   3Au   basis set group =>   1
Atom   4Au   basis set group =>   1
Atom   5Au   basis set group =>   1
Atom   6Au   basis set group =>   1
Atom   7Au   basis set group =>   1
Atom   8Au   basis set group =>   1
Atom   9Au   basis set group =>   1
Atom  10Au   basis set group =>   1
Atom  11Au   basis set group =>   1
Atom  12Au   basis set group =>   1
Atom  13Au   basis set group =>   1
Atom  14Au   basis set group =>   1
Atom  15Au   basis set group =>   1
Atom  16Cr   basis set group =>   2
-------------------------
ECP PARAMETER INFORMATION
-------------------------

 Group 1, Type Au ECP Def2-ECP (replacing 60 core electrons, lmax=3)

Atom   0Au   ECP group =>   1
Atom   1Au   ECP group =>   1
Atom   2Au   ECP group =>   1
Atom   3Au   ECP group =>   1
Atom   4Au   ECP group =>   1
Atom   5Au   ECP group =>   1
Atom   6Au   ECP group =>   1
Atom   7Au   ECP group =>   1
Atom   8Au   ECP group =>   1
Atom   9Au   ECP group =>   1
Atom  10Au   ECP group =>   1
Atom  11Au   ECP group =>   1
Atom  12Au   ECP group =>   1
Atom  13Au   ECP group =>   1
Atom  14Au   ECP group =>   1
Atom  15Au   ECP group =>   1



           ************************************************************
           *        Program running with 6 parallel MPI-processes     *
           *              working on a common directory               *
           ************************************************************
------------------------------------------------------------------------------
                           ORCA GTO INTEGRAL CALCULATION
                           -- RI-GTO INTEGRALS CHOSEN --
------------------------------------------------------------------------------
------------------------------------------------------------------------------
                   ___                                                        
                  /   \      - P O W E R E D   B Y -                         
                 /     \                                                     
                 |  |  |   _    _      __       _____    __    __             
                 |  |  |  | |  | |    /  \     |  _  \  |  |  /  |          
                  \  \/   | |  | |   /    \    | | | |  |  | /  /          
                 / \  \   | |__| |  /  /\  \   | |_| |  |  |/  /          
                |  |  |   |  __  | /  /__\  \  |    /   |      \           
                |  |  |   | |  | | |   __   |  |    \   |  |\   \          
                \     /   | |  | | |  |  |  |  | |\  \  |  | \   \       
                 \___/    |_|  |_| |__|  |__|  |_| \__\ |__|  \__/        
                                                                              
                      - O R C A' S   B I G   F R I E N D -                    
                                      &                                       
                       - I N T E G R A L  F E E D E R -                       
                                                                              
 v1 FN, 2020, v2 2021                                                         
------------------------------------------------------------------------------


Reading SHARK input file pbeSP.SHARKINP.tmp ... ok
----------------------
SHARK INTEGRAL PACKAGE
----------------------

Number of atoms                             ...     17
Number of basis functions                   ...    685
Number of shells                            ...    239
Maximum angular momentum                    ...      3
Integral batch strategy                     ... SHARK/LIBINT Hybrid
RI-J (if used) integral strategy            ... SPLIT-RIJ (Revised 2003 algorithm where possible)
Printlevel                                  ...      1
Contraction scheme used                     ... SEGMENTED contraction
Coulomb Range Separation                    ... NOT USED
Exchange Range Separation                   ... NOT USED
Finite Nucleus Model                        ... NOT USED
Auxiliary Coulomb fitting basis             ... AVAILABLE
   # of basis functions in Aux-J            ...   1513
   # of shells in Aux-J                     ...    391
   Maximum angular momentum in Aux-J        ...      4
Auxiliary J/K fitting basis                 ... NOT available
Auxiliary Correlation fitting basis         ... NOT available
Auxiliary 'external' fitting basis          ... NOT available
Integral threshold                          ...     1.000000e-10
Primitive cut-off                           ...     1.000000e-11
Primitive pair pre-selection threshold      ...     1.000000e-11

Calculating pre-screening integrals         ... done (  0.4 sec) Dimension = 239
Organizing shell pair data                  ... done (  0.9 sec)
Shell pair information
Total number of shell pairs                 ...     28680
Shell pairs after pre-screening             ...     22036
Total number of primitive shell pairs       ...     75765
Primitive shell pairs kept                  ...     41785
          la=0 lb=0:   3484 shell pairs
          la=1 lb=0:   5037 shell pairs
          la=1 lb=1:   1884 shell pairs
          la=2 lb=0:   4389 shell pairs
          la=2 lb=1:   3083 shell pairs
          la=2 lb=2:   1269 shell pairs
          la=3 lb=0:   1146 shell pairs
          la=3 lb=1:    868 shell pairs
          la=3 lb=2:    762 shell pairs
          la=3 lb=3:    114 shell pairs

Calculating one electron integrals          ... done (  0.2 sec)
Calculating ECP integrals                   ... done ( 27.9 sec)
Calculating RI/J V-Matrix + Cholesky decomp.... done (  2.4 sec)
Calculating Nuclear repulsion               ... done (  0.0 sec) ENN=   6845.989382371893 Eh

SHARK setup successfully completed in  33.0 seconds

Maximum memory used throughout the entire GTOINT-calculation: 40.8 MB


           ************************************************************
           *        Program running with 6 parallel MPI-processes     *
           *              working on a common directory               *
           ************************************************************
-------------------------------------------------------------------------------
                                 ORCA SCF
-------------------------------------------------------------------------------

------------
SCF SETTINGS
------------
Hamiltonian:
 Density Functional     Method          .... DFT(GTOs)
 Exchange Functional    Exchange        .... PBE
   PBE kappa parameter   XKappa         ....  0.804000
   PBE mue parameter    XMuePBE         ....  0.219520
 Correlation Functional Correlation     .... PBE
   PBE beta parameter  CBetaPBE         ....  0.066725
 LDA part of GGA corr.  LDAOpt          .... PW91-LDA
 Gradients option       PostSCFGGA      .... off
   Density functional embedding theory  .... OFF
   NL short-range parameter             ....  6.400000
 RI-approximation to the Coulomb term is turned on
   Number of AuxJ basis functions       .... 1513


General Settings:
 Integral files         IntName         .... pbeSP
 Hartree-Fock type      HFTyp           .... UHF
 Total Charge           Charge          ....    0
 Multiplicity           Mult            ....    5
 Number of Electrons    NEL             ....  328
 Basis Dimension        Dim             ....  685
 Nuclear Repulsion      ENuc            ....   6845.9893823719 Eh

Convergence Acceleration:
 DIIS                   CNVDIIS         .... on
   Start iteration      DIISMaxIt       ....     0
   Startup error        DIISStart       ....  0.200000
   # of expansion vecs  DIISMaxEq       ....     5
   Bias factor          DIISBfac        ....   1.050
   Max. coefficient     DIISMaxC        ....  10.000
 Trust-Rad. Augm. Hess. CNVTRAH         .... auto
   Auto Start mean grad. ratio tolernc. ....  1.125000
   Auto Start start iteration           ....   200
   Auto Start num. interpolation iter.  ....    10
   Max. Number of Micro iterations      ....    16
   Max. Number of Macro iterations      .... Maxiter - #DIIS iter
   Number of Davidson start vectors     ....     2
   Converg. threshold I  (grad. norm)   ....   5.000e-05
   Converg. threshold II (energy diff.) ....   1.000e-06
   Grad. Scal. Fac. for Micro threshold ....   0.100
   Minimum threshold for Micro iter.    ....   0.010
   NR start threshold (gradient norm)   ....   0.001
   Initial trust radius                 ....   0.400
   Minimum AH scaling param. (alpha)    ....   1.000
   Maximum AH scaling param. (alpha)    .... 1000.000
   Orbital update algorithm             .... Taylor
   White noise on init. David. guess    .... on
   Maximum white noise                  ....   0.010
   Quad. conv. algorithm                .... NR
 SOSCF                  CNVSOSCF        .... off
 Level Shifting         CNVShift        .... on
   Level shift para.    LevelShift      ....    0.2500
   Turn off err/grad.   ShiftErr        ....    0.0000
 Zerner damping         CNVZerner       .... off
 Static damping         CNVDamp         .... on
   Fraction old density DampFac         ....    0.9200
   Max. Damping (<1)    DampMax         ....    0.9800
   Min. Damping (>=0)   DampMin         ....    0.0000
   Turn off err/grad.   DampErr         ....    0.0030
 Fernandez-Rico         CNVRico         .... off

SCF Procedure:
 Maximum # iterations   MaxIter         ....   400
 SCF integral mode      SCFMode         .... Direct
   Integral package                     .... SHARK and LIBINT hybrid scheme
 Reset frequency        DirectResetFreq ....    20
 Integral Threshold     Thresh          ....  1.000e-10 Eh
 Primitive CutOff       TCut            ....  1.000e-11 Eh

Convergence Tolerance:
 Convergence Check Mode ConvCheckMode   .... Total+1el-Energy
 Convergence forced     ConvForced      .... 0
 Energy Change          TolE            ....  1.000e-06 Eh
 1-El. energy change                    ....  1.000e-03 Eh
 DIIS Error             TolErr          ....  1.000e-06


Diagonalization of the overlap matrix:
Smallest eigenvalue                        ... 7.322e-05
Time for diagonalization                   ...    0.164 sec
Threshold for overlap eigenvalues          ... 1.000e-08
Number of eigenvalues below threshold      ... 0
Time for construction of square roots      ...    0.241 sec
Total time needed                          ...    0.653 sec

Time for model grid setup =    1.900 sec

------------------------------
INITIAL GUESS: MODEL POTENTIAL
------------------------------
Loading Hartree-Fock densities                     ... done
  calling /media/Programs/ORCA501/orca pbeSP_atom79.inp > pbeSP_atom79.out in order to generate an atomic fitting density for atom 0 (Au with ECP) on-the-fly... 
    atom 0 (Au), assumed electronic state with S=2: 1s2 2s2 2p6 3s2 3p6 4s2 3d10 4p6 5s2 4d10 5p6 6s1 4f14 5d10           ... done
Calculating cut-offs                               ... done
Initializing the effective Hamiltonian             ... done
Setting up the integral package (SHARK)            ... done
Starting the Coulomb interaction                   ... done (   2.2 sec)
Reading the grid                                   ... done
Mapping shells                                     ... done
Starting the XC term evaluation                    ... done (   1.4 sec)
  promolecular density results
     # of electrons  =   1288.016158523
     EX              =  -5900.413737843
     EC              =    -78.550138570
     EX+EC           =  -5978.963876413
Transforming the Hamiltonian                       ... done (   0.9 sec)
Diagonalizing the Hamiltonian                      ... done (   1.0 sec)
Back transforming the eigenvectors                 ... done (   0.1 sec)
Now organizing SCF variables                       ... done
                      ------------------
                      INITIAL GUESS DONE (   9.3 sec)
                      ------------------
-------------------
DFT GRID GENERATION
-------------------

General Integration Accuracy     IntAcc      ... 4.388
Radial Grid Type                 RadialGrid  ... OptM3 with GC (2021)
Angular Grid (max. ang.)         AngularGrid ... 4 (Lebedev-302)
Angular grid pruning method      GridPruning ... 4 (adaptive)
Weight generation scheme         WeightScheme... Becke
Basis function cutoff            BFCut       ... 1.0000e-10
Integration weight cutoff        WCut        ... 1.0000e-14
Angular grids for H and He will be reduced by one unit
Partially contracted basis set               ... off
Rotationally invariant grid construction     ... off

Total number of grid points                  ...   187236
Total number of batches                      ...     2933
Average number of points per batch           ...       63
Average number of grid points per atom       ...    11014
Time for grid setup =    4.670 sec

--------------
SCF ITERATIONS
--------------
ITER       Energy         Delta-E        Max-DP      RMS-DP      [F,P]     Damp
               ***  Starting incremental Fock matrix formation  ***
  0  -3215.3231815082   0.000000000000 0.15198383  0.00080634  0.3610591 0.9200
  1  -3215.9942235679  -0.671042059710 0.11927265  0.00069669  0.2629599 0.9200
                               ***Turning on DIIS***
  2  -3216.3596512685  -0.365427700588 0.18384405  0.00055874  0.2410039 0.9200
  3  -3216.5179700243  -0.158318755833 0.11225239  0.00038885  0.2208326 0.9200
  4  -3216.5896162956  -0.071646271252 0.02372021  0.00029082  0.2023469 0.9200
  5  -3216.6555836092  -0.065967313627 0.02858737  0.00026872  0.1853155 0.9200
  6  -3216.7178022724  -0.062218663225 0.10723832  0.00025922  0.1699316 0.9200
  7  -3216.7577104107  -0.039908138262 0.14371177  0.00028226  0.1565472 0.9200
  8  -3216.8104452310  -0.052734820345 0.09585006  0.00027148  0.1442375 0.9200
  9  -3216.8691162934  -0.058671062398 0.10960787  0.00024677  0.1325755 0.9200
 10  -3216.9135157759  -0.044399482460 0.09547835  0.00020587  0.1218272 0.9200
 11  -3216.9586533733  -0.045137597368 0.08115333  0.00019510  0.1117881 0.9200
 12  -3216.9931752892  -0.034521915979 0.10977851  0.00020702  0.1026511 0.9200
 13  -3217.0261038252  -0.032928535924 0.10309693  0.00020123  0.0944413 0.9200
 14  -3217.0644139184  -0.038310093269 0.09020537  0.00018714  0.0868338 0.9200
 15  -3217.0979547514  -0.033540832965 0.08311122  0.00016010  0.0798612 0.9200
 16  -3217.1274655284  -0.029510776980 0.06459241  0.00013794  0.0734555 0.9200
 17  -3217.1549929076  -0.027527379184 0.07099720  0.00014156  0.0674514 0.9200
 18  -3217.1787341239  -0.023741216338 0.07899150  0.00014389  0.0619758 0.9200
 19  -3217.2022381815  -0.023504057617 0.07006166  0.00013529  0.0569781 0.9200
               *** Restarting incremental Fock matrix formation ***
                                   *** Resetting DIIS ***
 20  -3217.2251446557  -0.022906474191 0.05696908  0.00011469  0.0523823 0.9200
 21  -3217.2455915097  -0.020446854018 0.04838996  0.00009832  0.0480773 0.9200
 22  -3217.2645266497  -0.018935139983 0.04621303  0.00009298  0.0441350 0.9200
 23  -3217.2818884626  -0.017361812871 0.05201424  0.00009506  0.0405558 0.9200
 24  -3217.2979637021  -0.016075239558 0.05126167  0.00009177  0.0373106 0.9200
 25  -3217.3128797381  -0.014916035975 0.04600284  0.00008369  0.0343326 0.9200
 26  -3217.3265870616  -0.013707323502 0.03778702  0.00007232  0.0315704 0.9200
 27  -3217.3393334587  -0.012746397079 0.03360073  0.00006706  0.0290176 0.9200
 28  -3217.3510364009  -0.011702942201 0.03610528  0.00006661  0.0266732 0.9200
 29  -3217.3618823753  -0.010845974446 0.03548442  0.00006418  0.0245349 0.9200
 30  -3217.3719037510  -0.010021375656 0.03099605  0.00005714  0.0225725 0.9200
 31  -3217.3811408331  -0.009237082072 0.02584763  0.00005051  0.0207622 0.9200
 32  -3217.3897063403  -0.008565507217 0.02426034  0.00004792  0.0190873 0.9200
 33  -3217.3975836109  -0.007877270638 0.02565302  0.00004726  0.0175461 0.9200
 34  -3217.4048772110  -0.007293600018 0.02493870  0.00004518  0.0161365 0.9200
 35  -3217.4115963017  -0.006719090707 0.02127198  0.00003965  0.0148444 0.9200
 36  -3217.4178058270  -0.006209525330 0.01808507  0.00003572  0.0136546 0.9200
 37  -3217.4235477004  -0.005741873448 0.01789464  0.00003449  0.0125540 0.9200
 38  -3217.4288362909  -0.005288590477 0.01846825  0.00003373  0.0115418 0.9200
 39  -3217.4337242739  -0.004887983001 0.01025410  0.00002741  0.0106144 0.9200
               *** Restarting incremental Fock matrix formation ***
                                   *** Resetting DIIS ***
 40  -3217.4382261086  -0.004501834673 0.01026307  0.00002482  0.0097643 0.9200
 41  -3217.4423895904  -0.004163481821 0.00973429  0.00002287  0.0089669 0.9200
 42  -3217.4462348625  -0.003845272055 0.01035113  0.00002224  0.0082358 0.9200
 43  -3217.4497797369  -0.003544874426 0.01094102  0.00002190  0.0075701 0.9200
 44  -3217.4530458195  -0.003266082659 0.01055966  0.00002091  0.0069626 0.9200
 45  -3217.4560563938  -0.003010574233 0.00954465  0.00001948  0.0064052 0.9200
 46  -3217.4588331971  -0.002776803334 0.00844805  0.00001812  0.0058909 0.9200
 47  -3217.4613943875  -0.002561190369 0.00782692  0.00001715  0.0054168 0.9200
 48  -3217.4637553859  -0.002360998380 0.00724007  0.00001622  0.0049814 0.9200
 49  -3217.4659313810  -0.002175995119 0.00634260  0.00001514  0.0045819 0.9200
 50  -3217.4679377994  -0.002006418381 0.00549864  0.00001421  0.0042145 0.9200
 51  -3217.4697883407  -0.001850541335 0.00496745  0.00001351  0.0038760 0.9200
 52  -3217.4714945132  -0.001706172515 0.00466739  0.00001294  0.0035645 0.9200
 53  -3217.4730671694  -0.001572656194 0.00432973  0.00001235  0.0032782 0.9200
 54  -3217.4745167857  -0.001449616263 0.00385926  0.00001178  0.0030152 0.9200
 55  -3217.4758534993  -0.001336713650 0.04409521  0.00014163  0.0027733 0.0000
 56  -3217.4913780065  -0.015524507156 0.01192263  0.00002218  0.0007123 0.0000
 57  -3217.4913507861   0.000027220329 0.00307672  0.00001132  0.0023122 0.0000
 58  -3217.4914021097  -0.000051323506 0.00111791  0.00000814  0.0011362 0.0000
 59  -3217.4914266407  -0.000024531043 0.02850792  0.00004161  0.0003940 0.0000
               *** Restarting incremental Fock matrix formation ***
                                   *** Resetting DIIS ***
 60  -3217.4914437554  -0.000017114697 0.00122185  0.00000739  0.0002015 0.0000
 61  -3217.4914559658  -0.000012210435 0.00054809  0.00000670  0.0003776 0.0000
 62  -3217.4914687992  -0.000012833348 0.00061478  0.00000660  0.0002551 0.0000
 63  -3217.4914807900  -0.000011990839 0.00065845  0.00000658  0.0002329 0.0000
 64  -3217.4914924774  -0.000011687387 0.00071646  0.00000684  0.0002007 0.0000
 65  -3217.4915037101  -0.000011232722 0.00163753  0.00000793  0.0001979 0.0000
 66  -3217.4915147150  -0.000011004830 0.00153452  0.00000657  0.0002131 0.0000
 67  -3217.4915256812  -0.000010966261 0.00066865  0.00000616  0.0001934 0.0000
 68  -3217.4915361752  -0.000010493979 0.00245828  0.00000770  0.0001941 0.0000
 69  -3217.4915465503  -0.000010375082 0.00048443  0.00000603  0.0001882 0.0000
 70  -3217.4915566304  -0.000010080142 0.00047914  0.00000591  0.0001884 0.0000
 71  -3217.4915663347  -0.000009704234 0.00072701  0.00000646  0.0001891 0.0000
 72  -3217.4915759012  -0.000009566573 0.00046815  0.00000575  0.0001862 0.0000
 73  -3217.4915851678  -0.000009266607 0.00056604  0.00000582  0.0001888 0.0000
 74  -3217.4915943151  -0.000009147251 0.00076416  0.00000665  0.0001886 0.0000
 75  -3217.4916033410  -0.000009025960 0.00044912  0.00000554  0.0001838 0.0000
 76  -3217.4916120820  -0.000008741002 0.00056802  0.00000575  0.0001857 0.0000
 77  -3217.4916206815  -0.000008599490 0.00074601  0.00000638  0.0001846 0.0000
 78  -3217.4916292581  -0.000008576563 0.00044061  0.00000538  0.0001794 0.0000
 79  -3217.4916375727  -0.000008314556 0.00294799  0.00001149  0.0001820 0.0000
               *** Restarting incremental Fock matrix formation ***
                                   *** Resetting DIIS ***
 80  -3217.4916458881  -0.000008315413 0.00111493  0.00000569  0.0001782 0.0000
 81  -3217.4916533906  -0.000007502492 0.00041740  0.00000526  0.0002258 0.0000
 82  -3217.4916615838  -0.000008193197 0.00049747  0.00000529  0.0001830 0.0000
 83  -3217.4916692489  -0.000007665136 0.00051374  0.00000533  0.0001837 0.0000
 84  -3217.4916767616  -0.000007512757 0.00054646  0.00000548  0.0001837 0.0000
 85  -3217.4916841372  -0.000007375540 0.00097867  0.00000608  0.0001820 0.0000
 86  -3217.4916915471  -0.000007409891 0.00039779  0.00000503  0.0001774 0.0000
 87  -3217.4916986860  -0.000007138882 0.00059278  0.00000502  0.0001783 0.0000
 88  -3217.4917056430  -0.000006956999 0.00151664  0.00000604  0.0001790 0.0000
 89  -3217.4917127536  -0.000007110656 0.00039840  0.00000490  0.0001739 0.0000
 90  -3217.4917196014  -0.000006847744 0.00085262  0.00000544  0.0001751 0.0000
 91  -3217.4917263619  -0.000006760537 0.00039218  0.00000474  0.0001720 0.0000
 92  -3217.4917328919  -0.000006530045 0.00045326  0.00000493  0.0001748 0.0000
 93  -3217.4917393373  -0.000006445347 0.00037941  0.00000466  0.0001741 0.0000
 94  -3217.4917455461  -0.000006208802 0.00061376  0.00000489  0.0001760 0.0000
 95  -3217.4917517884  -0.000006242332 0.00149882  0.00000552  0.0001752 0.0000
 96  -3217.4917579859  -0.000006197524 0.00043355  0.00000473  0.0001722 0.0000
 97  -3217.4917640500  -0.000006064082 0.00145315  0.00000535  0.0001719 0.0000
 98  -3217.4917700671  -0.000006017065 0.00037651  0.00000446  0.0001687 0.0000
 99  -3217.4917759324  -0.000005865268 0.00428682  0.00000958  0.0001711 0.0000
               *** Restarting incremental Fock matrix formation ***
                                   *** Resetting DIIS ***
100  -3217.4917820915  -0.000006159180 0.00125641  0.00000505  0.0001685 0.0000
101  -3217.4917877661  -0.000005674584 0.00046065  0.00000442  0.0001695 0.0000
102  -3217.4917933383  -0.000005572212 0.00037120  0.00000436  0.0001704 0.0000
103  -3217.4917987638  -0.000005425433 0.00060704  0.00000448  0.0001709 0.0000
104  -3217.4918041816  -0.000005417831 0.00121391  0.00000475  0.0001708 0.0000
105  -3217.4918094564  -0.000005274822 0.00106119  0.00000501  0.0001695 0.0000
106  -3217.4918147903  -0.000005333833 0.00047538  0.00000433  0.0001666 0.0000
107  -3217.4918199246  -0.000005134382 0.00060780  0.00000477  0.0001667 0.0000
108  -3217.4918251909  -0.000005266267 0.00036138  0.00000413  0.0001632 0.0000
109  -3217.4918302169  -0.000005026002 0.00107239  0.00000465  0.0001657 0.0000
110  -3217.4918352882  -0.000005071257 0.00162868  0.00000497  0.0001638 0.0000
111  -3217.4918403165  -0.000005028286 0.00035586  0.00000401  0.0001608 0.0000
112  -3217.4918450525  -0.000004736035 0.00057207  0.00000424  0.0001636 0.0000
113  -3217.4918498925  -0.000004839987 0.00162385  0.00000535  0.0001628 0.0000
114  -3217.4918548094  -0.000004916941 0.00039374  0.00000396  0.0001577 0.0000
115  -3217.4918594215  -0.000004612106 0.00136762  0.00000457  0.0001603 0.0000
116  -3217.4918641156  -0.000004694048 0.00146367  0.00000463  0.0001580 0.0000
117  -3217.4918688303  -0.000004714763 0.00035852  0.00000391  0.0001557 0.0000
118  -3217.4918732196  -0.000004389283 0.00037267  0.00000393  0.0001569 0.0000
119  -3217.4918777347  -0.000004515070 0.00663353  0.00001179  0.0001574 0.0000
               *** Restarting incremental Fock matrix formation ***
                                   *** Resetting DIIS ***
120  -3217.4918822799  -0.000004545233 0.00225384  0.00000526  0.0001553 0.0000
121  -3217.4918865729  -0.000004293017 0.00034556  0.00000375  0.0001560 0.0000
122  -3217.4918907723  -0.000004199397 0.00036216  0.00000380  0.0001569 0.0000
123  -3217.4918949432  -0.000004170890 0.00117501  0.00000415  0.0001569 0.0000
124  -3217.4918990921  -0.000004148908 0.00153354  0.00000451  0.0001559 0.0000
125  -3217.4919031341  -0.000004041940 0.00034427  0.00000371  0.0001531 0.0000
126  -3217.4919072468  -0.000004112684 0.00121295  0.00000437  0.0001540 0.0000
127  -3217.4919112365  -0.000003989777 0.00038520  0.00000361  0.0001506 0.0000
128  -3217.4919152238  -0.000003987254 0.00083951  0.00000383  0.0001528 0.0000
129  -3217.4919191163  -0.000003892477 0.00123251  0.00000418  0.0001520 0.0000
130  -3217.4919229736  -0.000003857335 0.00033883  0.00000357  0.0001496 0.0000
131  -3217.4919266962  -0.000003722576 0.00033941  0.00000358  0.0001504 0.0000
132  -3217.4919304833  -0.000003787110 0.00204070  0.00000496  0.0001501 0.0000
133  -3217.4919343615  -0.000003878240 0.00032863  0.00000350  0.0001449 0.0000
134  -3217.4919379809  -0.000003619391 0.00139041  0.00000408  0.0001476 0.0000
135  -3217.4919417111  -0.000003730148 0.00120305  0.00000390  0.0001452 0.0000
136  -3217.4919453895  -0.000003678450 0.00069904  0.00000354  0.0001443 0.0000
137  -3217.4919488880  -0.000003498522 0.00045861  0.00000349  0.0001448 0.0000
138  -3217.4919524204  -0.000003532352 0.00153252  0.00000399  0.0001449 0.0000
139  -3217.4919558951  -0.000003474720 0.00914127  0.00001326  0.0001438 0.0000
               *** Restarting incremental Fock matrix formation ***
                                   *** Resetting DIIS ***
140  -3217.4919592632  -0.000003368098 0.00057332  0.00000364  0.0001426 0.0000
141  -3217.4919624258  -0.000003162578 0.00070524  0.00000339  0.0001431 0.0000
142  -3217.4919659211  -0.000003495276 0.00031291  0.00000328  0.0001439 0.0000
143  -3217.4919691468  -0.000003225754 0.00084573  0.00000347  0.0001441 0.0000
144  -3217.4919723257  -0.000003178935 0.00140733  0.00000385  0.0001435 0.0000
145  -3217.4919755631  -0.000003237362 0.00097294  0.00000356  0.0001417 0.0000
146  -3217.4919787161  -0.000003153007 0.00076952  0.00000354  0.0001405 0.0000
147  -3217.4919819564  -0.000003240240 0.00109958  0.00000373  0.0001393 0.0000
148  -3217.4919850232  -0.000003066839 0.00030896  0.00000318  0.0001369 0.0000
149  -3217.4919881882  -0.000003165017 0.00049610  0.00000322  0.0001380 0.0000
150  -3217.4919910800  -0.000002891823 0.00042999  0.00000325  0.0001381 0.0000
151  -3217.4919941610  -0.000003080968 0.00068137  0.00000319  0.0001376 0.0000
152  -3217.4919969709  -0.000002809932 0.00048424  0.00000317  0.0001383 0.0000
153  -3217.4919999712  -0.000003000249 0.00200218  0.00000430  0.0001382 0.0000
154  -3217.4920029175  -0.000002946292 0.00092190  0.00000329  0.0001350 0.0000
155  -3217.4920057811  -0.000002863670 0.00176353  0.00000403  0.0001350 0.0000
156  -3217.4920087036  -0.000002922477 0.00050796  0.00000311  0.0001325 0.0000
157  -3217.4920113849  -0.000002681282 0.00033144  0.00000309  0.0001329 0.0000
158  -3217.4920142815  -0.000002896610 0.00071119  0.00000310  0.0001327 0.0000
159  -3217.4920168620  -0.000002580520 0.00703889  0.00001037  0.0001331 0.0000
               *** Restarting incremental Fock matrix formation ***
                                   *** Resetting DIIS ***
160  -3217.4920195269  -0.000002664821 0.00332370  0.00000567  0.0001321 0.0000
161  -3217.4920221771  -0.000002650228 0.00104426  0.00000321  0.0001313 0.0000
162  -3217.4920248703  -0.000002693203 0.00042805  0.00000300  0.0001315 0.0000
163  -3217.4920274320  -0.000002561748 0.00104202  0.00000344  0.0001306 0.0000
164  -3217.4920301112  -0.000002679209 0.00100566  0.00000315  0.0001290 0.0000
165  -3217.4920325369  -0.000002425652 0.00077614  0.00000325  0.0001287 0.0000
166  -3217.4920351819  -0.000002644982 0.00121273  0.00000344  0.0001274 0.0000
167  -3217.4920376198  -0.000002437950 0.00039180  0.00000286  0.0001258 0.0000
168  -3217.4920401066  -0.000002486819 0.00045610  0.00000292  0.0001263 0.0000
169  -3217.4920425953  -0.000002488693 0.00120963  0.00000334  0.0001260 0.0000
170  -3217.4920449519  -0.000002356581 0.00037332  0.00000286  0.0001248 0.0000
171  -3217.4920474970  -0.000002545067 0.00083844  0.00000299  0.0001248 0.0000
172  -3217.4920497439  -0.000002246886 0.00125997  0.00000367  0.0001244 0.0000
173  -3217.4920522108  -0.000002466893 0.00026742  0.00000276  0.0001218 0.0000
174  -3217.4920543758  -0.000002165063 0.00099289  0.00000314  0.0001228 0.0000
175  -3217.4920567297  -0.000002353900 0.00090077  0.00000335  0.0001218 0.0000
176  -3217.4920590454  -0.000002315697 0.00043136  0.00000269  0.0001194 0.0000
177  -3217.4920612316  -0.000002186210 0.00097369  0.00000311  0.0001217 0.0000
178  -3217.4920634959  -0.000002264260 0.00170231  0.00000421  0.0001208 0.0000
179  -3217.4920657948  -0.000002298868 0.01096579  0.00001769  0.0001177 0.0000
               *** Restarting incremental Fock matrix formation ***
                                   *** Resetting DIIS ***
180  -3217.4920676900  -0.000001895265 0.00188547  0.00000376  0.0001167 0.0000
181  -3217.4920698184  -0.000002128372 0.00026612  0.00000261  0.0001174 0.0000
182  -3217.4920718468  -0.000002028366 0.00061797  0.00000271  0.0001178 0.0000
183  -3217.4920739804  -0.000002133638 0.00069117  0.00000289  0.0001175 0.0000
184  -3217.4920759306  -0.000001950172 0.00024498  0.00000252  0.0001169 0.0000
185  -3217.4920780926  -0.000002162002 0.00102351  0.00000316  0.0001176 0.0000
186  -3217.4920801227  -0.000002030099 0.00232923  0.00000465  0.0001165 0.0000
187  -3217.4920821571  -0.000002034456 0.00024879  0.00000252  0.0001130 0.0000
188  -3217.4920842853  -0.000002128171 0.00118563  0.00000304  0.0001138 0.0000
189  -3217.4920862108  -0.000001925516 0.00078779  0.00000278  0.0001123 0.0000
190  -3217.4920882958  -0.000002085017 0.00073885  0.00000268  0.0001118 0.0000
191  -3217.4920900309  -0.000001735077 0.00024847  0.00000250  0.0001116 0.0000
192  -3217.4920920872  -0.000002056282 0.00080233  0.00000273  0.0001120 0.0000
193  -3217.4920939143  -0.000001827109 0.00102446  0.00000289  0.0001118 0.0000
194  -3217.4920957389  -0.000001824570 0.00139941  0.00000320  0.0001109 0.0000
195  -3217.4920975924  -0.000001853497 0.00075224  0.00000274  0.0001100 0.0000
196  -3217.4920993685  -0.000001776139 0.00115467  0.00000314  0.0001093 0.0000
197  -3217.4921012792  -0.000001910678 0.00043727  0.00000243  0.0001082 0.0000
198  -3217.4921028601  -0.000001580935 0.00062809  0.00000263  0.0001086 0.0000
199  -3217.4921047433  -0.000001883147 0.01049626  0.00001869  0.0001081 0.0000
               *** Restarting incremental Fock matrix formation ***
                                   *** Resetting DIIS ***

 WARNING: the maximum gradient error descreased on average only by a factor   1.0
          during the last 200 iterations

                      *** Initiating the TRAH-SCF procedure ***


TRAH GRID
---------

General Integration Accuracy     IntAcc      ... 3.467
Radial Grid Type                 RadialGrid  ... OptM3 with GC (2021)
Angular Grid (max. ang.)         AngularGrid ... 1 (Lebedev-50)
Angular grid pruning method      GridPruning ... 4 (adaptive)
Weight generation scheme         WeightScheme... Becke
Basis function cutoff            BFCut       ... 1.0000e-10
Integration weight cutoff        WCut        ... 1.0000e-14
Angular grids for H and He will be reduced by one unit
Partially contracted basis set               ... off
Rotationally invariant grid construction     ... off

Total number of grid points                  ...    80697
Total number of batches                      ...     1271
Average number of points per batch           ...       63
Average number of grid points per atom       ...     4747

 --------------------------------------------------------------------------------------------
   Iter.        energy            ||Error||_2        Shift      TRadius  Mac/Mic        Rej.
 --------------------------------------------------------------------------------------------
    0      -3217.492106122921     4.896572e-04                     0.400 (TRAH MAcro)   No
WARNING : small    HOMO - LUMO gap : (op = alpha) 0.003423
WARNING : small    HOMO - LUMO gap : (op =  beta) 0.009313
    0     dE    -6.092459e-07     2.053620e-03    -6.0924e-07      0.001 (TRAH MIcro)
    0     dE    -3.298891e-05     7.777749e-03    -3.2814e-05      0.073 (TRAH MIcro)
    0     dE    -7.559648e-05     6.404913e-03    -7.3683e-05      0.161 (TRAH MIcro)
    0     dE    -1.062029e-04     6.559868e-03    -1.0135e-04      0.219 (TRAH MIcro)
    0     dE    -1.336741e-04     4.967341e-03    -1.2475e-04      0.268 (TRAH MIcro)
    0     dE    -1.469009e-04     3.022209e-03    -1.3551e-04      0.290 (TRAH MIcro)
    0     dE    -1.534627e-04     1.773891e-03    -1.4072e-04      0.301 (TRAH MIcro)
    0     dE    -1.550625e-04     8.826080e-04    -1.4198e-04      0.304 (TRAH MIcro)
    0     dE    -1.555100e-04     4.495569e-04    -1.4233e-04      0.304 (TRAH MIcro)
    0     dE    -1.556902e-04     3.748236e-04    -1.4247e-04      0.305 (TRAH MIcro)
    0     dE    -1.558517e-04     2.504778e-04    -1.4259e-04      0.305 (TRAH MIcro)
    0     dE    -1.558900e-04     1.249233e-04    -1.4261e-04      0.305 (TRAH MIcro)
    0     dE    -1.558996e-04     6.202552e-05    -1.4262e-04      0.305 (TRAH MIcro)
    0     dE    -1.559023e-04     3.729173e-05    -1.4262e-04      0.305 (TRAH MIcro)
    1      -3217.492218201170     7.798018e-03                     0.400 (TRAH MAcro)   No
WARNING : small    HOMO - LUMO gap : (op = alpha) 0.004626
WARNING : small    HOMO - LUMO gap : (op =  beta) 0.010388
    1     dE    -1.820579e-05     8.094937e-03    -1.8206e-05      0.002 (TRAH MIcro)
    1     dE    -3.159102e-05     3.695331e-03    -3.1589e-05      0.009 (TRAH MIcro)
    1     dE    -3.572168e-05     2.551811e-03    -3.5717e-05      0.011 (TRAH MIcro)
    1     dE    -3.810559e-05     1.420183e-03    -3.8099e-05      0.013 (TRAH MIcro)
    1     dE    -3.935317e-05     8.269931e-04    -3.9344e-05      0.015 (TRAH MIcro)
    1     dE    -3.968974e-05     5.115979e-04    -3.9679e-05      0.016 (TRAH MIcro)
    2      -3217.492257996467     5.126141e-04                           (NR   MAcro)
WARNING : small    HOMO - LUMO gap : (op = alpha) 0.003721
WARNING : small    HOMO - LUMO gap : (op =  beta) 0.009914
    2     dE    -1.245866e-07     3.062819e-04                           (NR   MIcro)
    2     dE    -2.450976e-07     3.420045e-04                           (NR   MIcro)
    2     dE    -2.948489e-07     3.523086e-04                           (NR   MIcro)
    2     dE    -3.484515e-07     2.632436e-04                           (NR   MIcro)
    2     dE    -3.997090e-07     2.113693e-04                           (NR   MIcro)
    2     dE    -4.340309e-07     1.623883e-04                           (NR   MIcro)
    2     dE    -4.552462e-07     1.087872e-04                           (NR   MIcro)
    2     dE    -4.638136e-07     8.574304e-05                           (NR   MIcro)
    2     dE    -4.674818e-07     4.370975e-05                           (NR   MIcro)
    2     dE    -4.683025e-07     2.031371e-05                           (NR   MIcro)
    2     dE    -4.685358e-07     1.096778e-05                           (NR   MIcro)
    2     dE    -4.686401e-07     8.054145e-06                           (NR   MIcro)
    2     dE    -4.686860e-07     3.786018e-06                           (NR   MIcro)
    3      -3217.492258462850     2.086948e-05                           (NR   MAcro)
WARNING : small    HOMO - LUMO gap : (op = alpha) 0.003736
WARNING : small    HOMO - LUMO gap : (op =  beta) 0.009950

               *****************************************************
               *                     SUCCESS                       *
               *           SCF CONVERGED AFTER 237 CYCLES          *
               *****************************************************


----------------
TOTAL SCF ENERGY
----------------

Total Energy       :        -3217.49225846 Eh          -87552.41543 eV

Components:
Nuclear Repulsion  :         6845.98938237 Eh          186288.84184 eV
Electronic Energy  :       -10063.48164083 Eh         -273841.25727 eV
One Electron Energy:       -18934.12234555 Eh         -515223.66249 eV
Two Electron Energy:         8870.64070471 Eh          241382.40522 eV

Virial components:
Potential Energy   :        -4992.72436883 Eh         -135858.93701 eV
Kinetic Energy     :         1775.23211037 Eh           48306.52158 eV
Virial Ratio       :            2.81243469


DFT components:
N(Alpha)           :      165.999931309853 electrons
N(Beta)            :      161.999932947281 electrons
N(Total)           :      327.999864257134 electrons
E(X)               :     -240.267162970688 Eh       
E(C)               :      -14.308194975280 Eh       
E(XC)              :     -254.575357945968 Eh       
DFET-embed. en.    :        0.000000000000 Eh       

---------------
SCF CONVERGENCE
---------------

  Last Energy change         ...   -4.6638e-07  Tolerance :   1.0000e-06
  Last Orbital Gradient      ...    2.0869e-05  Tolerance :   5.0000e-05
  Last Orbital Rotation      ...    1.4121e-02

             **** THE GBW FILE WAS UPDATED (pbeSP.gbw) ****
             **** DENSITY pbeSP.scfp WAS UPDATED ****
             **** ENERGY FILE WAS UPDATED (pbeSP.en.tmp) ****
----------------------
UHF SPIN CONTAMINATION
----------------------

Warning: in a DFT calculation there is little theoretical justification to 
         calculate <S**2> as in Hartree-Fock theory. We will do it anyways
         but you should keep in mind that the values have only limited relevance

Expectation value of <S**2>     :     6.322791
Ideal value S*(S+1) for S=2.0   :     6.000000
Deviation                       :     0.322791

             **** THE GBW FILE WAS UPDATED (pbeSP.gbw) ****
             **** DENSITY pbeSP.scfp WAS UPDATED ****
----------------
ORBITAL ENERGIES
----------------
                 SPIN UP ORBITALS
  NO   OCC          E(Eh)            E(eV) 
   0   1.0000    -214.495549     -5836.7206 
   1   1.0000     -24.296115      -661.1309 
   2   1.0000     -20.660602      -562.2036 
   3   1.0000     -20.659332      -562.1690 
   4   1.0000     -20.658077      -562.1349 
   5   1.0000      -4.034949      -109.7965 
   6   1.0000      -4.032055      -109.7178 
   7   1.0000      -4.031953      -109.7150 
   8   1.0000      -4.031410      -109.7002 
   9   1.0000      -4.030971      -109.6883 
  10   1.0000      -4.029174      -109.6394 
  11   1.0000      -4.026808      -109.5750 
  12   1.0000      -4.026591      -109.5691 
  13   1.0000      -4.026292      -109.5610 
  14   1.0000      -4.025772      -109.5468 
  15   1.0000      -4.025592      -109.5419 
  16   1.0000      -4.025279      -109.5334 
  17   1.0000      -4.024836      -109.5214 
  18   1.0000      -4.022719      -109.4637 
  19   1.0000      -4.022342      -109.4535 
  20   1.0000      -4.020546      -109.4046 
  21   1.0000      -2.801154       -76.2233 
  22   1.0000      -2.251115       -61.2560 
  23   1.0000      -2.250068       -61.2275 
  24   1.0000      -2.249872       -61.2221 
  25   1.0000      -2.248862       -61.1946 
  26   1.0000      -2.248052       -61.1726 
  27   1.0000      -2.247975       -61.1705 
  28   1.0000      -2.246252       -61.1236 
  29   1.0000      -2.246151       -61.1209 
  30   1.0000      -2.245092       -61.0921 
  31   1.0000      -2.244996       -61.0895 
  32   1.0000      -2.244461       -61.0749 
  33   1.0000      -2.244158       -61.0666 
  34   1.0000      -2.243212       -61.0409 
  35   1.0000      -2.242602       -61.0243 
  36   1.0000      -2.242428       -61.0196 
  37   1.0000      -2.242101       -61.0107 
  38   1.0000      -2.242057       -61.0095 
  39   1.0000      -2.241656       -60.9986 
  40   1.0000      -2.241390       -60.9913 
  41   1.0000      -2.241286       -60.9885 
  42   1.0000      -2.241116       -60.9839 
  43   1.0000      -2.240790       -60.9750 
  44   1.0000      -2.240543       -60.9683 
  45   1.0000      -2.240490       -60.9668 
  46   1.0000      -2.239636       -60.9436 
  47   1.0000      -2.239555       -60.9414 
  48   1.0000      -2.239490       -60.9396 
  49   1.0000      -2.238399       -60.9099 
  50   1.0000      -2.238320       -60.9078 
  51   1.0000      -2.238040       -60.9002 
  52   1.0000      -2.237764       -60.8926 
  53   1.0000      -2.237240       -60.8784 
  54   1.0000      -2.237066       -60.8737 
  55   1.0000      -2.236977       -60.8712 
  56   1.0000      -2.236906       -60.8693 
  57   1.0000      -2.236334       -60.8537 
  58   1.0000      -2.235783       -60.8387 
  59   1.0000      -2.235515       -60.8315 
  60   1.0000      -2.235206       -60.8231 
  61   1.0000      -2.234908       -60.8149 
  62   1.0000      -2.234812       -60.8123 
  63   1.0000      -2.233828       -60.7856 
  64   1.0000      -2.233609       -60.7796 
  65   1.0000      -2.233042       -60.7641 
  66   1.0000      -2.232308       -60.7442 
  67   1.0000      -2.232277       -60.7433 
  68   1.0000      -2.231832       -60.7312 
  69   1.0000      -2.230674       -60.6997 
  70   1.0000      -1.792807       -48.7848 
  71   1.0000      -1.791085       -48.7379 
  72   1.0000      -1.788866       -48.6775 
  73   1.0000      -0.430050       -11.7023 
  74   1.0000      -0.399066       -10.8591 
  75   1.0000      -0.390292       -10.6204 
  76   1.0000      -0.387143       -10.5347 
  77   1.0000      -0.380584       -10.3562 
  78   1.0000      -0.373615       -10.1666 
  79   1.0000      -0.371553       -10.1105 
  80   1.0000      -0.365525        -9.9465 
  81   1.0000      -0.365051        -9.9335 
  82   1.0000      -0.361941        -9.8489 
  83   1.0000      -0.358709        -9.7610 
  84   1.0000      -0.357597        -9.7307 
  85   1.0000      -0.355073        -9.6620 
  86   1.0000      -0.353239        -9.6121 
  87   1.0000      -0.350713        -9.5434 
  88   1.0000      -0.348830        -9.4922 
  89   1.0000      -0.347034        -9.4433 
  90   1.0000      -0.346361        -9.4250 
  91   1.0000      -0.344437        -9.3726 
  92   1.0000      -0.342336        -9.3154 
  93   1.0000      -0.339819        -9.2470 
  94   1.0000      -0.337016        -9.1707 
  95   1.0000      -0.336149        -9.1471 
  96   1.0000      -0.334486        -9.1018 
  97   1.0000      -0.333295        -9.0694 
  98   1.0000      -0.331137        -9.0107 
  99   1.0000      -0.329218        -8.9585 
 100   1.0000      -0.327140        -8.9019 
 101   1.0000      -0.326196        -8.8762 
 102   1.0000      -0.324336        -8.8256 
 103   1.0000      -0.322862        -8.7855 
 104   1.0000      -0.320703        -8.7268 
 105   1.0000      -0.318821        -8.6755 
 106   1.0000      -0.317438        -8.6379 
 107   1.0000      -0.314564        -8.5597 
 108   1.0000      -0.312944        -8.5156 
 109   1.0000      -0.308779        -8.4023 
 110   1.0000      -0.305000        -8.2995 
 111   1.0000      -0.303803        -8.2669 
 112   1.0000      -0.299846        -8.1592 
 113   1.0000      -0.298489        -8.1223 
 114   1.0000      -0.295975        -8.0539 
 115   1.0000      -0.295790        -8.0489 
 116   1.0000      -0.292795        -7.9674 
 117   1.0000      -0.289114        -7.8672 
 118   1.0000      -0.288797        -7.8586 
 119   1.0000      -0.286059        -7.7841 
 120   1.0000      -0.284328        -7.7370 
 121   1.0000      -0.284186        -7.7331 
 122   1.0000      -0.281611        -7.6630 
 123   1.0000      -0.278489        -7.5781 
 124   1.0000      -0.277925        -7.5627 
 125   1.0000      -0.276800        -7.5321 
 126   1.0000      -0.274533        -7.4704 
 127   1.0000      -0.273368        -7.4387 
 128   1.0000      -0.272822        -7.4239 
 129   1.0000      -0.272322        -7.4103 
 130   1.0000      -0.272050        -7.4029 
 131   1.0000      -0.270317        -7.3557 
 132   1.0000      -0.269339        -7.3291 
 133   1.0000      -0.268626        -7.3097 
 134   1.0000      -0.267557        -7.2806 
 135   1.0000      -0.266854        -7.2615 
 136   1.0000      -0.266035        -7.2392 
 137   1.0000      -0.264114        -7.1869 
 138   1.0000      -0.263293        -7.1646 
 139   1.0000      -0.263165        -7.1611 
 140   1.0000      -0.261166        -7.1067 
 141   1.0000      -0.259311        -7.0562 
 142   1.0000      -0.258868        -7.0441 
 143   1.0000      -0.255664        -6.9570 
 144   1.0000      -0.253953        -6.9104 
 145   1.0000      -0.250963        -6.8290 
 146   1.0000      -0.250686        -6.8215 
 147   1.0000      -0.249061        -6.7773 
 148   1.0000      -0.248421        -6.7599 
 149   1.0000      -0.247564        -6.7366 
 150   1.0000      -0.246499        -6.7076 
 151   1.0000      -0.246149        -6.6981 
 152   1.0000      -0.244491        -6.6529 
 153   1.0000      -0.244024        -6.6402 
 154   1.0000      -0.241806        -6.5799 
 155   1.0000      -0.241134        -6.5616 
 156   1.0000      -0.236215        -6.4277 
 157   1.0000      -0.230785        -6.2800 
 158   1.0000      -0.221191        -6.0189 
 159   1.0000      -0.217012        -5.9052 
 160   1.0000      -0.215525        -5.8647 
 161   1.0000      -0.213788        -5.8175 
 162   1.0000      -0.210402        -5.7253 
 163   1.0000      -0.202507        -5.5105 
 164   1.0000      -0.195911        -5.3310 
 165   1.0000      -0.179083        -4.8731 
 166   0.0000      -0.175347        -4.7714 
 167   0.0000      -0.172220        -4.6864 
 168   0.0000      -0.141372        -3.8469 
 169   0.0000      -0.134215        -3.6522 
 170   0.0000      -0.131835        -3.5874 
 171   0.0000      -0.125617        -3.4182 
 172   0.0000      -0.119438        -3.2501 
 173   0.0000      -0.110138        -2.9970 
 174   0.0000      -0.103672        -2.8211 
 175   0.0000      -0.071972        -1.9585 
 176   0.0000      -0.067045        -1.8244 
 177   0.0000      -0.060680        -1.6512 
 178   0.0000      -0.059691        -1.6243 
 179   0.0000      -0.055506        -1.5104 
 180   0.0000      -0.054230        -1.4757 
 181   0.0000      -0.043644        -1.1876 
 182   0.0000      -0.029599        -0.8054 
 183   0.0000      -0.025667        -0.6984 
 184   0.0000      -0.016322        -0.4442 
 185   0.0000      -0.011964        -0.3256 
 186   0.0000      -0.004169        -0.1134 
 187   0.0000       0.009366         0.2549 
 188   0.0000       0.014210         0.3867 
 189   0.0000       0.017430         0.4743 
 190   0.0000       0.022684         0.6173 
 191   0.0000       0.026362         0.7174 
 192   0.0000       0.034663         0.9432 
 193   0.0000       0.041385         1.1261 
 194   0.0000       0.043289         1.1779 
 195   0.0000       0.045815         1.2467 
 196   0.0000       0.050827         1.3831 
 197   0.0000       0.053878         1.4661 
 198   0.0000       0.057772         1.5721 
 199   0.0000       0.060108         1.6356 
 200   0.0000       0.066503         1.8096 
 201   0.0000       0.070049         1.9061 
 202   0.0000       0.070501         1.9184 
 203   0.0000       0.072907         1.9839 
 204   0.0000       0.076958         2.0941 
 205   0.0000       0.081809         2.2261 
 206   0.0000       0.085517         2.3270 
 207   0.0000       0.087990         2.3943 
 208   0.0000       0.089179         2.4267 
 209   0.0000       0.094533         2.5724 
 210   0.0000       0.100992         2.7481 
 211   0.0000       0.103648         2.8204 
 212   0.0000       0.112801         3.0695 
 213   0.0000       0.114320         3.1108 
 214   0.0000       0.119726         3.2579 
 215   0.0000       0.123433         3.3588 
 216   0.0000       0.129992         3.5373 
 217   0.0000       0.134302         3.6545 
 218   0.0000       0.135444         3.6856 
 219   0.0000       0.136535         3.7153 
 220   0.0000       0.140529         3.8240 
 221   0.0000       0.141023         3.8374 
 222   0.0000       0.144137         3.9222 
 223   0.0000       0.150135         4.0854 
 224   0.0000       0.153114         4.1665 
 225   0.0000       0.156483         4.2581 
 226   0.0000       0.160587         4.3698 
 227   0.0000       0.164835         4.4854 
 228   0.0000       0.168302         4.5797 
 229   0.0000       0.171637         4.6705 
 230   0.0000       0.176953         4.8151 
 231   0.0000       0.180866         4.9216 
 232   0.0000       0.191804         5.2192 
 233   0.0000       0.198916         5.4128 
 234   0.0000       0.199568         5.4305 
 235   0.0000       0.212821         5.7912 
 236   0.0000       0.214479         5.8363 
 237   0.0000       0.216274         5.8851 
 238   0.0000       0.217240         5.9114 
 239   0.0000       0.224378         6.1056 
 240   0.0000       0.227219         6.1829 
 241   0.0000       0.230804         6.2805 
 242   0.0000       0.232775         6.3341 
 243   0.0000       0.240228         6.5369 
 244   0.0000       0.242324         6.5940 
 245   0.0000       0.250276         6.8104 
 246   0.0000       0.251147         6.8341 
 247   0.0000       0.256105         6.9690 
 248   0.0000       0.260778         7.0961 
 249   0.0000       0.264617         7.2006 
 250   0.0000       0.266583         7.2541 
 251   0.0000       0.267449         7.2776 
 252   0.0000       0.272582         7.4173 
 253   0.0000       0.279501         7.6056 
 254   0.0000       0.286202         7.7880 
 255   0.0000       0.288475         7.8498 
 256   0.0000       0.290268         7.8986 
 257   0.0000       0.296825         8.0770 
 258   0.0000       0.299089         8.1386 
 259   0.0000       0.301569         8.2061 
 260   0.0000       0.309779         8.4295 
 261   0.0000       0.310995         8.4626 
 262   0.0000       0.318604         8.6696 
 263   0.0000       0.320554         8.7227 
 264   0.0000       0.323669         8.8075 
 265   0.0000       0.329314         8.9611 
 266   0.0000       0.332398         9.0450 
 267   0.0000       0.338948         9.2233 
 268   0.0000       0.339780         9.2459 
 269   0.0000       0.341802         9.3009 
 270   0.0000       0.347599         9.4587 
 271   0.0000       0.352494         9.5918 
 272   0.0000       0.355484         9.6732 
 273   0.0000       0.356610         9.7038 
 274   0.0000       0.360579         9.8118 
 275   0.0000       0.365159         9.9365 
 276   0.0000       0.367442         9.9986 
 277   0.0000       0.371211        10.1012 
 278   0.0000       0.373800        10.1716 
 279   0.0000       0.381227        10.3737 
 280   0.0000       0.383965        10.4482 
 281   0.0000       0.386157        10.5079 
 282   0.0000       0.389695        10.6042 
 283   0.0000       0.394678        10.7397 
 284   0.0000       0.400205        10.8901 
 285   0.0000       0.403220        10.9722 
 286   0.0000       0.406266        11.0551 
 287   0.0000       0.413425        11.2499 
 288   0.0000       0.415580        11.3085 
 289   0.0000       0.426912        11.6169 
 290   0.0000       0.429353        11.6833 
 291   0.0000       0.432666        11.7734 
 292   0.0000       0.442508        12.0413 
 293   0.0000       0.444798        12.1036 
 294   0.0000       0.448095        12.1933 
 295   0.0000       0.450090        12.2476 
 296   0.0000       0.457141        12.4395 
 297   0.0000       0.458504        12.4765 
 298   0.0000       0.462981        12.5984 
 299   0.0000       0.467503        12.7214 
 300   0.0000       0.469393        12.7728 
 301   0.0000       0.475364        12.9353 
 302   0.0000       0.477204        12.9854 
 303   0.0000       0.479921        13.0593 
 304   0.0000       0.488244        13.2858 
 305   0.0000       0.489022        13.3070 
 306   0.0000       0.492056        13.3895 
 307   0.0000       0.494129        13.4459 
 308   0.0000       0.498257        13.5583 
 309   0.0000       0.500357        13.6154 
 310   0.0000       0.504598        13.7308 
 311   0.0000       0.506989        13.7959 
 312   0.0000       0.514517        14.0007 
 313   0.0000       0.516567        14.0565 
 314   0.0000       0.522195        14.2096 
 315   0.0000       0.524473        14.2716 
 316   0.0000       0.528463        14.3802 
 317   0.0000       0.530610        14.4386 
 318   0.0000       0.534525        14.5452 
 319   0.0000       0.539059        14.6685 
 320   0.0000       0.543831        14.7984 
 321   0.0000       0.547175        14.8894 
 322   0.0000       0.553100        15.0506 
 323   0.0000       0.557418        15.1681 
 324   0.0000       0.561359        15.2754 
 325   0.0000       0.574160        15.6237 
 326   0.0000       0.576901        15.6983 
 327   0.0000       0.578148        15.7322 
 328   0.0000       0.581684        15.8284 
 329   0.0000       0.583142        15.8681 
 330   0.0000       0.595354        16.2004 
 331   0.0000       0.605774        16.4839 
 332   0.0000       0.610751        16.6194 
 333   0.0000       0.648910        17.6577 
 334   0.0000       0.667290        18.1579 
 335   0.0000       0.676079        18.3970 
 336   0.0000       0.684220        18.6186 
 337   0.0000       0.695503        18.9256 
 338   0.0000       0.702712        19.1218 
 339   0.0000       0.708472        19.2785 
 340   0.0000       0.719665        19.5831 
 341   0.0000       0.722092        19.6491 
 342   0.0000       0.725682        19.7468 
 343   0.0000       0.740344        20.1458 
 344   0.0000       0.750655        20.4264 
 345   0.0000       0.756373        20.5819 
 346   0.0000       0.766034        20.8448 
 347   0.0000       0.770655        20.9706 
 348   0.0000       0.779180        21.2026 
 349   0.0000       0.786456        21.4005 
 350   0.0000       0.795903        21.6576 
 351   0.0000       0.818626        22.2759 
 352   0.0000       0.825710        22.4687 
 353   0.0000       0.830462        22.5980 
 354   0.0000       0.836667        22.7669 
 355   0.0000       0.848860        23.0987 
 356   0.0000       0.859082        23.3768 
 357   0.0000       0.867904        23.6169 
 358   0.0000       0.876669        23.8554 
 359   0.0000       0.885231        24.0884 
 360   0.0000       0.887269        24.1438 
 361   0.0000       0.891553        24.2604 
 362   0.0000       0.896573        24.3970 
 363   0.0000       0.900436        24.5021 
 364   0.0000       0.906580        24.6693 
 365   0.0000       0.912548        24.8317 
 366   0.0000       0.919025        25.0079 
 367   0.0000       0.930207        25.3122 
 368   0.0000       0.959517        26.1098 
 369   0.0000       0.968769        26.3615 
 370   0.0000       0.975250        26.5379 
 371   0.0000       0.987703        26.8768 
 372   0.0000       1.002652        27.2836 
 373   0.0000       1.016992        27.6738 
 374   0.0000       1.033305        28.1177 
 375   0.0000       1.070874        29.1400 
 376   0.0000       1.107350        30.1325 
 377   0.0000       1.121388        30.5145 
 378   0.0000       1.160708        31.5845 
 379   0.0000       1.184164        32.2227 
 380   0.0000       1.195903        32.5422 
 381   0.0000       1.206885        32.8410 
 382   0.0000       1.227259        33.3954 
 383   0.0000       1.228818        33.4378 
 384   0.0000       1.245651        33.8959 
 385   0.0000       1.249184        33.9920 
 386   0.0000       1.255632        34.1675 
 387   0.0000       1.260362        34.2962 
 388   0.0000       1.268486        34.5172 
 389   0.0000       1.274278        34.6749 
 390   0.0000       1.285518        34.9807 
 391   0.0000       1.286335        35.0030 
 392   0.0000       1.300655        35.3926 
 393   0.0000       1.302689        35.4480 
 394   0.0000       1.310102        35.6497 
 395   0.0000       1.316852        35.8334 
 396   0.0000       1.329254        36.1708 
 397   0.0000       1.336734        36.3744 
 398   0.0000       1.340782        36.4845 
 399   0.0000       1.345388        36.6099 
 400   0.0000       1.347502        36.6674 
 401   0.0000       1.354299        36.8524 
 402   0.0000       1.365160        37.1479 
 403   0.0000       1.368114        37.2283 
 404   0.0000       1.369652        37.2701 
 405   0.0000       1.370890        37.3038 
 406   0.0000       1.379230        37.5308 
 407   0.0000       1.384822        37.6829 
 408   0.0000       1.389765        37.8174 
 409   0.0000       1.391444        37.8631 
 410   0.0000       1.396334        37.9962 
 411   0.0000       1.398878        38.0654 
 412   0.0000       1.403259        38.1846 
 413   0.0000       1.407033        38.2873 
 414   0.0000       1.411642        38.4127 
 415   0.0000       1.416052        38.5327 
 416   0.0000       1.419243        38.6196 
 417   0.0000       1.422339        38.7038 
 418   0.0000       1.425757        38.7968 
 419   0.0000       1.427768        38.8515 
 420   0.0000       1.431255        38.9464 
 421   0.0000       1.432873        38.9904 
 422   0.0000       1.439317        39.1658 
 423   0.0000       1.441390        39.2222 
 424   0.0000       1.443045        39.2673 
 425   0.0000       1.447381        39.3852 
 426   0.0000       1.450143        39.4604 
 427   0.0000       1.453951        39.5640 
 428   0.0000       1.454707        39.5846 
 429   0.0000       1.455831        39.6152 
 430   0.0000       1.461050        39.7572 
 431   0.0000       1.462322        39.7918 
 432   0.0000       1.463840        39.8331 
 433   0.0000       1.465800        39.8864 
 434   0.0000       1.466830        39.9145 
 435   0.0000       1.469206        39.9791 
 436   0.0000       1.470474        40.0136 
 437   0.0000       1.474031        40.1104 
 438   0.0000       1.475850        40.1599 
 439   0.0000       1.478975        40.2450 
 440   0.0000       1.479710        40.2650 
 441   0.0000       1.480374        40.2830 
 442   0.0000       1.483077        40.3566 
 443   0.0000       1.484533        40.3962 
 444   0.0000       1.485870        40.4326 
 445   0.0000       1.488080        40.4927 
 446   0.0000       1.488953        40.5165 
 447   0.0000       1.490963        40.5712 
 448   0.0000       1.492103        40.6022 
 449   0.0000       1.493342        40.6359 
 450   0.0000       1.496636        40.7255 
 451   0.0000       1.497894        40.7598 
 452   0.0000       1.498816        40.7849 
 453   0.0000       1.499909        40.8146 
 454   0.0000       1.501634        40.8615 
 455   0.0000       1.502210        40.8772 
 456   0.0000       1.503438        40.9106 
 457   0.0000       1.505402        40.9641 
 458   0.0000       1.505884        40.9772 
 459   0.0000       1.506385        40.9908 
 460   0.0000       1.508823        41.0572 
 461   0.0000       1.509007        41.0622 
 462   0.0000       1.510228        41.0954 
 463   0.0000       1.511954        41.1424 
 464   0.0000       1.514226        41.2042 
 465   0.0000       1.514998        41.2252 
 466   0.0000       1.515800        41.2470 
 467   0.0000       1.517055        41.2812 
 468   0.0000       1.518966        41.3332 
 469   0.0000       1.519773        41.3551 
 470   0.0000       1.521140        41.3923 
 471   0.0000       1.522645        41.4333 
 472   0.0000       1.523420        41.4544 
 473   0.0000       1.525140        41.5012 
 474   0.0000       1.525850        41.5205 
 475   0.0000       1.527354        41.5614 
 476   0.0000       1.527800        41.5736 
 477   0.0000       1.528034        41.5799 
 478   0.0000       1.530950        41.6593 
 479   0.0000       1.533300        41.7232 
 480   0.0000       1.534376        41.7525 
 481   0.0000       1.536569        41.8122 
 482   0.0000       1.537697        41.8429 
 483   0.0000       1.539149        41.8824 
 484   0.0000       1.543406        41.9982 
 485   0.0000       1.544099        42.0171 
 486   0.0000       1.547777        42.1171 
 487   0.0000       1.550625        42.1947 
 488   0.0000       1.553618        42.2761 
 489   0.0000       1.557789        42.3896 
 490   0.0000       1.558634        42.4126 
 491   0.0000       1.562926        42.5294 
 492   0.0000       1.565814        42.6080 
 493   0.0000       1.566305        42.6213 
 494   0.0000       1.567593        42.6564 
 495   0.0000       1.570140        42.7257 
 496   0.0000       1.570550        42.7368 
 497   0.0000       1.572947        42.8021 
 498   0.0000       1.574072        42.8327 
 499   0.0000       1.575924        42.8831 
 500   0.0000       1.577650        42.9300 
 501   0.0000       1.582797        43.0701 
 502   0.0000       1.583543        43.0904 
 503   0.0000       1.586660        43.1752 
 504   0.0000       1.588163        43.2161 
 505   0.0000       1.590206        43.2717 
 506   0.0000       1.592494        43.3340 
 507   0.0000       1.595216        43.4080 
 508   0.0000       1.596205        43.4350 
 509   0.0000       1.598095        43.4864 
 510   0.0000       1.600592        43.5543 
 511   0.0000       1.602866        43.6162 
[...]
      f0      :     0.000808  f :     0.005302
      f+1     :     0.000897
      f-1     :     0.000781
      f+2     :     0.000631
      f-2     :     0.000583
      f+3     :     0.000625
      f-3     :     0.000978
 10 Aus       :     2.493404  s :     2.493404
      pz      :     2.212158  p :     6.595192
      px      :     2.272595
      py      :     2.110439
      dz2     :     1.968370  d :     9.915878
      dxz     :     1.983742
      dyz     :     2.001931
      dx2y2   :     1.973043
      dxy     :     1.988792
      f0      :     0.000888  f :     0.006988
      f+1     :     0.001172
      f-1     :     0.000808
      f+2     :     0.001036
      f-2     :     0.000991
      f+3     :     0.001026
      f-3     :     0.001068
 11 Aus       :     2.517669  s :     2.517669
      pz      :     2.182600  p :     6.480407
      px      :     2.150614
      py      :     2.147193
      dz2     :     1.962337  d :     9.870644
      dxz     :     1.985073
      dyz     :     1.995390
      dx2y2   :     1.988529
      dxy     :     1.939315
      f0      :     0.000735  f :     0.006255
      f+1     :     0.000821
      f-1     :     0.000882
      f+2     :     0.001052
      f-2     :     0.000823
      f+3     :     0.001029
      f-3     :     0.000914
 12 Aus       :     2.603783  s :     2.603783
      pz      :     2.171672  p :     6.390410
      px      :     2.089148
      py      :     2.129590
      dz2     :     1.967570  d :     9.860541
      dxz     :     1.984317
      dyz     :     1.975151
      dx2y2   :     1.948790
      dxy     :     1.984713
      f0      :     0.000705  f :     0.004665
      f+1     :     0.000787
      f-1     :     0.000467
      f+2     :     0.000619
      f-2     :     0.000733
      f+3     :     0.000723
      f-3     :     0.000632
 13 Aus       :     2.599097  s :     2.599097
      pz      :     2.152779  p :     6.475256
      px      :     2.209790
      py      :     2.112686
      dz2     :     1.971410  d :     9.910967
      dxz     :     1.974366
      dyz     :     1.991277
      dx2y2   :     1.980394
      dxy     :     1.993519
      f0      :     0.000626  f :     0.005546
      f+1     :     0.000650
      f-1     :     0.000766
      f+2     :     0.000774
      f-2     :     0.001013
      f+3     :     0.000755
      f-3     :     0.000962
 14 Aus       :     2.547251  s :     2.547251
      pz      :     2.098800  p :     6.476889
      px      :     2.178800
      py      :     2.199289
      dz2     :     1.986658  d :     9.917217
      dxz     :     1.992729
      dyz     :     2.000270
      dx2y2   :     1.960029
      dxy     :     1.977532
      f0      :     0.000757  f :     0.006166
      f+1     :     0.000884
      f-1     :     0.000791
      f+2     :     0.000874
      f-2     :     0.001088
      f+3     :     0.000777
      f-3     :     0.000994
 15 Aus       :     2.513305  s :     2.513305
      pz      :     2.128009  p :     6.499381
      px      :     2.182517
      py      :     2.188855
      dz2     :     1.982248  d :     9.881676
      dxz     :     1.969510
      dyz     :     1.956625
      dx2y2   :     1.985891
      dxy     :     1.987400
      f0      :     0.000765  f :     0.005683
      f+1     :     0.000855
      f-1     :     0.000938
      f+2     :     0.000623
      f-2     :     0.000803
      f+3     :     0.000704
      f-3     :     0.000995
 16 Crs       :     6.250832  s :     6.250832
      pz      :     4.210647  p :    12.586372
      px      :     4.187083
      py      :     4.188642
      dz2     :     1.232652  d :     6.378020
      dxz     :     1.356911
      dyz     :     1.266294
      dx2y2   :     1.331912
      dxy     :     1.190251
      f0      :     0.000211  f :     0.001961
      f+1     :     0.000294
      f-1     :     0.000421
      f+2     :     0.000295
      f-2     :     0.000226
      f+3     :     0.000327
      f-3     :     0.000187

SPIN
  0 Aus       :    -0.038428  s :    -0.038428
      pz      :    -0.009228  p :    -0.033684
      px      :    -0.013602
      py      :    -0.010855
      dz2     :     0.008038  d :     0.009661
      dxz     :    -0.000170
      dyz     :     0.006638
      dx2y2   :    -0.002039
      dxy     :    -0.002806
      f0      :     0.000060  f :     0.000435
      f+1     :     0.000035
      f-1     :     0.000213
      f+2     :     0.000056
      f-2     :     0.000059
      f+3     :     0.000008
      f-3     :     0.000004
  1 Aus       :    -0.035432  s :    -0.035432
      pz      :    -0.009735  p :    -0.061656
      px      :    -0.033422
      py      :    -0.018499
      dz2     :     0.009015  d :     0.001542
      dxz     :    -0.003844
      dyz     :     0.000953
      dx2y2   :    -0.002283
      dxy     :    -0.002299
      f0      :     0.000045  f :     0.000348
      f+1     :     0.000041
      f-1     :     0.000155
      f+2     :     0.000028
      f-2     :     0.000074
      f+3     :    -0.000002
      f-3     :     0.000008
  2 Aus       :     0.018952  s :     0.018952
      pz      :     0.000962  p :    -0.012294
      px      :    -0.012502
      py      :    -0.000754
      dz2     :    -0.004395  d :    -0.028966
      dxz     :    -0.005646
      dyz     :    -0.006600
      dx2y2   :    -0.002924
      dxy     :    -0.009401
      f0      :    -0.000007  f :    -0.000043
      f+1     :    -0.000010
      f-1     :    -0.000001
      f+2     :     0.000001
      f-2     :     0.000002
      f+3     :    -0.000020
      f-3     :    -0.000008
  3 Aus       :    -0.027556  s :    -0.027556
      pz      :    -0.010686  p :    -0.026859
      px      :    -0.000342
      py      :    -0.015830
      dz2     :     0.003728  d :     0.012991
      dxz     :     0.006931
      dyz     :     0.004871
      dx2y2   :     0.001028
      dxy     :    -0.003566
      f0      :    -0.000003  f :     0.000220
      f+1     :     0.000110
      f-1     :     0.000026
      f+2     :     0.000029
      f-2     :     0.000072
      f+3     :     0.000012
      f-3     :    -0.000027
  4 Aus       :    -0.056044  s :    -0.056044
      pz      :    -0.031309  p :    -0.039808
      px      :    -0.004460
      py      :    -0.004039
      dz2     :     0.000131  d :     0.011932
      dxz     :     0.002215
      dyz     :     0.000796
      dx2y2   :     0.003673
      dxy     :     0.005117
      f0      :     0.000023  f :     0.000471
      f+1     :     0.000017
      f-1     :     0.000104
      f+2     :     0.000006
      f-2     :     0.000019
      f+3     :     0.000158
      f-3     :     0.000144
  5 Aus       :    -0.121161  s :    -0.121161
      pz      :     0.002234  p :    -0.013404
      px      :    -0.016704
      py      :     0.001067
      dz2     :    -0.001139  d :    -0.005496
      dxz     :     0.000700
      dyz     :     0.000563
      dx2y2   :    -0.001614
      dxy     :    -0.004007
      f0      :     0.000000  f :    -0.000004
      f+1     :    -0.000005
      f-1     :    -0.000001
      f+2     :     0.000005
      f-2     :     0.000008
      f+3     :     0.000004
      f-3     :    -0.000015
  6 Aus       :     0.000430  s :     0.000430
      pz      :    -0.004989  p :    -0.032149
      px      :    -0.020990
      py      :    -0.006170
      dz2     :    -0.002808  d :    -0.021031
      dxz     :    -0.003621
      dyz     :     0.001195
      dx2y2   :    -0.011433
      dxy     :    -0.004364
      f0      :    -0.000009  f :    -0.000043
      f+1     :     0.000003
      f-1     :    -0.000005
      f+2     :    -0.000014
      f-2     :    -0.000003
      f+3     :    -0.000011
      f-3     :    -0.000003
  7 Aus       :    -0.032380  s :    -0.032380
      pz      :    -0.015190  p :    -0.023340
      px      :     0.005476
      py      :    -0.013626
      dz2     :     0.000277  d :     0.014092
      dxz     :     0.009055
      dyz     :    -0.002644
      dx2y2   :     0.002119
      dxy     :     0.005284
      f0      :     0.000023  f :     0.000332
      f+1     :     0.000069
      f-1     :    -0.000001
      f+2     :     0.000064
      f-2     :     0.000027
      f+3     :     0.000081
      f-3     :     0.000069
  8 Aus       :    -0.044106  s :    -0.044106
      pz      :    -0.011333  p :    -0.036744
      px      :    -0.010815
      py      :    -0.014596
      dz2     :     0.000933  d :     0.012128
      dxz     :     0.007176
      dyz     :     0.005270
      dx2y2   :     0.001910
      dxy     :    -0.003162
      f0      :     0.000047  f :     0.000426
      f+1     :     0.000073
      f-1     :     0.000194
      f+2     :     0.000063
      f-2     :     0.000046
      f+3     :    -0.000014
      f-3     :     0.000018
  9 Aus       :    -0.025196  s :    -0.025196
      pz      :    -0.017323  p :    -0.041751
      px      :    -0.013752
      py      :    -0.010676
      dz2     :    -0.000572  d :     0.006683
      dxz     :     0.005561
      dyz     :     0.002295
      dx2y2   :    -0.002047
      dxy     :     0.001446
      f0      :    -0.000000  f :     0.000343
      f+1     :     0.000203
      f-1     :     0.000009
      f+2     :     0.000084
      f-2     :     0.000032
      f+3     :     0.000006
      f-3     :     0.000009
 10 Aus       :    -0.016184  s :    -0.016184
      pz      :    -0.010608  p :    -0.030665
      px      :    -0.019840
      py      :    -0.000217
      dz2     :    -0.005381  d :    -0.005284
      dxz     :    -0.000387
      dyz     :    -0.004131
      dx2y2   :     0.004546
      dxy     :     0.000069
      f0      :    -0.000020  f :     0.000013
      f+1     :    -0.000008
      f-1     :     0.000025
      f+2     :    -0.000011
      f-2     :    -0.000006
      f+3     :     0.000009
      f-3     :     0.000022
 11 Aus       :    -0.054266  s :    -0.054266
      pz      :    -0.023675  p :    -0.042898
      px      :    -0.005588
      py      :    -0.013636
      dz2     :    -0.002433  d :    -0.001542
      dxz     :    -0.000225
      dyz     :    -0.000056
      dx2y2   :     0.005520
      dxy     :    -0.004347
      f0      :     0.000007  f :     0.000373
      f+1     :     0.000031
      f-1     :     0.000056
      f+2     :     0.000000
      f-2     :     0.000038
      f+3     :     0.000154
      f-3     :     0.000086
 12 Aus       :    -0.106127  s :    -0.106127
      pz      :    -0.009994  p :    -0.035067
      px      :    -0.011765
      py      :    -0.013308
      dz2     :    -0.000634  d :     0.017521
      dxz     :     0.008341
      dyz     :    -0.002068
      dx2y2   :     0.003581
      dxy     :     0.008301
      f0      :     0.000051  f :     0.000571
      f+1     :     0.000097
      f-1     :    -0.000000
      f+2     :     0.000116
      f-2     :     0.000014
      f+3     :     0.000170
      f-3     :     0.000122
 13 Aus       :     0.002492  s :     0.002492
      pz      :     0.003470  p :    -0.008083
      px      :    -0.014222
      py      :     0.002670
      dz2     :    -0.000796  d :    -0.017116
      dxz     :    -0.013365
      dyz     :     0.002326
      dx2y2   :    -0.000696
      dxy     :    -0.004584
      f0      :     0.000002  f :    -0.000017
      f+1     :     0.000004
      f-1     :    -0.000002
      f+2     :    -0.000008
      f-2     :    -0.000014
      f+3     :     0.000001
      f-3     :    -0.000002
 14 Aus       :    -0.000603  s :    -0.000603
      pz      :    -0.006101  p :    -0.021263
      px      :    -0.012627
      py      :    -0.002534
      dz2     :    -0.004820  d :    -0.027228
      dxz     :    -0.001750
      dyz     :     0.000101
      dx2y2   :    -0.019009
      dxy     :    -0.001750
      f0      :    -0.000002  f :    -0.000054
      f+1     :    -0.000015
      f-1     :     0.000000
      f+2     :    -0.000022
      f-2     :    -0.000003
      f+3     :    -0.000008
      f-3     :    -0.000004
 15 Aus       :    -0.070415  s :    -0.070415
      pz      :    -0.013043  p :    -0.035192
      px      :    -0.007461
      py      :    -0.014688
      dz2     :     0.005879  d :     0.011541
      dxz     :     0.007773
      dyz     :     0.001657
      dx2y2   :    -0.000186
      dxy     :    -0.003582
      f0      :     0.000064  f :     0.000537
      f+1     :     0.000108
      f-1     :     0.000188
      f+2     :     0.000078
      f-2     :     0.000090
      f+3     :    -0.000008
      f-3     :     0.000016
 16 Crs       :     0.018102  s :     0.018102
      pz      :     0.012582  p :     0.037991
      px      :     0.012502
      py      :     0.012906
      dz2     :     0.485917  d :     3.049394
      dxz     :     0.707396
      dyz     :     0.515396
      dx2y2   :     0.632701
      dxy     :     0.707985
      f0      :     0.000007  f :     0.000058
      f+1     :     0.000012
      f-1     :     0.000016
      f+2     :     0.000012
      f-2     :     0.000006
      f+3     :     0.000000
      f-3     :     0.000005


                      *****************************
                      * MAYER POPULATION ANALYSIS *
                      *****************************

  NA   - Mulliken gross atomic population
  ZA   - Total nuclear charge
  QA   - Mulliken gross atomic charge
  VA   - Mayer's total valence
  BVA  - Mayer's bonded valence
  FA   - Mayer's free valence

  ATOM       NA         ZA         QA         VA         BVA        FA
  0 Au    18.6207    19.0000     0.3793     2.0347     2.0303     0.0044
  1 Au    18.4324    19.0000     0.5676     1.6814     1.6792     0.0022
  2 Au    19.0152    19.0000    -0.0152     2.0071     2.0035     0.0036
  3 Au    18.9234    19.0000     0.0766     2.1812     2.1789     0.0023
  4 Au    18.5109    19.0000     0.4891     1.7290     1.7237     0.0052
  5 Au    18.5491    19.0000     0.4509     1.3726     1.3331     0.0395
  6 Au    19.1413    19.0000    -0.1413     2.2316     2.2303     0.0013
  7 Au    18.8942    19.0000     0.1058     2.0441     2.0421     0.0020
  8 Au    18.4875    19.0000     0.5125     1.7333     1.7303     0.0030
  9 Au    18.4743    19.0000     0.5257     1.5988     1.5975     0.0012
 10 Au    19.4218    19.0000    -0.4218     2.3085     2.3052     0.0033
 11 Au    18.3717    19.0000     0.6283     1.6885     1.6838     0.0047
 12 Au    18.5205    19.0000     0.4795     1.6345     1.6148     0.0197
 13 Au    18.6512    19.0000     0.3488     1.6432     1.6423     0.0009
 14 Au    18.7806    19.0000     0.2194     1.6630     1.6614     0.0016
 15 Au    18.6027    19.0000     0.3973     1.8609     1.8497     0.0112
 16 Cr    28.6025    24.0000    -4.6025     9.6724     6.9186     2.7538

  Mayer bond orders larger than 0.100000
B(  0-Au,  6-Au) :   0.4387 B(  0-Au,  7-Au) :   0.1013 B(  0-Au,  8-Au) :   0.1195 
B(  0-Au,  9-Au) :   0.2080 B(  0-Au, 10-Au) :   0.2334 B(  0-Au, 11-Au) :   0.1067 
B(  0-Au, 16-Cr) :   0.5714 B(  1-Au,  3-Au) :   0.2219 B(  1-Au,  4-Au) :   0.2474 
B(  1-Au, 12-Au) :   0.2577 B(  1-Au, 15-Au) :   0.1533 B(  1-Au, 16-Cr) :   0.5567 
B(  2-Au,  3-Au) :   0.4458 B(  2-Au,  5-Au) :   0.3386 B(  2-Au,  6-Au) :   0.3327 
B(  2-Au,  7-Au) :   0.2408 B(  2-Au, 13-Au) :   0.1804 B(  2-Au, 14-Au) :   0.1742 
B(  2-Au, 16-Cr) :   0.2213 B(  3-Au,  4-Au) :   0.1518 B(  3-Au,  7-Au) :   0.1451 
B(  3-Au, 14-Au) :   0.2607 B(  3-Au, 15-Au) :   0.1144 B(  3-Au, 16-Cr) :   0.4922 
B(  4-Au,  7-Au) :   0.1885 B(  4-Au,  8-Au) :   0.2809 B(  4-Au, 11-Au) :   0.1000 
B(  4-Au, 16-Cr) :   0.5897 B(  5-Au,  6-Au) :   0.3884 B(  5-Au, 13-Au) :   0.2347 
B(  5-Au, 16-Cr) :   0.1320 B(  6-Au,  7-Au) :   0.2086 B(  6-Au, 10-Au) :   0.2554 
B(  6-Au, 13-Au) :   0.2236 B(  6-Au, 16-Cr) :   0.3055 B(  7-Au,  8-Au) :   0.2527 
B(  7-Au, 12-Au) :   0.1281 B(  7-Au, 16-Cr) :   0.5298 B(  8-Au,  9-Au) :   0.2685 
B(  8-Au, 16-Cr) :   0.5635 B(  9-Au, 11-Au) :   0.1775 B(  9-Au, 12-Au) :   0.2162 
B(  9-Au, 16-Cr) :   0.4475 B( 10-Au, 11-Au) :   0.2912 B( 10-Au, 13-Au) :   0.4310 
B( 10-Au, 14-Au) :   0.3342 B( 10-Au, 15-Au) :   0.1827 B( 10-Au, 16-Cr) :   0.3541 
B( 11-Au, 12-Au) :   0.1324 B( 11-Au, 15-Au) :   0.1910 B( 11-Au, 16-Cr) :   0.5265 
B( 12-Au, 16-Cr) :   0.6498 B( 13-Au, 14-Au) :   0.3003 B( 14-Au, 15-Au) :   0.2136 
B( 14-Au, 16-Cr) :   0.2763 B( 15-Au, 16-Cr) :   0.6476 

-------
TIMINGS
-------

Total SCF time: 0 days 1 hours 5 min 55 sec 

Total time                  ....    3955.472 sec
Sum of individual times     ....    3853.237 sec  ( 97.4%)

Fock matrix formation       ....    2074.862 sec  ( 52.5%)
  Split-RI-J                ....     776.097 sec  ( 37.4% of F)
  XC integration            ....    1024.698 sec  ( 49.4% of F)
    Basis function eval.    ....     107.520 sec  ( 10.5% of XC)
    Density eval.           ....     425.718 sec  ( 41.5% of XC)
    XC-Functional eval.     ....      16.877 sec  (  1.6% of XC)
    XC-Potential eval.      ....     330.224 sec  ( 32.2% of XC)
Diagonalization             ....     694.483 sec  ( 17.6%)
Density matrix formation    ....      46.249 sec  (  1.2%)
Population analysis         ....       2.809 sec  (  0.1%)
Initial guess               ....       0.941 sec  (  0.0%)
Orbital Transformation      ....     114.441 sec  (  2.9%)
Orbital Orthonormalization  ....       0.586 sec  (  0.0%)
DIIS solution               ....     910.153 sec  ( 23.0%)
Grid generation             ....       6.474 sec  (  0.2%)

Maximum memory used throughout the entire SCF-calculation: 133.6 MB

-------------------------   --------------------
FINAL SINGLE POINT ENERGY     -3217.500250193266
-------------------------   --------------------


                            ***************************************
                            *     ORCA property calculations      *
                            ***************************************

                                    ---------------------
                                    Active property flags
                                    ---------------------
   (+) Dipole Moment


------------------------------------------------------------------------------
                       ORCA ELECTRIC PROPERTIES CALCULATION
------------------------------------------------------------------------------

Dipole Moment Calculation                       ... on
Quadrupole Moment Calculation                   ... off
Polarizability Calculation                      ... off
GBWName                                         ... pbeSP_job2.gbw
Electron density                                ... pbeSP_job2.scfp
The origin for moment calculation is the CENTER OF MASS  = (13.971911, 15.492150 14.524372)

-------------
DIPOLE MOMENT
-------------
                                X             Y             Z
Electronic contribution:     40.78005      28.09360       7.40870
Nuclear contribution   :    -41.26525     -28.42697      -7.52416
                        -----------------------------------------
Total Dipole Moment    :     -0.48519      -0.33337      -0.11546
                        -----------------------------------------
Magnitude (a.u.)       :      0.59990
Magnitude (Debye)      :      1.52482



--------------------
Rotational spectrum 
--------------------
 
Rotational constants in cm-1:     0.001102     0.000661     0.000645 
Rotational constants in MHz :    33.036753    19.805524    19.327628 

 Dipole components along the rotational axes: 
x,y,z [a.u.] :    -0.593094    -0.064394    -0.063010 
x,y,z [Debye]:    -1.507526    -0.163677    -0.160158 

 

Timings for individual modules:

Sum of individual times         ...     3991.034 sec (=  66.517 min)
GTO integral calculation        ...       34.391 sec (=   0.573 min)   0.9 %
SCF iterations                  ...     3956.643 sec (=  65.944 min)  99.1 %



                             ****ORCA TERMINATED NORMALLY****
TOTAL RUN TIME: 0 days 2 hours 13 minutes 31 seconds 106 msec
