
                                 *****************
                                 * O   R   C   A *
                                 *****************

                                            #,                                       
                                            ###                                      
                                            ####                                     
                                            #####                                    
                                            ######                                   
                                           ########,                                 
                                     ,,################,,,,,                         
                               ,,#################################,,                 
                          ,,##########################################,,             
                       ,#########################################, ''#####,          
                    ,#############################################,,   '####,        
                  ,##################################################,,,,####,       
                ,###########''''           ''''###############################       
              ,#####''   ,,,,##########,,,,          '''####'''          '####       
            ,##' ,,,,###########################,,,                        '##       
           ' ,,###''''                  '''############,,,                           
         ,,##''                                '''############,,,,        ,,,,,,###''
      ,#''                                            '''#######################'''  
     '                                                          ''''####''''         
             ,#######,   #######,   ,#######,      ##                                
            ,#'     '#,  ##    ##  ,#'     '#,    #''#        ######   ,####,        
            ##       ##  ##   ,#'  ##            #'  '#       #        #'  '#        
            ##       ##  #######   ##           ,######,      #####,   #    #        
            '#,     ,#'  ##    ##  '#,     ,#' ,#      #,         ##   #,  ,#        
             '#######'   ##     ##  '#######'  #'      '#     #####' # '####'        



                  #######################################################
                  #                        -***-                        #
                  #          Department of theory and spectroscopy      #
                  #    Directorship and core code : Frank Neese         #
                  #        Max Planck Institute fuer Kohlenforschung    #
                  #                Kaiser Wilhelm Platz 1               #
                  #                 D-45470 Muelheim/Ruhr               #
                  #                      Germany                        #
                  #                                                     #
                  #                  All rights reserved                #
                  #                        -***-                        #
                  #######################################################


                         Program Version 5.0.3 -  RELEASE  -


 With contributions from (in alphabetic order):
   Daniel Aravena         : Magnetic Suceptibility
   Michael Atanasov       : Ab Initio Ligand Field Theory (pilot matlab implementation)
   Alexander A. Auer      : GIAO ZORA, VPT2 properties, NMR spectrum
   Ute Becker             : Parallelization
   Giovanni Bistoni       : ED, misc. LED, open-shell LED, HFLD
   Martin Brehm           : Molecular dynamics
   Dmytro Bykov           : SCF Hessian
   Vijay G. Chilkuri      : MRCI spin determinant printing, contributions to CSF-ICE
   Dipayan Datta          : RHF DLPNO-CCSD density
   Achintya Kumar Dutta   : EOM-CC, STEOM-CC
   Dmitry Ganyushin       : Spin-Orbit,Spin-Spin,Magnetic field MRCI
   Miquel Garcia          : C-PCM and meta-GGA Hessian, CC/C-PCM, Gaussian charge scheme
   Yang Guo               : DLPNO-NEVPT2, F12-NEVPT2, CIM, IAO-localization
   Andreas Hansen         : Spin unrestricted coupled pair/coupled cluster methods
   Benjamin Helmich-Paris : MC-RPA, TRAH-SCF, COSX integrals
   Lee Huntington         : MR-EOM, pCC
   Robert Izsak           : Overlap fitted RIJCOSX, COSX-SCS-MP3, EOM
   Marcus Kettner         : VPT2
   Christian Kollmar      : KDIIS, OOCD, Brueckner-CCSD(T), CCSD density, CASPT2, CASPT2-K
   Simone Kossmann        : Meta GGA functionals, TD-DFT gradient, OOMP2, MP2 Hessian
   Martin Krupicka        : Initial AUTO-CI
   Lucas Lang             : DCDCAS
   Marvin Lechner         : AUTO-CI (C++ implementation), FIC-MRCC
   Dagmar Lenk            : GEPOL surface, SMD
   Dimitrios Liakos       : Extrapolation schemes; Compound Job, initial MDCI parallelization
   Dimitrios Manganas     : Further ROCIS development; embedding schemes
   Dimitrios Pantazis     : SARC Basis sets
   Anastasios Papadopoulos: AUTO-CI, single reference methods and gradients
   Taras Petrenko         : DFT Hessian,TD-DFT gradient, ASA, ECA, R-Raman, ABS, FL, XAS/XES, NRVS
   Peter Pinski           : DLPNO-MP2, DLPNO-MP2 Gradient
   Christoph Reimann      : Effective Core Potentials
   Marius Retegan         : Local ZFS, SOC
   Christoph Riplinger    : Optimizer, TS searches, QM/MM, DLPNO-CCSD(T), (RO)-DLPNO pert. Triples
   Tobias Risthaus        : Range-separated hybrids, TD-DFT gradient, RPA, STAB
   Michael Roemelt        : Original ROCIS implementation
   Masaaki Saitow         : Open-shell DLPNO-CCSD energy and density
   Barbara Sandhoefer     : DKH picture change effects
   Avijit Sen             : IP-ROCIS
   Kantharuban Sivalingam : CASSCF convergence, NEVPT2, FIC-MRCI
   Bernardo de Souza      : ESD, SOC TD-DFT
   Georgi Stoychev        : AutoAux, RI-MP2 NMR, DLPNO-MP2 response
   Willem Van den Heuvel  : Paramagnetic NMR
   Boris Wezisla          : Elementary symmetry handling
   Frank Wennmohs         : Technical directorship


 We gratefully acknowledge several colleagues who have allowed us to
 interface, adapt or use parts of their codes:
   Stefan Grimme, W. Hujo, H. Kruse, P. Pracht,  : VdW corrections, initial TS optimization,
                  C. Bannwarth, S. Ehlert          DFT functionals, gCP, sTDA/sTD-DF
   Ed Valeev, F. Pavosevic, A. Kumar             : LibInt (2-el integral package), F12 methods
   Garnet Chan, S. Sharma, J. Yang, R. Olivares  : DMRG
   Ulf Ekstrom                                   : XCFun DFT Library
   Mihaly Kallay                                 : mrcc  (arbitrary order and MRCC methods)
   Jiri Pittner, Ondrej Demel                    : Mk-CCSD
   Frank Weinhold                                : gennbo (NPA and NBO analysis)
   Christopher J. Cramer and Donald G. Truhlar   : smd solvation model
   Lars Goerigk                                  : TD-DFT with DH, B97 family of functionals
   V. Asgeirsson, H. Jonsson                     : NEB implementation
   FAccTs GmbH                                   : IRC, NEB, NEB-TS, DLPNO-Multilevel, CI-OPT
                                                   MM, QMMM, 2- and 3-layer-ONIOM, Crystal-QMMM,
                                                   LR-CPCM, SF, NACMEs, symmetry and pop. for TD-DFT,
                                                   nearIR, NL-DFT gradient (VV10), updates on ESD,
                                                   ML-optimized integration grids
   S Lehtola, MJT Oliveira, MAL Marques          : LibXC Library
   Liviu Ungur et al                             : ANISO software


 Your calculation uses the libint2 library for the computation of 2-el integrals
 For citations please refer to: http://libint.valeyev.net

 Your ORCA version has been built with support for libXC version: 5.1.0
 For citations please refer to: https://tddft.org/programs/libxc/

 This ORCA versions uses:
   CBLAS   interface :  Fast vector & matrix operations
   LAPACKE interface :  Fast linear algebra routines
   SCALAPACK package :  Parallel linear algebra routines
   Shared memory     :  Shared parallel matrices
   BLAS/LAPACK       :  OpenBLAS 0.3.15  USE64BITINT DYNAMIC_ARCH NO_AFFINITY Haswell SINGLE_THREADED
        Core in use  :  Haswell
   Copyright (c) 2011-2014, The OpenBLAS Project




***************************************
The coordinates will be read from file: pbe.xyz
***************************************


================================================================================

cite the ECPs for Au [Def2-ECP] as follows:
Ce-Yb(ecp-28): M. Dolg, H. Stoll, H.Preuss, J. Chem. Phys., 1989, 90, 1730-1734.
Y-Cd(ecp-28), Hf-Hg(ecp-46): D. Andrae,U. Haeussermann, M. Dolg, H. Stoll, H. Preuss, Theor. Chim. Acta, 1990, 77, 123-141.
In-Sb(ecp-28), Tl-Bi(ecp-46): B. Metz, H. Stoll, M. Dolg, J. Chem. Phys., 2000, 113, 2563-2569.
Te-Xe(ecp-28), Po-Rn(ecp-46): K. A. Peterson, D. Figgen, E. Goll, H. Stoll, M. Dolg, J. Chem. Phys., 2003, 119, 11113-11123.
Rb(ecp-28), Cs(ecp-46): T. Leininger, A. Nicklass, W. Kuechle, H. Stoll, M. Dolg, A. Bergner, Chem. Phys. Lett., 1996, 255, 274-280.
Sr(ecp-28), Ba(ecp-46): M. Kaupp, P. V. Schleyer, H. Stoll and H. Preuss, J. Chem. Phys., 1991, 94, 1360-1366.
La(ecp-46): M. Dolg, H. Stoll, A. Savin, H. Preuss, Theor. Chim. Acta, 1989, 75, 173-194.
Lu(ecp-28): X. Cao, M. Dolg, J. Chem. Phys., 2001, 115, 7348-7355.

ECP parameters for Au [Def2-ECP] have been obtained from:
TURBOMOLE (7.0.2)

----- Orbital basis set information -----
Your calculation utilizes the basis: def2-TZVP
   F. Weigend and R. Ahlrichs, Phys. Chem. Chem. Phys. 7, 3297 (2005).

----- AuxJ basis set information -----
Your calculation utilizes the auxiliary basis: def2/J
   F. Weigend, Phys. Chem. Chem. Phys. 8, 1057 (2006).

================================================================================
                                        WARNINGS
                       Please study these warnings very carefully!
================================================================================


WARNING: your system is open-shell and RHF/RKS was chosen
  ===> : WILL SWITCH to UHF/UKS


INFO   : the flag for use of the SHARK integral package has been found!



***************************************
The coordinates will be read from file: pbe.xyz
***************************************


================================================================================

cite the ECPs for Au [Def2-ECP] as follows:
Ce-Yb(ecp-28): M. Dolg, H. Stoll, H.Preuss, J. Chem. Phys., 1989, 90, 1730-1734.
Y-Cd(ecp-28), Hf-Hg(ecp-46): D. Andrae,U. Haeussermann, M. Dolg, H. Stoll, H. Preuss, Theor. Chim. Acta, 1990, 77, 123-141.
In-Sb(ecp-28), Tl-Bi(ecp-46): B. Metz, H. Stoll, M. Dolg, J. Chem. Phys., 2000, 113, 2563-2569.
Te-Xe(ecp-28), Po-Rn(ecp-46): K. A. Peterson, D. Figgen, E. Goll, H. Stoll, M. Dolg, J. Chem. Phys., 2003, 119, 11113-11123.
Rb(ecp-28), Cs(ecp-46): T. Leininger, A. Nicklass, W. Kuechle, H. Stoll, M. Dolg, A. Bergner, Chem. Phys. Lett., 1996, 255, 274-280.
Sr(ecp-28), Ba(ecp-46): M. Kaupp, P. V. Schleyer, H. Stoll and H. Preuss, J. Chem. Phys., 1991, 94, 1360-1366.
La(ecp-46): M. Dolg, H. Stoll, A. Savin, H. Preuss, Theor. Chim. Acta, 1989, 75, 173-194.
Lu(ecp-28): X. Cao, M. Dolg, J. Chem. Phys., 2001, 115, 7348-7355.

ECP parameters for Au [Def2-ECP] have been obtained from:
TURBOMOLE (7.0.2)

----- Orbital basis set information -----
Your calculation utilizes the basis: def2-TZVP
   F. Weigend and R. Ahlrichs, Phys. Chem. Chem. Phys. 7, 3297 (2005).

----- AuxJ basis set information -----
Your calculation utilizes the auxiliary basis: def2/J
   F. Weigend, Phys. Chem. Chem. Phys. 8, 1057 (2006).

================================================================================
                                        WARNINGS
                       Please study these warnings very carefully!
================================================================================


INFO   : the flag for use of the SHARK integral package has been found!

================================================================================
                                       INPUT FILE
================================================================================
NAME = pbeSP.inp
|  1> !PBE def2-TZVP VERYSLOWCONV
|  2> 
|  3> %scf
|  4>   AutoTRAHIter 200
|  5>   maxiter 400
|  6> end
|  7> 
|  8> 
|  9> %pal nprocs 6 end 
| 10> 
| 11> *xyzfile 0 5 pbe.xyz
| 12> 
| 13> $new_job
| 14> 
| 15> !PBE def2-TZVP VERYSLOWCONV
| 16> 
| 17> %scf
| 18>   AutoTRAHIter 200
| 19>   maxiter 400
| 20> end
| 21>  
| 22> 
| 23> %pal nprocs 6 end 
| 24> 
| 25> *xyzfile 0 3 pbe.xyz
| 26> 
| 27> 
| 28> 
| 29> 
| 30> 
| 31>                          ****END OF INPUT****
================================================================================


                 $$$$$$$$$$$$$$$$$$$$$$$$$$$$$$$$$$$$$$$$$$$$$$ 
                 $ THERE ARE  2 JOBS TO BE PROCESSED THIS RUN $
                 $$$$$$$$$$$$$$$$$$$$$$$$$$$$$$$$$$$$$$$$$$$$$$ 




                 $$$$$$$$$$$$$$$$  JOB NUMBER  1 $$$$$$$$$$$$$$


                       ****************************
                       * Single Point Calculation *
                       ****************************

---------------------------------
CARTESIAN COORDINATES (ANGSTROEM)
---------------------------------
  Au     9.843594    8.388957    9.424908
  Au     7.456289    6.893656    9.674453
  Au     7.883668    8.792490    7.429436
  Au    11.013209    7.559575    6.986573
  Au    10.586251    5.664541    9.227361
  Au     9.632383    3.867225    7.524603
  Au    10.059158    5.765706    5.279146
  Au     6.931386    6.994032    5.726031
  Au     6.504332    5.099556    7.967250
  Au     7.672787    4.269569    5.528355
  Fe     8.758568    6.329987    7.477295

----------------------------
CARTESIAN COORDINATES (A.U.)
----------------------------
  NO LB      ZA    FRAG     MASS         X           Y           Z
   0 Au   19.0000*   0   196.966   18.601697   15.852832   17.810494
   1 Au   19.0000*   0   196.966   14.090344   13.027122   18.282066
   2 Au   19.0000*   0   196.966   14.897974   16.615398   14.039599
   3 Au   19.0000*   0   196.966   20.811948   14.285526   13.202709
   4 Au   19.0000*   0   196.966   20.005115   10.704431   17.437186
   5 Au   19.0000*   0   196.966   18.202567    7.307996   14.219439
   6 Au   19.0000*   0   196.966   19.009054   10.895605    9.976140
   7 Au   19.0000*   0   196.966   13.098422   13.216805   10.820631
   8 Au   19.0000*   0   196.966   12.291406    9.636764   15.055921
   9 Au   19.0000*   0   196.966   14.499467    8.068316   10.447077
  10 Fe   26.0000    0    55.850   16.551295   11.961942   14.130040
* core charge reduced due to ECP

--------------------------------
INTERNAL COORDINATES (ANGSTROEM)
--------------------------------
 Au     0   0   0     0.000000000000     0.00000000     0.00000000
 Au     1   0   0     2.827971560976     0.00000000     0.00000000
 Au     1   2   0     2.825961012538    63.40638503     0.00000000
 Au     1   2   3     2.828666112130   105.66939920   297.75524831
 Au     1   2   3     2.830725652338    73.66434543   242.51574869
 Au     5   1   2     2.653223309241   127.04447021    55.33977991
 Au     4   1   2     2.653955996704   127.16542365     0.43685943
 Au     3   1   2     2.653842107641   127.25255434   297.95165394
 Au     2   1   3     2.653216668724   127.13164981    61.84375675
 Au     6   5   1     2.826111210460   127.31247550     0.17877260
 Fe     6   5   1     2.613616323186    59.56925285     0.08939968

---------------------------
INTERNAL COORDINATES (A.U.)
---------------------------
 Au     0   0   0     0.000000000000     0.00000000     0.00000000
 Au     1   0   0     5.344091764763     0.00000000     0.00000000
 Au     1   2   0     5.340292378836    63.40638503     0.00000000
 Au     1   2   3     5.345404276229   105.66939920   297.75524831
 Au     1   2   3     5.349296243185    73.66434543   242.51574869
 Au     5   1   2     5.013865426601   127.04447021    55.33977991
 Au     4   1   2     5.015250005248   127.16542365     0.43685943
 Au     3   1   2     5.015034786110   127.25255434   297.95165394
 Au     2   1   3     5.013852877844   127.13164981    61.84375675
 Au     6   5   1     5.340576211774   127.31247550     0.17877260
 Fe     6   5   1     4.939019069969    59.56925285     0.08939968

---------------------
BASIS SET INFORMATION
---------------------
There are 2 groups of distinct atoms

 Group   1 Type Au  : 8s7p6d1f contracted to 6s4p3d1f pattern {311111/4111/411/1}
 Group   2 Type Fe  : 17s11p7d1f contracted to 6s4p4d1f pattern {842111/6311/4111/1}

Atom   0Au   basis set group =>   1
Atom   1Au   basis set group =>   1
Atom   2Au   basis set group =>   1
Atom   3Au   basis set group =>   1
Atom   4Au   basis set group =>   1
Atom   5Au   basis set group =>   1
Atom   6Au   basis set group =>   1
Atom   7Au   basis set group =>   1
Atom   8Au   basis set group =>   1
Atom   9Au   basis set group =>   1
Atom  10Fe   basis set group =>   2
---------------------------------
AUXILIARY/J BASIS SET INFORMATION
---------------------------------
There are 2 groups of distinct atoms

 Group   1 Type Au  : 11s5p5d3f3g contracted to 8s5p5d2f3g pattern {41111111/11111/11111/21/111}
 Group   2 Type Fe  : 19s5p5d3f3g contracted to 8s5p5d2f3g pattern {121111111/11111/11111/21/111}

Atom   0Au   basis set group =>   1
Atom   1Au   basis set group =>   1
Atom   2Au   basis set group =>   1
Atom   3Au   basis set group =>   1
Atom   4Au   basis set group =>   1
Atom   5Au   basis set group =>   1
Atom   6Au   basis set group =>   1
Atom   7Au   basis set group =>   1
Atom   8Au   basis set group =>   1
Atom   9Au   basis set group =>   1
Atom  10Fe   basis set group =>   2
-------------------------
ECP PARAMETER INFORMATION
-------------------------

 Group 1, Type Au ECP Def2-ECP (replacing 60 core electrons, lmax=3)

Atom   0Au   ECP group =>   1
Atom   1Au   ECP group =>   1
Atom   2Au   ECP group =>   1
Atom   3Au   ECP group =>   1
Atom   4Au   ECP group =>   1
Atom   5Au   ECP group =>   1
Atom   6Au   ECP group =>   1
Atom   7Au   ECP group =>   1
Atom   8Au   ECP group =>   1
Atom   9Au   ECP group =>   1



           ************************************************************
           *        Program running with 6 parallel MPI-processes     *
           *              working on a common directory               *
           ************************************************************
------------------------------------------------------------------------------
                           ORCA GTO INTEGRAL CALCULATION
                           -- RI-GTO INTEGRALS CHOSEN --
------------------------------------------------------------------------------
------------------------------------------------------------------------------
                   ___                                                        
                  /   \      - P O W E R E D   B Y -                         
                 /     \                                                     
                 |  |  |   _    _      __       _____    __    __             
                 |  |  |  | |  | |    /  \     |  _  \  |  |  /  |          
                  \  \/   | |  | |   /    \    | | | |  |  | /  /          
                 / \  \   | |__| |  /  /\  \   | |_| |  |  |/  /          
                |  |  |   |  __  | /  /__\  \  |    /   |      \           
                |  |  |   | |  | | |   __   |  |    \   |  |\   \          
                \     /   | |  | | |  |  |  |  | |\  \  |  | \   \       
                 \___/    |_|  |_| |__|  |__|  |_| \__\ |__|  \__/        
                                                                              
                      - O R C A' S   B I G   F R I E N D -                    
                                      &                                       
                       - I N T E G R A L  F E E D E R -                       
                                                                              
 v1 FN, 2020, v2 2021                                                         
------------------------------------------------------------------------------


Reading SHARK input file pbeSP.SHARKINP.tmp ... ok
----------------------
SHARK INTEGRAL PACKAGE
----------------------

Number of atoms                             ...     11
Number of basis functions                   ...    445
Number of shells                            ...    155
Maximum angular momentum                    ...      3
Integral batch strategy                     ... SHARK/LIBINT Hybrid
RI-J (if used) integral strategy            ... SPLIT-RIJ (Revised 2003 algorithm where possible)
Printlevel                                  ...      1
Contraction scheme used                     ... SEGMENTED contraction
Coulomb Range Separation                    ... NOT USED
Exchange Range Separation                   ... NOT USED
Finite Nucleus Model                        ... NOT USED
Auxiliary Coulomb fitting basis             ... AVAILABLE
   # of basis functions in Aux-J            ...    979
   # of shells in Aux-J                     ...    253
   Maximum angular momentum in Aux-J        ...      4
Auxiliary J/K fitting basis                 ... NOT available
Auxiliary Correlation fitting basis         ... NOT available
Auxiliary 'external' fitting basis          ... NOT available
Integral threshold                          ...     1.000000e-10
Primitive cut-off                           ...     1.000000e-11
Primitive pair pre-selection threshold      ...     1.000000e-11

Calculating pre-screening integrals         ... done (  0.1 sec) Dimension = 155
Organizing shell pair data                  ... done (  0.2 sec)
Shell pair information
Total number of shell pairs                 ...     12090
Shell pairs after pre-screening             ...     10144
Total number of primitive shell pairs       ...     33105
Primitive shell pairs kept                  ...     20563
          la=0 lb=0:   1579 shell pairs
          la=1 lb=0:   2294 shell pairs
          la=1 lb=1:    880 shell pairs
          la=2 lb=0:   2006 shell pairs
          la=2 lb=1:   1416 shell pairs
          la=2 lb=2:    582 shell pairs
          la=3 lb=0:    560 shell pairs
          la=3 lb=1:    414 shell pairs
          la=3 lb=2:    352 shell pairs
          la=3 lb=3:     61 shell pairs

Calculating one electron integrals          ... done (  0.0 sec)
Calculating ECP integrals                   ... done (  3.8 sec)
Calculating RI/J V-Matrix + Cholesky decomp.... done (  0.0 sec)
Calculating Nuclear repulsion               ... done (  0.0 sec) ENN=   3310.682360665147 Eh

SHARK setup successfully completed in   4.2 seconds

Maximum memory used throughout the entire GTOINT-calculation: 27.4 MB


           ************************************************************
           *        Program running with 6 parallel MPI-processes     *
           *              working on a common directory               *
           ************************************************************
-------------------------------------------------------------------------------
                                 ORCA SCF
-------------------------------------------------------------------------------

------------
SCF SETTINGS
------------
Hamiltonian:
 Density Functional     Method          .... DFT(GTOs)
 Exchange Functional    Exchange        .... PBE
   PBE kappa parameter   XKappa         ....  0.804000
   PBE mue parameter    XMuePBE         ....  0.219520
 Correlation Functional Correlation     .... PBE
   PBE beta parameter  CBetaPBE         ....  0.066725
 LDA part of GGA corr.  LDAOpt          .... PW91-LDA
 Gradients option       PostSCFGGA      .... off
   Density functional embedding theory  .... OFF
   NL short-range parameter             ....  6.400000
 RI-approximation to the Coulomb term is turned on
   Number of AuxJ basis functions       .... 979


General Settings:
 Integral files         IntName         .... pbeSP
 Hartree-Fock type      HFTyp           .... UHF
 Total Charge           Charge          ....    0
 Multiplicity           Mult            ....    5
 Number of Electrons    NEL             ....  216
 Basis Dimension        Dim             ....  445
 Nuclear Repulsion      ENuc            ....   3310.6823606651 Eh

Convergence Acceleration:
 DIIS                   CNVDIIS         .... on
   Start iteration      DIISMaxIt       ....     0
   Startup error        DIISStart       ....  0.200000
   # of expansion vecs  DIISMaxEq       ....     5
   Bias factor          DIISBfac        ....   1.050
   Max. coefficient     DIISMaxC        ....  10.000
 Trust-Rad. Augm. Hess. CNVTRAH         .... auto
   Auto Start mean grad. ratio tolernc. ....  1.125000
   Auto Start start iteration           ....   200
   Auto Start num. interpolation iter.  ....    10
   Max. Number of Micro iterations      ....    16
   Max. Number of Macro iterations      .... Maxiter - #DIIS iter
   Number of Davidson start vectors     ....     2
   Converg. threshold I  (grad. norm)   ....   5.000e-05
   Converg. threshold II (energy diff.) ....   1.000e-06
   Grad. Scal. Fac. for Micro threshold ....   0.100
   Minimum threshold for Micro iter.    ....   0.010
   NR start threshold (gradient norm)   ....   0.001
   Initial trust radius                 ....   0.400
   Minimum AH scaling param. (alpha)    ....   1.000
   Maximum AH scaling param. (alpha)    .... 1000.000
   Orbital update algorithm             .... Taylor
   White noise on init. David. guess    .... on
   Maximum white noise                  ....   0.010
   Quad. conv. algorithm                .... NR
 SOSCF                  CNVSOSCF        .... off
 Level Shifting         CNVShift        .... on
   Level shift para.    LevelShift      ....    0.2500
   Turn off err/grad.   ShiftErr        ....    0.0000
 Zerner damping         CNVZerner       .... off
 Static damping         CNVDamp         .... on
   Fraction old density DampFac         ....    0.9200
   Max. Damping (<1)    DampMax         ....    0.9800
   Min. Damping (>=0)   DampMin         ....    0.0000
   Turn off err/grad.   DampErr         ....    0.0030
 Fernandez-Rico         CNVRico         .... off

SCF Procedure:
 Maximum # iterations   MaxIter         ....   400
 SCF integral mode      SCFMode         .... Direct
   Integral package                     .... SHARK and LIBINT hybrid scheme
 Reset frequency        DirectResetFreq ....    20
 Integral Threshold     Thresh          ....  1.000e-10 Eh
 Primitive CutOff       TCut            ....  1.000e-11 Eh

Convergence Tolerance:
 Convergence Check Mode ConvCheckMode   .... Total+1el-Energy
 Convergence forced     ConvForced      .... 0
 Energy Change          TolE            ....  1.000e-06 Eh
 1-El. energy change                    ....  1.000e-03 Eh
 DIIS Error             TolErr          ....  1.000e-06


Diagonalization of the overlap matrix:
Smallest eigenvalue                        ... 4.977e-04
Time for diagonalization                   ...    0.030 sec
Threshold for overlap eigenvalues          ... 1.000e-08
Number of eigenvalues below threshold      ... 0
Time for construction of square roots      ...    0.012 sec
Total time needed                          ...    0.044 sec

Time for model grid setup =    0.249 sec

------------------------------
INITIAL GUESS: MODEL POTENTIAL
------------------------------
Loading Hartree-Fock densities                     ... done
  calling /media/Programs/ORCA501/orca pbeSP_atom79.inp > pbeSP_atom79.out in order to generate an atomic fitting density for atom 0 (Au with ECP) on-the-fly... 
    atom 0 (Au), assumed electronic state with S=2: 1s2 2s2 2p6 3s2 3p6 4s2 3d10 4p6 5s2 4d10 5p6 6s1 4f14 5d10           ... done
Calculating cut-offs                               ... done
Initializing the effective Hamiltonian             ... done
Setting up the integral package (SHARK)            ... done
Starting the Coulomb interaction                   ... done (   0.2 sec)
Reading the grid                                   ... done
Mapping shells                                     ... done
Starting the XC term evaluation                    ... done (   0.2 sec)
  promolecular density results
     # of electrons  =    816.011446332
     EX              =  -3712.303727809
     EC              =    -49.568103647
     EX+EC           =  -3761.871831456
Transforming the Hamiltonian                       ... done (   0.0 sec)
Diagonalizing the Hamiltonian                      ... done (   0.0 sec)
Back transforming the eigenvectors                 ... done (   0.0 sec)
Now organizing SCF variables                       ... done
                      ------------------
                      INITIAL GUESS DONE (   1.1 sec)
                      ------------------
-------------------
DFT GRID GENERATION
-------------------

General Integration Accuracy     IntAcc      ... 4.388
Radial Grid Type                 RadialGrid  ... OptM3 with GC (2021)
Angular Grid (max. ang.)         AngularGrid ... 4 (Lebedev-302)
Angular grid pruning method      GridPruning ... 4 (adaptive)
Weight generation scheme         WeightScheme... Becke
Basis function cutoff            BFCut       ... 1.0000e-10
Integration weight cutoff        WCut        ... 1.0000e-14
Angular grids for H and He will be reduced by one unit
Partially contracted basis set               ... off
Rotationally invariant grid construction     ... off

Total number of grid points                  ...   123124
Total number of batches                      ...     1929
Average number of points per batch           ...       63
Average number of grid points per atom       ...    11193
Time for grid setup =    0.890 sec

--------------
SCF ITERATIONS
--------------
ITER       Energy         Delta-E        Max-DP      RMS-DP      [F,P]     Damp
               ***  Starting incremental Fock matrix formation  ***
  0  -2619.6472791282   0.000000000000 0.31016766  0.00095889  0.3801182 0.9200
  1  -2620.4753053719  -0.828026243685 0.14555340  0.00075317  0.2638163 0.9200
                               ***Turning on DIIS***
  2  -2620.8597561708  -0.384450798879 0.07728436  0.00055850  0.2419104 0.9200
  3  -2620.9443013079  -0.084545137155 0.05450679  0.00043929  0.2218457 0.9200
  4  -2620.9029558325   0.041345475438 0.03045860  0.00037592  0.2034707 0.9200
  5  -2620.8836628527   0.019292979785 0.03898177  0.00032614  0.1865497 0.9200
  6  -2620.9701173618  -0.086454509159 0.04396602  0.00030705  0.1709240 0.9200
  7  -2621.0559994503  -0.085882088462 0.03847235  0.00028138  0.1569763 0.9200
  8  -2621.1117596885  -0.055760238145 0.02557495  0.00026349  0.1444515 0.9200
  9  -2621.1513892117  -0.039629523203 0.01663998  0.00025590  0.1327805 0.9200
 10  -2621.1766904001  -0.025301188442 0.02848954  0.00023275  0.1220342 0.9200
 11  -2621.2000411308  -0.023350730683 0.03671521  0.00021013  0.1122857 0.9200
 12  -2621.2392778973  -0.039236766559 0.03463674  0.00019894  0.1031960 0.9200
 13  -2621.2755124364  -0.036234539023 0.02801886  0.00017687  0.0947699 0.9200
 14  -2621.3033142792  -0.027801842825 0.02191620  0.00016424  0.0870804 0.9200
 15  -2621.3275863267  -0.024272047517 0.02201855  0.00015642  0.0800024 0.9200
 16  -2621.3473077913  -0.019721464582 0.02609368  0.00014099  0.0736012 0.9200
 17  -2621.3672090428  -0.019901251470 0.02575380  0.00013232  0.0677415 0.9200
 18  -2621.3893129864  -0.022103943606 0.02280210  0.00012133  0.0622367 0.9200
 19  -2621.4082232024  -0.018910216043 0.01874303  0.00011077  0.0571795 0.9200
               *** Restarting incremental Fock matrix formation ***
                                   *** Resetting DIIS ***
 20  -2621.4252730822  -0.017049879756 0.01611426  0.00010373  0.0525391 0.9200
 21  -2621.4410816110  -0.015808528839 0.01519965  0.00009785  0.0482211 0.9200
 22  -2621.4557726740  -0.014691062984 0.01560816  0.00009426  0.0442877 0.9200
 23  -2621.4694366591  -0.013663985156 0.01582024  0.00009388  0.0407163 0.9200
 24  -2621.4822062640  -0.012769604819 0.01494417  0.00009846  0.0374468 0.9200
 25  -2621.4942781202  -0.012071856218 0.01369826  0.00010909  0.0344431 0.9200
 26  -2621.5058593232  -0.011581202999 0.01259224  0.00012522  0.0316676 0.9200
 27  -2621.5171505298  -0.011291206657 0.01264303  0.00014427  0.0291147 0.9200
 28  -2621.5283140060  -0.011163476175 0.01249065  0.00016230  0.0267708 0.9200
 29  -2621.5394150483  -0.011101042291 0.01476379  0.00017574  0.0246170 0.9200
 30  -2621.5504035928  -0.010988544542 0.01649868  0.00018314  0.0226375 0.9200
 31  -2621.5611415580  -0.010737965184 0.01723530  0.00018476  0.0208160 0.9200
 32  -2621.5714849240  -0.010343366015 0.01721505  0.00018196  0.0191396 0.9200
 33  -2621.5813252272  -0.009840303210 0.01672880  0.00017627  0.0175981 0.9200
 34  -2621.5906026112  -0.009277383994 0.01596806  0.00016886  0.0161822 0.9200
 35  -2621.5992938138  -0.008691202520 0.01503013  0.00016038  0.0148814 0.9200
 36  -2621.6073967460  -0.008102932200 0.01402139  0.00015135  0.0136854 0.9200
 37  -2621.6149282697  -0.007531523723 0.01303331  0.00014224  0.0125843 0.9200
 38  -2621.6219166936  -0.006988423890 0.01208952  0.00013329  0.0115718 0.9200
 39  -2621.6283943523  -0.006477658769 0.01115723  0.00012449  0.0106419 0.9200
               *** Restarting incremental Fock matrix formation ***
                                   *** Resetting DIIS ***
 40  -2621.6343914259  -0.005997073515 0.01032793  0.00011593  0.0097872 0.9200
 41  -2621.6399540339  -0.005562608085 0.00953602  0.00010775  0.0089843 0.9200
 42  -2621.6450951518  -0.005141117865 0.00877872  0.00009992  0.0082496 0.9200
 43  -2621.6498420724  -0.004746920558 0.00808493  0.00009268  0.0075810 0.9200
 44  -2621.6542245564  -0.004382484012 0.00742534  0.00008602  0.0069719 0.9200
 45  -2621.6582712299  -0.004046673498 0.00680549  0.00007986  0.0064141 0.9200
 46  -2621.6620104054  -0.003739175538 0.00623176  0.00007414  0.0058996 0.9200
 47  -2621.6654650332  -0.003454627764 0.00572078  0.00006884  0.0054252 0.9200
 48  -2621.6686566038  -0.003191570603 0.00526257  0.00006394  0.0049887 0.9200
 49  -2621.6716056520  -0.002949048244 0.00493412  0.00005938  0.0045879 0.9200
 50  -2621.6743298576  -0.002724205556 0.00467427  0.00005515  0.0042194 0.9200
 51  -2621.6768465060  -0.002516648396 0.00443525  0.00005130  0.0038804 0.9200
 52  -2621.6791717956  -0.002325289640 0.00421209  0.00004783  0.0035686 0.9200
 53  -2621.6813207790  -0.002148983410 0.00400282  0.00004466  0.0032821 0.9200
 54  -2621.6833065735  -0.001985794511 0.00380846  0.00004176  0.0030185 0.9200
 55  -2621.6851413449  -0.001834771386 0.04537162  0.00048915  0.0027759 0.0000
 56  -2621.7066584044  -0.021517059431 0.00159474  0.00002837  0.0009312 0.0000
 57  -2621.7066737022  -0.000015297841 0.00013153  0.00000210  0.0030888 0.9200
 58  -2621.7066810587  -0.000007356521 0.00312376  0.00004925  0.0029753 0.0000
 59  -2621.7068190363  -0.000137977555 0.00163474  0.00002568  0.0013568 0.0000
               *** Restarting incremental Fock matrix formation ***
                                   *** Resetting DIIS ***
 60  -2621.7068797630  -0.000060726706 0.00176019  0.00002880  0.0008080 0.0000
 61  -2621.7068771965   0.000002566464 0.00012961  0.00000210  0.0031298 0.9200
 62  -2621.7068853585  -0.000008161987 0.00024823  0.00000399  0.0030100 0.9200
 63  -2621.7068987607  -0.000013402222 0.00446246  0.00007163  0.0028443 0.0000
 64  -2621.7070886471  -0.000189886332 0.00159915  0.00002587  0.0006731 0.0000
 65  -2621.7071430548  -0.000054407741 0.00149941  0.00002827  0.0004505 0.0000
 66  -2621.7071940101  -0.000050955276 0.00165070  0.00002620  0.0004640 0.0000
 67  -2621.7072523560  -0.000058345933 0.00163118  0.00002613  0.0004926 0.0000
 68  -2621.7073062939  -0.000053937889 0.00158252  0.00002594  0.0004046 0.0000
 69  -2621.7073592673  -0.000052973378 0.00157289  0.00002594  0.0003934 0.0000
 70  -2621.7074119681  -0.000052700779 0.00157001  0.00002626  0.0003819 0.0000
 71  -2621.7074663678  -0.000054399769 0.00156509  0.00002604  0.0003877 0.0000
 72  -2621.7075193963  -0.000053028447 0.00153915  0.00002594  0.0003832 0.0000
 73  -2621.7075726633  -0.000053266984 0.00153522  0.00002636  0.0003943 0.0000
 74  -2621.7076261328  -0.000053469576 0.00153543  0.00002593  0.0004122 0.0000
 75  -2621.7076787507  -0.000052617863 0.00151321  0.00002596  0.0004006 0.0000
 76  -2621.7077313959  -0.000052645205 0.00150186  0.00002596  0.0003954 0.0000
 77  -2621.7077836212  -0.000052225332 0.00147762  0.00002577  0.0004095 0.0000
 78  -2621.7078351924  -0.000051571164 0.00146193  0.00002559  0.0003898 0.0000
 79  -2621.7078861293  -0.000050936932 0.00143793  0.00002547  0.0003864 0.0000
               *** Restarting incremental Fock matrix formation ***
                                   *** Resetting DIIS ***
 80  -2621.7079364855  -0.000050356131 0.00140671  0.00002547  0.0003843 0.0000
 81  -2621.7079866521  -0.000050166635 0.00141731  0.00002528  0.0004026 0.0000
 82  -2621.7080362197  -0.000049567562 0.00138329  0.00002516  0.0003938 0.0000
 83  -2621.7080853606  -0.000049140950 0.00135585  0.00002494  0.0003774 0.0000
 84  -2621.7081339391  -0.000048578498 0.00132882  0.00002516  0.0003831 0.0000
 85  -2621.7081818064  -0.000047867331 0.00131722  0.00002465  0.0003952 0.0000
 86  -2621.7082291542  -0.000047347748 0.00129276  0.00002455  0.0003884 0.0000
 87  -2621.7082755623  -0.000046408157 0.00127071  0.00002431  0.0003781 0.0000
 88  -2621.7083212895  -0.000045727183 0.00122547  0.00002399  0.0003764 0.0000
 89  -2621.7083656704  -0.000044380873 0.00120155  0.00002378  0.0003768 0.0000
 90  -2621.7084096200  -0.000043949566 0.00117061  0.00002343  0.0003579 0.0000
 91  -2621.7084526021  -0.000042982143 0.00120252  0.00002357  0.0003606 0.0000
 92  -2621.7084942179  -0.000041615814 0.00113471  0.00002312  0.0003790 0.0000
 93  -2621.7085358398  -0.000041621858 0.00126065  0.00002321  0.0003588 0.0000
 94  -2621.7085758530  -0.000040013216 0.00112823  0.00002262  0.0003632 0.0000
 95  -2621.7086156754  -0.000039822450 0.00126010  0.00002284  0.0003502 0.0000
 96  -2621.7086533187  -0.000037643220 0.00113277  0.00002206  0.0003631 0.0000
 97  -2621.7086915704  -0.000038251788 0.00117685  0.00002192  0.0003478 0.0000
 98  -2621.7087275328  -0.000035962342 0.00114875  0.00002150  0.0003413 0.0000
 99  -2621.7087637866  -0.000036253809 0.00122920  0.00002171  0.0003273 0.0000
               *** Restarting incremental Fock matrix formation ***
                                   *** Resetting DIIS ***
100  -2621.7087988301  -0.000035043499 0.00113061  0.00002192  0.0003466 0.0000
101  -2621.7088319832  -0.000033153088 0.00115586  0.00002070  0.0003020 0.0000
102  -2621.7088658622  -0.000033878995 0.00115561  0.00002025  0.0003075 0.0000
103  -2621.7088975661  -0.000031703954 0.00110115  0.00001990  0.0002991 0.0000
104  -2621.7089283403  -0.000030774156 0.00113954  0.00001968  0.0003004 0.0000
105  -2621.7089583800  -0.000030039716 0.00108639  0.00001933  0.0003046 0.0000
106  -2621.7089871961  -0.000028816090 0.00111648  0.00001934  0.0002979 0.0000
107  -2621.7090150263  -0.000027830245 0.00107078  0.00001876  0.0003007 0.0000
108  -2621.7090422361  -0.000027209780 0.00106136  0.00001863  0.0002858 0.0000
109  -2621.7090674103  -0.000025174134 0.00104977  0.00001814  0.0003255 0.0000
110  -2621.7090936162  -0.000026205977 0.00112580  0.00001822  0.0002801 0.0000
111  -2621.7091161867  -0.000022570471 0.00097186  0.00001770  0.0002887 0.0000
112  -2621.7091410845  -0.000024897751 0.00102237  0.00001721  0.0002697 0.0000
113  -2621.7091635902  -0.000022505721 0.00097963  0.00001693  0.0002673 0.0000
114  -2621.7091853998  -0.000021809668 0.00102967  0.00001663  0.0002644 0.0000
115  -2621.7092066878  -0.000021287919 0.00097769  0.00001628  0.0002552 0.0000
116  -2621.7092259493  -0.000019261583 0.00091954  0.00001619  0.0002681 0.0000
117  -2621.7092462152  -0.000020265885 0.00096949  0.00001588  0.0002454 0.0000
118  -2621.7092643685  -0.000018153278 0.00090672  0.00001547  0.0002526 0.0000
119  -2621.7092829140  -0.000018545462 0.00096047  0.00001528  0.0002371 0.0000
               *** Restarting incremental Fock matrix formation ***
                                   *** Resetting DIIS ***
120  -2621.7093010097  -0.000018095759 0.00084706  0.00001539  0.0002375 0.0000
121  -2621.7093172384  -0.000016228649 0.00091249  0.00001455  0.0002254 0.0000
122  -2621.7093339149  -0.000016676503 0.00085351  0.00001410  0.0002155 0.0000
123  -2621.7093491996  -0.000015284741 0.00084474  0.00001373  0.0002149 0.0000
124  -2621.7093641032  -0.000014903567 0.00083336  0.00001361  0.0002109 0.0000
125  -2621.7093779922  -0.000013888966 0.00078688  0.00001336  0.0002171 0.0000
126  -2621.7093916911  -0.000013698985 0.00084417  0.00001347  0.0002038 0.0000
127  -2621.7094040857  -0.000012394523 0.00075823  0.00001290  0.0002126 0.0000
128  -2621.7094172730  -0.000013187359 0.00078724  0.00001287  0.0001972 0.0000
129  -2621.7094285939  -0.000011320911 0.00074473  0.00001222  0.0002067 0.0000
130  -2621.7094406195  -0.000012025551 0.00071945  0.00001217  0.0001938 0.0000
131  -2621.7094515698  -0.000010950311 0.00073549  0.00001174  0.0001859 0.0000
132  -2621.7094622566  -0.000010686755 0.00074431  0.00001174  0.0001833 0.0000
133  -2621.7094711604  -0.000008903850 0.00065371  0.00001139  0.0001915 0.0000
134  -2621.7094816761  -0.000010515667 0.00069520  0.00001119  0.0001777 0.0000
135  -2621.7094908354  -0.000009159355 0.00066134  0.00001086  0.0001698 0.0000
136  -2621.7094997682  -0.000008932818 0.00065969  0.00001052  0.0001619 0.0000
137  -2621.7095083211  -0.000008552865 0.00062522  0.00001016  0.0001616 0.0000
138  -2621.7095164225  -0.000008101420 0.00061794  0.00001003  0.0001586 0.0000
139  -2621.7095238100  -0.000007387438 0.00058957  0.00001004  0.0001627 0.0000
               *** Restarting incremental Fock matrix formation ***
                                   *** Resetting DIIS ***
140  -2621.7095317444  -0.000007934404 0.00059787  0.00000963  0.0001494 0.0000
141  -2621.7095385517  -0.000006807310 0.00057680  0.00000940  0.0001517 0.0000
142  -2621.7095453396  -0.000006787948 0.00055613  0.00000918  0.0001417 0.0000
143  -2621.7095517899  -0.000006450240 0.00056137  0.00000893  0.0001400 0.0000
144  -2621.7095579423  -0.000006152463 0.00052998  0.00000878  0.0001406 0.0000
145  -2621.7095638711  -0.000005928762 0.00052848  0.00000861  0.0001392 0.0000
146  -2621.7095695112  -0.000005640117 0.00050719  0.00000846  0.0001345 0.0000
147  -2621.7095748133  -0.000005302131 0.00050067  0.00000821  0.0001252 0.0000
148  -2621.7095799979  -0.000005184516 0.00049059  0.00000786  0.0001261 0.0000
149  -2621.7095848442  -0.000004846365 0.00046238  0.00000771  0.0001257 0.0000
150  -2621.7095894961  -0.000004651915 0.00047251  0.00000764  0.0001231 0.0000
151  -2621.7095939923  -0.000004496118 0.00045069  0.00000758  0.0001203 0.0000
152  -2621.7095983226  -0.000004330301 0.00044886  0.00000728  0.0001130 0.0000
153  -2621.7096023737  -0.000004051138 0.00043481  0.00000702  0.0001141 0.0000
154  -2621.7096061056  -0.000003731925 0.00040741  0.00000695  0.0001112 0.0000
155  -2621.7096099558  -0.000003850183 0.00043965  0.00000690  0.0001081 0.0000
156  -2621.7096132374  -0.000003281601 0.00039536  0.00000680  0.0001129 0.0000
157  -2621.7096168695  -0.000003632093 0.00040244  0.00000646  0.0001022 0.0000
158  -2621.7096200130  -0.000003143460 0.00038340  0.00000632  0.0001035 0.0000
159  -2621.7096231049  -0.000003091957 0.00037923  0.00000626  0.0000965 0.0000
               *** Restarting incremental Fock matrix formation ***
                                   *** Resetting DIIS ***
160  -2621.7096260806  -0.000002975742 0.00040021  0.00000639  0.0000965 0.0000
161  -2621.7096280364  -0.000001955724 0.00035356  0.00000595  0.0003761 0.0000
162  -2621.7096313751  -0.000003338692 0.00034018  0.00000572  0.0001514 0.0000
163  -2621.7096339973  -0.000002622215 0.00033294  0.00000553  0.0000857 0.0000
164  -2621.7096364503  -0.000002452975 0.00032223  0.00000549  0.0000883 0.0000
165  -2621.7096387074  -0.000002257133 0.00032620  0.00000536  0.0000851 0.0000
166  -2621.7096409515  -0.000002244135 0.00031552  0.00000516  0.0000813 0.0000
167  -2621.7096430433  -0.000002091731 0.00030711  0.00000509  0.0000808 0.0000
168  -2621.7096451236  -0.000002080392 0.00030105  0.00000498  0.0000807 0.0000
169  -2621.7096469542  -0.000001830517 0.00029338  0.00000504  0.0000816 0.0000
170  -2621.7096488351  -0.000001880977 0.00029841  0.00000475  0.0000736 0.0000
171  -2621.7096506937  -0.000001858595 0.00027432  0.00000457  0.0000727 0.0000
172  -2621.7096523790  -0.000001685280 0.00026617  0.00000450  0.0000732 0.0000
173  -2621.7096540172  -0.000001638194 0.00027485  0.00000442  0.0000710 0.0000
174  -2621.7096555636  -0.000001546362 0.00025691  0.00000436  0.0000698 0.0000
175  -2621.7096570236  -0.000001460009 0.00026217  0.00000416  0.0000647 0.0000
176  -2621.7096584475  -0.000001423901 0.00023845  0.00000406  0.0000650 0.0000
177  -2621.7096598130  -0.000001365506 0.00024323  0.00000397  0.0000637 0.0000
178  -2621.7096610026  -0.000001189568 0.00023077  0.00000393  0.0000625 0.0000
179  -2621.7096622250  -0.000001222463 0.00027007  0.00000412  0.0000605 0.0000
               *** Restarting incremental Fock matrix formation ***
                                   *** Resetting DIIS ***
180  -2621.7096629533  -0.000000728237 0.00026042  0.00000399  0.0000584 0.0000
181  -2621.7096640063  -0.000001053033 0.00022404  0.00000369  0.0000604 0.0000
182  -2621.7096650496  -0.000001043280 0.00021293  0.00000356  0.0000557 0.0000
183  -2621.7096660954  -0.000001045801 0.00021145  0.00000343  0.0000547 0.0000
184  -2621.7096669951  -0.000000899700 0.00019919  0.00000338  0.0000537 0.0000
                 **** Energy Check signals convergence ****

               *****************************************************
               *                     SUCCESS                       *
               *           SCF CONVERGED AFTER 185 CYCLES          *
               *****************************************************


----------------
TOTAL SCF ENERGY
----------------

Total Energy       :        -2621.70966793 Eh          -71340.34694 eV

Components:
Nuclear Repulsion  :         3310.68236067 Eh           90088.24703 eV
Electronic Energy  :        -5932.39202860 Eh         -161428.59397 eV
One Electron Energy:       -10745.80747040 Eh         -292408.28702 eV
Two Electron Energy:         4813.41544180 Eh          130979.69305 eV

Virial components:
Potential Energy   :        -4341.24755053 Eh         -118131.35153 eV
Kinetic Energy     :         1719.53788260 Eh           46791.00459 eV
Virial Ratio       :            2.52465944


DFT components:
N(Alpha)           :      110.000040416773 electrons
N(Beta)            :      106.000041554055 electrons
N(Total)           :      216.000081970829 electrons
E(X)               :     -174.774433989224 Eh       
E(C)               :       -9.408120570313 Eh       
E(XC)              :     -184.182554559537 Eh       
DFET-embed. en.    :        0.000000000000 Eh       

---------------
SCF CONVERGENCE
---------------

  Last Energy change         ...   -9.3761e-07  Tolerance :   1.0000e-06
  Last MAX-Density change    ...    1.9740e-04  Tolerance :   1.0000e-05
  Last RMS-Density change    ...    3.3065e-06  Tolerance :   1.0000e-06
  Last DIIS Error            ...    5.3229e-05  Tolerance :   1.0000e-06

             **** THE GBW FILE WAS UPDATED (pbeSP.gbw) ****
             **** DENSITY pbeSP.scfp WAS UPDATED ****
             **** ENERGY FILE WAS UPDATED (pbeSP.en.tmp) ****
----------------------
UHF SPIN CONTAMINATION
----------------------

Warning: in a DFT calculation there is little theoretical justification to 
         calculate <S**2> as in Hartree-Fock theory. We will do it anyways
         but you should keep in mind that the values have only limited relevance

Expectation value of <S**2>     :     6.403693
Ideal value S*(S+1) for S=2.0   :     6.000000
Deviation                       :     0.403693

             **** THE GBW FILE WAS UPDATED (pbeSP.gbw) ****
             **** DENSITY pbeSP.scfp WAS UPDATED ****
----------------
ORBITAL ENERGIES
----------------
                 SPIN UP ORBITALS
  NO   OCC          E(Eh)            E(eV) 
   0   1.0000    -254.773607     -6932.7423 
   1   1.0000     -29.618610      -805.9633 
   2   1.0000     -25.556834      -695.4368 
   3   1.0000     -25.551948      -695.3039 
   4   1.0000     -25.551148      -695.2821 
   5   1.0000      -4.022086      -109.4465 
   6   1.0000      -4.022054      -109.4457 
   7   1.0000      -4.022030      -109.4450 
   8   1.0000      -4.022001      -109.4442 
   9   1.0000      -4.021626      -109.4340 
  10   1.0000      -4.021576      -109.4326 
  11   1.0000      -4.021307      -109.4253 
  12   1.0000      -4.021284      -109.4247 
  13   1.0000      -4.021262      -109.4241 
  14   1.0000      -4.021242      -109.4236 
  15   1.0000      -3.396321       -92.4186 
  16   1.0000      -2.241415       -60.9920 
  17   1.0000      -2.241277       -60.9882 
  18   1.0000      -2.241150       -60.9848 
  19   1.0000      -2.240864       -60.9770 
  20   1.0000      -2.238846       -60.9221 
  21   1.0000      -2.238255       -60.9060 
  22   1.0000      -2.238185       -60.9041 
  23   1.0000      -2.237913       -60.8967 
  24   1.0000      -2.237614       -60.8886 
  25   1.0000      -2.237386       -60.8824 
  26   1.0000      -2.237139       -60.8756 
  27   1.0000      -2.236318       -60.8533 
  28   1.0000      -2.235680       -60.8360 
  29   1.0000      -2.235221       -60.8235 
  30   1.0000      -2.235032       -60.8183 
  31   1.0000      -2.234098       -60.7929 
  32   1.0000      -2.233651       -60.7807 
  33   1.0000      -2.233360       -60.7728 
  34   1.0000      -2.233011       -60.7633 
  35   1.0000      -2.232959       -60.7619 
  36   1.0000      -2.232462       -60.7484 
  37   1.0000      -2.232282       -60.7435 
  38   1.0000      -2.230190       -60.6866 
  39   1.0000      -2.230052       -60.6828 
  40   1.0000      -2.229740       -60.6743 
  41   1.0000      -2.229611       -60.6708 
  42   1.0000      -2.228976       -60.6535 
  43   1.0000      -2.228850       -60.6501 
  44   1.0000      -2.228586       -60.6429 
  45   1.0000      -2.228478       -60.6400 
  46   1.0000      -2.216237       -60.3069 
  47   1.0000      -2.206151       -60.0324 
  48   1.0000      -2.205038       -60.0021 
  49   1.0000      -0.420332       -11.4378 
  50   1.0000      -0.374585       -10.1930 
  51   1.0000      -0.370286       -10.0760 
  52   1.0000      -0.366598        -9.9756 
  53   1.0000      -0.364069        -9.9068 
  54   1.0000      -0.362690        -9.8693 
  55   1.0000      -0.358468        -9.7544 
  56   1.0000      -0.357875        -9.7383 
  57   1.0000      -0.351962        -9.5774 
  58   1.0000      -0.350158        -9.5283 
  59   1.0000      -0.345560        -9.4032 
  60   1.0000      -0.342018        -9.3068 
  61   1.0000      -0.335904        -9.1404 
  62   1.0000      -0.334837        -9.1114 
  63   1.0000      -0.326393        -8.8816 
  64   1.0000      -0.325506        -8.8575 
  65   1.0000      -0.320947        -8.7334 
  66   1.0000      -0.320677        -8.7261 
  67   1.0000      -0.314428        -8.5560 
  68   1.0000      -0.312821        -8.5123 
  69   1.0000      -0.312365        -8.4999 
  70   1.0000      -0.307433        -8.3657 
  71   1.0000      -0.306937        -8.3522 
  72   1.0000      -0.301905        -8.2152 
  73   1.0000      -0.300923        -8.1885 
  74   1.0000      -0.297583        -8.0976 
  75   1.0000      -0.296020        -8.0551 
  76   1.0000      -0.292411        -7.9569 
  77   1.0000      -0.291016        -7.9190 
  78   1.0000      -0.283989        -7.7277 
  79   1.0000      -0.283891        -7.7251 
  80   1.0000      -0.283296        -7.7089 
  81   1.0000      -0.279866        -7.6155 
  82   1.0000      -0.276307        -7.5187 
  83   1.0000      -0.271538        -7.3889 
  84   1.0000      -0.271221        -7.3803 
  85   1.0000      -0.270901        -7.3716 
  86   1.0000      -0.268963        -7.3189 
  87   1.0000      -0.267098        -7.2681 
  88   1.0000      -0.266042        -7.2394 
  89   1.0000      -0.264371        -7.1939 
  90   1.0000      -0.259587        -7.0637 
  91   1.0000      -0.259176        -7.0525 
  92   1.0000      -0.258669        -7.0387 
  93   1.0000      -0.258071        -7.0225 
  94   1.0000      -0.257406        -7.0044 
  95   1.0000      -0.253718        -6.9040 
  96   1.0000      -0.253220        -6.8905 
  97   1.0000      -0.250306        -6.8112 
  98   1.0000      -0.250286        -6.8106 
  99   1.0000      -0.248370        -6.7585 
 100   1.0000      -0.248186        -6.7535 
 101   1.0000      -0.246629        -6.7111 
 102   1.0000      -0.243468        -6.6251 
 103   1.0000      -0.242836        -6.6079 
 104   1.0000      -0.241243        -6.5645 
 105   1.0000      -0.240911        -6.5555 
 106   1.0000      -0.232166        -6.3176 
 107   1.0000      -0.228273        -6.2116 
 108   1.0000      -0.193530        -5.2662 
 109   1.0000      -0.183783        -5.0010 
 110   0.0000      -0.179361        -4.8807 
 111   0.0000      -0.164208        -4.4683 
 112   0.0000      -0.121475        -3.3055 
 113   0.0000      -0.107508        -2.9255 
 114   0.0000      -0.106561        -2.8997 
 115   0.0000      -0.081401        -2.2150 
 116   0.0000      -0.067628        -1.8403 
 117   0.0000      -0.058381        -1.5886 
 118   0.0000      -0.058303        -1.5865 
 119   0.0000      -0.056380        -1.5342 
 120   0.0000      -0.053878        -1.4661 
 121   0.0000      -0.015328        -0.4171 
 122   0.0000      -0.008467        -0.2304 
 123   0.0000      -0.001401        -0.0381 
 124   0.0000       0.015354         0.4178 
 125   0.0000       0.015371         0.4183 
 126   0.0000       0.019019         0.5175 
 127   0.0000       0.019954         0.5430 
 128   0.0000       0.042037         1.1439 
 129   0.0000       0.042703         1.1620 
 130   0.0000       0.045680         1.2430 
 131   0.0000       0.049422         1.3448 
 132   0.0000       0.054812         1.4915 
 133   0.0000       0.056514         1.5378 
 134   0.0000       0.064310         1.7500 
 135   0.0000       0.070039         1.9058 
 136   0.0000       0.073678         2.0049 
 137   0.0000       0.074912         2.0385 
 138   0.0000       0.090784         2.4704 
 139   0.0000       0.091154         2.4804 
 140   0.0000       0.096589         2.6283 
 141   0.0000       0.125740         3.4215 
 142   0.0000       0.131469         3.5774 
 143   0.0000       0.131918         3.5897 
 144   0.0000       0.136616         3.7175 
 145   0.0000       0.144991         3.9454 
 146   0.0000       0.149552         4.0695 
 147   0.0000       0.161157         4.3853 
 148   0.0000       0.165745         4.5101 
 149   0.0000       0.168933         4.5969 
 150   0.0000       0.172258         4.6874 
 151   0.0000       0.182506         4.9662 
 152   0.0000       0.188739         5.1359 
 153   0.0000       0.195285         5.3140 
 154   0.0000       0.209749         5.7076 
 155   0.0000       0.211333         5.7507 
 156   0.0000       0.213701         5.8151 
 157   0.0000       0.218811         5.9541 
 158   0.0000       0.223600         6.0845 
 159   0.0000       0.229871         6.2551 
 160   0.0000       0.237293         6.4571 
 161   0.0000       0.242529         6.5996 
 162   0.0000       0.250394         6.8136 
 163   0.0000       0.256260         6.9732 
 164   0.0000       0.265608         7.2276 
 165   0.0000       0.277647         7.5552 
 166   0.0000       0.279024         7.5926 
 167   0.0000       0.283776         7.7219 
 168   0.0000       0.284541         7.7428 
 169   0.0000       0.287826         7.8321 
 170   0.0000       0.297233         8.0881 
 171   0.0000       0.298891         8.1332 
 172   0.0000       0.305646         8.3171 
 173   0.0000       0.308398         8.3919 
 174   0.0000       0.319393         8.6911 
 175   0.0000       0.319985         8.7072 
 176   0.0000       0.323475         8.8022 
 177   0.0000       0.332232         9.0405 
 178   0.0000       0.343916         9.3584 
 179   0.0000       0.358007         9.7419 
 180   0.0000       0.359549         9.7838 
 181   0.0000       0.368616        10.0306 
 182   0.0000       0.370011        10.0685 
 183   0.0000       0.373660        10.1678 
 184   0.0000       0.377464        10.2713 
 185   0.0000       0.379757        10.3337 
 186   0.0000       0.380426        10.3519 
 187   0.0000       0.398658        10.8480 
 188   0.0000       0.401831        10.9344 
 189   0.0000       0.403912        10.9910 
 190   0.0000       0.405076        11.0227 
 191   0.0000       0.414501        11.2792 
 192   0.0000       0.417858        11.3705 
 193   0.0000       0.419122        11.4049 
 194   0.0000       0.423567        11.5258 
 195   0.0000       0.435684        11.8556 
 196   0.0000       0.451241        12.2789 
 197   0.0000       0.456490        12.4217 
 198   0.0000       0.480328        13.0704 
 199   0.0000       0.480892        13.0857 
 200   0.0000       0.485395        13.2083 
 201   0.0000       0.487242        13.2585 
 202   0.0000       0.493139        13.4190 
 203   0.0000       0.493491        13.4286 
 204   0.0000       0.496208        13.5025 
 205   0.0000       0.498449        13.5635 
 206   0.0000       0.502228        13.6663 
 207   0.0000       0.508919        13.8484 
 208   0.0000       0.509992        13.8776 
 209   0.0000       0.513092        13.9619 
 210   0.0000       0.527991        14.3674 
 211   0.0000       0.534431        14.5426 
 212   0.0000       0.536725        14.6050 
 213   0.0000       0.544094        14.8055 
 214   0.0000       0.602579        16.3970 
 215   0.0000       0.622460        16.9380 
 216   0.0000       0.640350        17.4248 
 217   0.0000       0.664098        18.0710 
 218   0.0000       0.676317        18.4035 
 219   0.0000       0.683300        18.5935 
 220   0.0000       0.683901        18.6099 
 221   0.0000       0.684499        18.6262 
 222   0.0000       0.694692        18.9035 
 223   0.0000       0.696856        18.9624 
 224   0.0000       0.704392        19.1675 
 225   0.0000       0.728037        19.8109 
 226   0.0000       0.741120        20.1669 
 227   0.0000       0.754189        20.5225 
 228   0.0000       0.760014        20.6810 
 229   0.0000       0.770606        20.9693 
 230   0.0000       0.784040        21.3348 
 231   0.0000       0.801716        21.8158 
 232   0.0000       0.810234        22.0476 
 233   0.0000       0.841951        22.9106 
 234   0.0000       0.847980        23.0747 
 235   0.0000       0.855125        23.2691 
 236   0.0000       0.863431        23.4952 
 237   0.0000       0.867503        23.6059 
 238   0.0000       0.888786        24.1851 
 239   0.0000       0.893672        24.3181 
 240   0.0000       0.918108        24.9830 
 241   0.0000       0.940800        25.6005 
 242   0.0000       1.010698        27.5025 
 243   0.0000       1.014648        27.6100 
 244   0.0000       1.022347        27.8195 
 245   0.0000       1.090433        29.6722 
 246   0.0000       1.178220        32.0610 
 247   0.0000       1.204339        32.7717 
 248   0.0000       1.216758        33.1097 
 249   0.0000       1.263804        34.3899 
 250   0.0000       1.267808        34.4988 
 251   0.0000       1.269525        34.5455 
 252   0.0000       1.280729        34.8504 
 253   0.0000       1.281851        34.8809 
 254   0.0000       1.292417        35.1685 
 255   0.0000       1.301707        35.4213 
 256   0.0000       1.320764        35.9398 
 257   0.0000       1.326769        36.1032 
 258   0.0000       1.328324        36.1455 
 259   0.0000       1.332657        36.2634 
 260   0.0000       1.349591        36.7242 
 261   0.0000       1.350848        36.7584 
 262   0.0000       1.361315        37.0433 
 263   0.0000       1.366849        37.1938 
 264   0.0000       1.382365        37.6161 
 265   0.0000       1.385688        37.7065 
 266   0.0000       1.389383        37.8070 
 267   0.0000       1.392893        37.9026 
 268   0.0000       1.405219        38.2380 
 269   0.0000       1.406027        38.2599 
 270   0.0000       1.419936        38.6384 
 271   0.0000       1.420100        38.6429 
 272   0.0000       1.426707        38.8227 
 273   0.0000       1.428425        38.8694 
 274   0.0000       1.432152        38.9708 
 275   0.0000       1.449525        39.4436 
 276   0.0000       1.457101        39.6497 
 277   0.0000       1.458380        39.6845 
 278   0.0000       1.461560        39.7711 
 279   0.0000       1.464012        39.8378 
 280   0.0000       1.465221        39.8707 
 281   0.0000       1.467244        39.9257 
 282   0.0000       1.469646        39.9911 
 283   0.0000       1.471090        40.0304 
 284   0.0000       1.475943        40.1624 
 285   0.0000       1.479085        40.2479 
 286   0.0000       1.481735        40.3200 
 287   0.0000       1.485530        40.4233 
 288   0.0000       1.485629        40.4260 
 289   0.0000       1.487720        40.4829 
 290   0.0000       1.489990        40.5447 
 291   0.0000       1.490433        40.5567 
 292   0.0000       1.490698        40.5639 
 293   0.0000       1.495573        40.6966 
 294   0.0000       1.496481        40.7213 
 295   0.0000       1.497444        40.7475 
 296   0.0000       1.498145        40.7666 
 297   0.0000       1.500605        40.8335 
 298   0.0000       1.501868        40.8679 
 299   0.0000       1.502202        40.8770 
 300   0.0000       1.508437        41.0467 
 301   0.0000       1.509805        41.0839 
 302   0.0000       1.509873        41.0857 
 303   0.0000       1.510910        41.1140 
 304   0.0000       1.514505        41.2118 
 305   0.0000       1.517783        41.3010 
 306   0.0000       1.525655        41.5152 
 307   0.0000       1.527130        41.5553 
 308   0.0000       1.527157        41.5561 
 309   0.0000       1.527455        41.5642 
 310   0.0000       1.528200        41.5844 
 311   0.0000       1.535215        41.7753 
 312   0.0000       1.536722        41.8163 
 313   0.0000       1.538159        41.8554 
 314   0.0000       1.539042        41.8795 
 315   0.0000       1.540970        41.9319 
 316   0.0000       1.545193        42.0468 
 317   0.0000       1.548690        42.1420 
 318   0.0000       1.550225        42.1838 
 319   0.0000       1.551531        42.2193 
 320   0.0000       1.552543        42.2468 
 321   0.0000       1.553220        42.2653 
 322   0.0000       1.560654        42.4675 
 323   0.0000       1.563570        42.5469 
 324   0.0000       1.567072        42.6422 
 325   0.0000       1.568210        42.6732 
 326   0.0000       1.569651        42.7124 
 327   0.0000       1.569874        42.7184 
 328   0.0000       1.573253        42.8104 
 329   0.0000       1.573821        42.8258 
 330   0.0000       1.575034        42.8588 
 331   0.0000       1.578900        42.9641 
 332   0.0000       1.585253        43.1369 
 333   0.0000       1.585535        43.1446 
 334   0.0000       1.588533        43.2262 
 335   0.0000       1.595004        43.4023 
 336   0.0000       1.596391        43.4400 
 337   0.0000       1.599719        43.5306 
 338   0.0000       1.602383        43.6031 
 339   0.0000       1.606194        43.7068 
 340   0.0000       1.609781        43.8044 
 341   0.0000       1.615964        43.9726 
 342   0.0000       1.621621        44.1265 
 343   0.0000       1.622225        44.1430 
 344   0.0000       1.629788        44.3488 
 345   0.0000       1.633047        44.4375 
 346   0.0000       1.633983        44.4629 
 347   0.0000       1.651321        44.9347 
 348   0.0000       1.653308        44.9888 
 349   0.0000       1.653729        45.0003 
 350   0.0000       1.711025        46.5594 
 351   0.0000       1.715384        46.6780 
 352   0.0000       1.720135        46.8072 
 353   0.0000       1.721523        46.8450 
 354   0.0000       1.750977        47.6465 
 355   0.0000       1.766402        48.0662 
 356   0.0000       1.774957        48.2990 
 357   0.0000       1.788013        48.6543 
 358   0.0000       1.812148        49.3111 
 359   0.0000       1.826669        49.7062 
 360   0.0000       1.836434        49.9719 
 361   0.0000       1.855867        50.5007 
 362   0.0000       1.898330        51.6562 
 363   0.0000       1.899576        51.6901 
 364   0.0000       1.900162        51.7060 
 365   0.0000       1.924511        52.3686 
 366   0.0000       1.936282        52.6889 
 367   0.0000       2.006745        54.6063 
 368   0.0000       2.095090        57.0103 
 369   0.0000       2.111321        57.4520 
 370   0.0000       2.166720        58.9595 
 371   0.0000       2.226310        60.5810 
 372   0.0000       2.235746        60.8377 
 373   0.0000       2.272726        61.8440 
 374   0.0000       2.345018        63.8112 
 375   0.0000       2.347000        63.8651 
 376   0.0000       2.361985        64.2729 
 377   0.0000       2.382679        64.8360 
 378   0.0000       2.456625        66.8482 
 379   0.0000       2.461319        66.9759 
 380   0.0000       2.482993        67.5657 
 381   0.0000       2.490890        67.7806 
 382   0.0000       3.261621        88.7532 
 383   0.0000       3.443925        93.7140 
 384   0.0000       3.503483        95.3346 
 385   0.0000       3.620545        98.5200 
 386   0.0000       3.780997       102.8862 
 387   0.0000       3.843169       104.5780 
 388   0.0000       3.876439       105.4833 
 389   0.0000       3.879622       105.5699 
 390   0.0000       3.888021       105.7984 
 391   0.0000       3.896492       106.0289 
 392   0.0000       3.898696       106.0889 
 393   0.0000       3.910535       106.4111 
 394   0.0000       3.917698       106.6060 
 395   0.0000      23.203431       631.3975 
 396   0.0000      23.284568       633.6053 
 397   0.0000      23.922538       650.9653 
 398   0.0000      24.234129       659.4442 
 399   0.0000      24.428416       664.7310 
 400   0.0000      24.459209       665.5689 
 401   0.0000      24.865820       676.6334 
 402   0.0000      24.944461       678.7733 
 403   0.0000      25.293760       688.2782 
 404   0.0000      25.307569       688.6540 
 405   0.0000      25.311260       688.7544 
 406   0.0000      25.565963       695.6852 
 407   0.0000      25.664461       698.3655 
 408   0.0000      25.830857       702.8934 
 409   0.0000      25.921128       705.3497 
 410   0.0000      26.031965       708.3658 
 411   0.0000      26.417612       718.8598 
 412   0.0000      26.459318       719.9947 
 413   0.0000      26.638613       724.8735 
 414   0.0000      26.654358       725.3020 
 415   0.0000      26.826571       729.9881 
 416   0.0000      26.890849       731.7372 
 417   0.0000      27.233842       741.0705 
 418   0.0000      27.534220       749.2442 
 419   0.0000      27.662300       752.7294 
 420   0.0000      27.745517       754.9939 
 421   0.0000      29.018521       789.6341 
 422   0.0000      30.170511       820.9814 
 423   0.0000      30.358713       826.1026 
 424   0.0000      30.833079       839.0107 
 425   0.0000      43.898429      1194.5370 
 426   0.0000      43.952570      1196.0102 
 427   0.0000      43.979859      1196.7528 
 428   0.0000      44.000908      1197.3256 
 429   0.0000      44.046063      1198.5543 
 430   0.0000      44.083297      1199.5675 
 431   0.0000      44.086783      1199.6624 
 432   0.0000      44.117577      1200.5003 
 433   0.0000      44.187161      1202.3938 
 434   0.0000      44.201601      1202.7867 
 435   0.0000     205.086564      5580.6891 
 436   0.0000     205.114589      5581.4517 
 437   0.0000     205.125155      5581.7392 
 438   0.0000     205.133484      5581.9659 
 439   0.0000     205.152987      5582.4966 
 440   0.0000     205.170046      5582.9608 
 441   0.0000     205.172641      5583.0314 
 442   0.0000     205.182359      5583.2958 
 443   0.0000     205.210462      5584.0606 
 444   0.0000     205.214189      5584.1620 

                 SPIN DOWN ORBITALS
  NO   OCC          E(Eh)            E(eV) 
   0   1.0000    -254.772856     -6932.7219 
   1   1.0000     -29.557407      -804.2979 
   2   1.0000     -25.508534      -694.1225 
   3   1.0000     -25.506714      -694.0730 
   4   1.0000     -25.505986      -694.0532 
   5   1.0000      -4.021403      -109.4279 
   6   1.0000      -4.021350      -109.4265 
   7   1.0000      -4.020955      -109.4158 
   8   1.0000      -4.020923      -109.4149 
   9   1.0000      -4.020903      -109.4143 
  10   1.0000      -4.020873      -109.4135 
  11   1.0000      -4.020185      -109.3948 
  12   1.0000      -4.020164      -109.3942 
  13   1.0000      -4.020136      -109.3935 
  14   1.0000      -4.020117      -109.3929 
  15   1.0000      -3.258802       -88.6765 
  16   1.0000      -2.239688       -60.9450 
  17   1.0000      -2.239636       -60.9436 
  18   1.0000      -2.239505       -60.9400 
  19   1.0000      -2.239384       -60.9367 
  20   1.0000      -2.237060       -60.8735 
  21   1.0000      -2.236995       -60.8717 
  22   1.0000      -2.236677       -60.8631 
  23   1.0000      -2.236516       -60.8587 
  24   1.0000      -2.235736       -60.8375 
  25   1.0000      -2.235622       -60.8344 
  26   1.0000      -2.235476       -60.8304 
  27   1.0000      -2.234941       -60.8158 
  28   1.0000      -2.234835       -60.8130 
  29   1.0000      -2.234780       -60.8114 
  30   1.0000      -2.234140       -60.7940 
  31   1.0000      -2.233546       -60.7779 
  32   1.0000      -2.233041       -60.7641 
  33   1.0000      -2.232606       -60.7523 
  34   1.0000      -2.232503       -60.7495 
  35   1.0000      -2.232192       -60.7410 
  36   1.0000      -2.231896       -60.7330 
  37   1.0000      -2.231544       -60.7234 
  38   1.0000      -2.229360       -60.6640 
  39   1.0000      -2.229210       -60.6599 
  40   1.0000      -2.228943       -60.6526 
  41   1.0000      -2.228808       -60.6490 
  42   1.0000      -2.228180       -60.6318 
  43   1.0000      -2.228049       -60.6283 
  44   1.0000      -2.227813       -60.6219 
  45   1.0000      -2.227698       -60.6187 
  46   1.0000      -2.075944       -56.4893 
  47   1.0000      -2.074975       -56.4629 
  48   1.0000      -2.073507       -56.4230 
  49   1.0000      -0.413667       -11.2564 
  50   1.0000      -0.368644       -10.0313 
  51   1.0000      -0.361383        -9.8337 
  52   1.0000      -0.359991        -9.7958 
  53   1.0000      -0.351017        -9.5517 
  54   1.0000      -0.350597        -9.5402 
  55   1.0000      -0.349075        -9.4988 
  56   1.0000      -0.348635        -9.4868 
  57   1.0000      -0.344990        -9.3877 
  58   1.0000      -0.334436        -9.1005 
  59   1.0000      -0.334413        -9.0998 
  60   1.0000      -0.334171        -9.0932 
  61   1.0000      -0.333422        -9.0729 
  62   1.0000      -0.332430        -9.0459 
  63   1.0000      -0.324872        -8.8402 
  64   1.0000      -0.323723        -8.8090 
  65   1.0000      -0.319687        -8.6991 
  66   1.0000      -0.312160        -8.4943 
  67   1.0000      -0.312094        -8.4925 
  68   1.0000      -0.306699        -8.3457 
  69   1.0000      -0.305190        -8.3047 
  70   1.0000      -0.304153        -8.2764 
  71   1.0000      -0.300635        -8.1807 
  72   1.0000      -0.296155        -8.0588 
  73   1.0000      -0.294087        -8.0025 
  74   1.0000      -0.293839        -7.9958 
  75   1.0000      -0.292508        -7.9595 
  76   1.0000      -0.290765        -7.9121 
  77   1.0000      -0.290256        -7.8983 
  78   1.0000      -0.282848        -7.6967 
  79   1.0000      -0.282207        -7.6793 
  80   1.0000      -0.274823        -7.4783 
  81   1.0000      -0.274611        -7.4725 
  82   1.0000      -0.268937        -7.3182 
  83   1.0000      -0.268817        -7.3149 
  84   1.0000      -0.268075        -7.2947 
  85   1.0000      -0.265123        -7.2144 
  86   1.0000      -0.264750        -7.2042 
  87   1.0000      -0.262781        -7.1506 
  88   1.0000      -0.257615        -7.0101 
  89   1.0000      -0.257530        -7.0078 
  90   1.0000      -0.257391        -7.0040 
  91   1.0000      -0.256086        -6.9684 
  92   1.0000      -0.255399        -6.9498 
  93   1.0000      -0.253364        -6.8944 
  94   1.0000      -0.252786        -6.8787 
  95   1.0000      -0.249653        -6.7934 
  96   1.0000      -0.246207        -6.6996 
  97   1.0000      -0.245545        -6.6816 
  98   1.0000      -0.242695        -6.6041 
  99   1.0000      -0.241321        -6.5667 
 100   1.0000      -0.239669        -6.5217 
 101   1.0000      -0.231207        -6.2915 
 102   1.0000      -0.225423        -6.1341 
 103   1.0000      -0.208234        -5.6663 
 104   1.0000      -0.201413        -5.4807 
 105   1.0000      -0.200940        -5.4679 
 106   0.0000      -0.186805        -5.0832 
 107   0.0000      -0.174020        -4.7353 
 108   0.0000      -0.163626        -4.4525 
 109   0.0000      -0.155940        -4.2433 
 110   0.0000      -0.154991        -4.2175 
 111   0.0000      -0.144809        -3.9405 
 112   0.0000      -0.112653        -3.0654 
 113   0.0000      -0.106069        -2.8863 
 114   0.0000      -0.103029        -2.8036 
 115   0.0000      -0.075077        -2.0430 
 116   0.0000      -0.067421        -1.8346 
 117   0.0000      -0.054623        -1.4864 
 118   0.0000      -0.053640        -1.4596 
 119   0.0000      -0.053391        -1.4529 
 120   0.0000      -0.048802        -1.3280 
 121   0.0000      -0.008332        -0.2267 
 122   0.0000      -0.008271        -0.2251 
 123   0.0000      -0.000452        -0.0123 
 124   0.0000       0.020559         0.5594 
 125   0.0000       0.020620         0.5611 
 126   0.0000       0.021646         0.5890 
 127   0.0000       0.024828         0.6756 
 128   0.0000       0.043703         1.1892 
 129   0.0000       0.046570         1.2672 
 130   0.0000       0.049439         1.3453 
 131   0.0000       0.051779         1.4090 
 132   0.0000       0.055324         1.5054 
 133   0.0000       0.061911         1.6847 
 134   0.0000       0.069240         1.8841 
 135   0.0000       0.071572         1.9476 
 136   0.0000       0.076080         2.0702 
 137   0.0000       0.077397         2.1061 
 138   0.0000       0.093354         2.5403 
 139   0.0000       0.095428         2.5967 
 140   0.0000       0.101472         2.7612 
 141   0.0000       0.127746         3.4762 
 142   0.0000       0.133311         3.6276 
 143   0.0000       0.136691         3.7196 
 144   0.0000       0.144052         3.9199 
 145   0.0000       0.151635         4.1262 
 146   0.0000       0.154670         4.2088 
 147   0.0000       0.168295         4.5795 
 148   0.0000       0.172285         4.6881 
 149   0.0000       0.173095         4.7101 
 150   0.0000       0.176019         4.7897 
 151   0.0000       0.187102         5.0913 
 152   0.0000       0.194725         5.2987 
 153   0.0000       0.198118         5.3911 
 154   0.0000       0.211797         5.7633 
 155   0.0000       0.213025         5.7967 
 156   0.0000       0.215958         5.8765 
 157   0.0000       0.227247         6.1837 
 158   0.0000       0.228856         6.2275 
 159   0.0000       0.232599         6.3293 
 160   0.0000       0.237670         6.4673 
 161   0.0000       0.244625         6.6566 
 162   0.0000       0.257166         6.9978 
 163   0.0000       0.257721         7.0130 
 164   0.0000       0.267076         7.2675 
 165   0.0000       0.277817         7.5598 
 166   0.0000       0.281684         7.6650 
 167   0.0000       0.284416         7.7394 
 168   0.0000       0.285412         7.7665 
 169   0.0000       0.289482         7.8772 
 170   0.0000       0.298321         8.1177 
 171   0.0000       0.301833         8.2133 
 172   0.0000       0.309411         8.4195 
 173   0.0000       0.310573         8.4511 
 174   0.0000       0.319925         8.7056 
 175   0.0000       0.323036         8.7903 
 176   0.0000       0.327083         8.9004 
 177   0.0000       0.333871         9.0851 
 178   0.0000       0.346697         9.4341 
 179   0.0000       0.360086         9.7984 
 180   0.0000       0.360817         9.8183 
 181   0.0000       0.370125        10.0716 
 182   0.0000       0.373443        10.1619 
 183   0.0000       0.374961        10.2032 
 184   0.0000       0.379337        10.3223 
 185   0.0000       0.382188        10.3999 
 186   0.0000       0.383071        10.4239 
 187   0.0000       0.399854        10.8806 
 188   0.0000       0.405155        11.0248 
 189   0.0000       0.405734        11.0406 
 190   0.0000       0.406494        11.0613 
 191   0.0000       0.418140        11.3782 
 192   0.0000       0.419351        11.4111 
 193   0.0000       0.422074        11.4852 
 194   0.0000       0.425323        11.5736 
 195   0.0000       0.437447        11.9035 
 196   0.0000       0.453616        12.3435 
 197   0.0000       0.458478        12.4758 
 198   0.0000       0.485481        13.2106 
 199   0.0000       0.485782        13.2188 
 200   0.0000       0.490594        13.3498 
 201   0.0000       0.493888        13.4394 
 202   0.0000       0.494601        13.4588 
 203   0.0000       0.496450        13.5091 
 204   0.0000       0.497892        13.5483 
 205   0.0000       0.500684        13.6243 
 206   0.0000       0.505782        13.7630 
 207   0.0000       0.510216        13.8837 
 208   0.0000       0.512421        13.9437 
 209   0.0000       0.517498        14.0818 
 210   0.0000       0.529471        14.4076 
 211   0.0000       0.536219        14.5912 
 212   0.0000       0.539295        14.6750 
 213   0.0000       0.545124        14.8336 
 214   0.0000       0.606502        16.5038 
 215   0.0000       0.627304        17.0698 
 216   0.0000       0.643290        17.5048 
 217   0.0000       0.669653        18.2222 
 218   0.0000       0.683576        18.6010 
 219   0.0000       0.685836        18.6626 
 220   0.0000       0.688448        18.7336 
 221   0.0000       0.698050        18.9949 
 222   0.0000       0.705461        19.1966 
 223   0.0000       0.706293        19.2192 
 224   0.0000       0.714485        19.4421 
 225   0.0000       0.731816        19.9137 
 226   0.0000       0.743038        20.2191 
 227   0.0000       0.759405        20.6645 
 228   0.0000       0.772127        21.0106 
 229   0.0000       0.781143        21.2560 
 230   0.0000       0.788391        21.4532 
 231   0.0000       0.802633        21.8408 
 232   0.0000       0.812558        22.1108 
 233   0.0000       0.841719        22.9043 
 234   0.0000       0.857409        23.3313 
 235   0.0000       0.863298        23.4915 
 236   0.0000       0.871450        23.7134 
 237   0.0000       0.874362        23.7926 
 238   0.0000       0.889746        24.2112 
 239   0.0000       0.895411        24.3654 
 240   0.0000       0.931889        25.3580 
 241   0.0000       0.942493        25.6465 
 242   0.0000       1.018845        27.7242 
 243   0.0000       1.028524        27.9876 
 244   0.0000       1.042351        28.3638 
 245   0.0000       1.092912        29.7396 
 246   0.0000       1.179221        32.0882 
 247   0.0000       1.204351        32.7721 
[...]
      f+2     :     0.000014
      f-2     :     0.000008
      f+3     :     0.000004
      f-3     :     0.000008
  8 Aus       :    -0.132536  s :    -0.132536
      pz      :    -0.004982  p :     0.003379
      px      :     0.005832
      py      :     0.002529
      dz2     :    -0.002143  d :     0.007730
      dxz     :     0.004047
      dyz     :    -0.011899
      dx2y2   :     0.010265
      dxy     :     0.007459
      f0      :     0.000012  f :     0.000060
      f+1     :    -0.000002
      f-1     :     0.000009
      f+2     :    -0.000007
      f-2     :     0.000003
      f+3     :     0.000032
      f-3     :     0.000013
  9 Aus       :     0.117512  s :     0.117512
      pz      :    -0.008828  p :    -0.033052
      px      :    -0.015258
      py      :    -0.008966
      dz2     :    -0.008164  d :    -0.025329
      dxz     :    -0.006786
      dyz     :     0.004252
      dx2y2   :    -0.008911
      dxy     :    -0.005721
      f0      :     0.000000  f :    -0.000018
      f+1     :    -0.000007
      f-1     :    -0.000002
      f+2     :    -0.000005
      f-2     :     0.000007
      f+3     :    -0.000001
      f-3     :    -0.000010
 10 Fes       :    -0.008654  s :    -0.008654
      pz      :     0.014210  p :     0.041920
      px      :     0.013962
      py      :     0.013748
      dz2     :     0.437865  d :     2.821960
      dxz     :     0.485170
      dyz     :     0.767498
      dx2y2   :     0.579836
      dxy     :     0.551591
      f0      :     0.000003  f :     0.000023
      f+1     :     0.000005
      f-1     :     0.000002
      f+2     :     0.000001
      f-2     :     0.000001
      f+3     :     0.000004
      f-3     :     0.000006


                     *******************************
                     * LOEWDIN POPULATION ANALYSIS *
                     *******************************

-------------------------------------------
LOEWDIN ATOMIC CHARGES AND SPIN POPULATIONS
-------------------------------------------
   0 Au:   -0.010748   -0.034762
   1 Au:    0.081869   -0.096626
   2 Au:    0.081723   -0.096162
   3 Au:    0.081658   -0.096813
   4 Au:    0.081763   -0.097167
   5 Au:    0.081648   -0.096121
   6 Au:    0.081767   -0.096673
   7 Au:    0.081662   -0.097209
   8 Au:    0.081577   -0.096778
   9 Au:   -0.010713   -0.034921
  10 Fe:   -0.632206    2.843232

----------------------------------------------------
LOEWDIN REDUCED ORBITAL CHARGES AND SPIN POPULATIONS
----------------------------------------------------
CHARGE
  0 Aus       :     2.735376  s :     2.735376
      pz      :     2.133048  p :     6.422218
      px      :     2.154112
      py      :     2.135058
      dz2     :     1.983051  d :     9.848777
      dxz     :     1.956892
      dyz     :     1.969535
      dx2y2   :     1.973997
      dxy     :     1.965302
      f0      :     0.000482  f :     0.004377
      f+1     :     0.000821
      f-1     :     0.000638
      f+2     :     0.000597
      f-2     :     0.000513
      f+3     :     0.000562
      f-3     :     0.000764
  1 Aus       :     2.603498  s :     2.603498
      pz      :     2.102642  p :     6.437134
      px      :     2.162952
      py      :     2.171540
      dz2     :     1.970817  d :     9.872258
      dxz     :     1.955760
      dyz     :     1.983921
      dx2y2   :     1.985494
      dxy     :     1.976267
      f0      :     0.000566  f :     0.005241
      f+1     :     0.000787
      f-1     :     0.001039
      f+2     :     0.000814
      f-2     :     0.000857
      f+3     :     0.000461
      f-3     :     0.000717
  2 Aus       :     2.603318  s :     2.603318
      pz      :     2.196330  p :     6.437741
      px      :     2.146361
      py      :     2.095050
      dz2     :     1.970346  d :     9.871966
      dxz     :     1.979325
      dyz     :     1.983731
      dx2y2   :     1.971602
      dxy     :     1.966961
      f0      :     0.000556  f :     0.005252
      f+1     :     0.000643
      f-1     :     0.000955
      f+2     :     0.001007
      f-2     :     0.000798
      f+3     :     0.000675
      f-3     :     0.000617
  3 Aus       :     2.603398  s :     2.603398
      pz      :     2.218909  p :     6.437579
      px      :     2.081972
      py      :     2.136699
      dz2     :     1.974837  d :     9.872116
      dxz     :     1.983376
      dyz     :     1.973121
      dx2y2   :     1.970971
      dxy     :     1.969811
      f0      :     0.000631  f :     0.005249
      f+1     :     0.000749
      f-1     :     0.001021
      f+2     :     0.000749
      f-2     :     0.000939
      f+3     :     0.000534
      f-3     :     0.000627
  4 Aus       :     2.603618  s :     2.603618
      pz      :     2.115957  p :     6.437013
      px      :     2.086187
      py      :     2.234870
      dz2     :     1.983278  d :     9.872367
      dxz     :     1.960983
      dyz     :     1.972362
      dx2y2   :     1.973660
      dxy     :     1.982084
      f0      :     0.000496  f :     0.005238
      f+1     :     0.000580
      f-1     :     0.001068
      f+2     :     0.000913
      f-2     :     0.000907
      f+3     :     0.000626
      f-3     :     0.000647
  5 Aus       :     2.603248  s :     2.603248
      pz      :     2.196362  p :     6.437918
      px      :     2.146493
      py      :     2.095063
      dz2     :     1.970354  d :     9.871927
      dxz     :     1.979312
      dyz     :     1.983723
      dx2y2   :     1.971574
      dxy     :     1.966963
      f0      :     0.000556  f :     0.005259
      f+1     :     0.000645
      f-1     :     0.000957
      f+2     :     0.001008
      f-2     :     0.000799
      f+3     :     0.000676
      f-3     :     0.000618
  6 Aus       :     2.603402  s :     2.603402
      pz      :     2.102636  p :     6.437287
      px      :     2.163100
      py      :     2.171551
      dz2     :     1.970810  d :     9.872307
      dxz     :     1.955787
      dyz     :     1.983927
      dx2y2   :     1.985505
      dxy     :     1.976277
      f0      :     0.000566  f :     0.005237
      f+1     :     0.000787
      f-1     :     0.001038
      f+2     :     0.000812
      f-2     :     0.000857
      f+3     :     0.000461
      f-3     :     0.000718
  7 Aus       :     2.603519  s :     2.603519
      pz      :     2.115986  p :     6.437173
      px      :     2.086251
      py      :     2.234937
      dz2     :     1.983288  d :     9.872410
      dxz     :     1.960955
      dyz     :     1.972391
      dx2y2   :     1.973671
      dxy     :     1.982105
      f0      :     0.000495  f :     0.005236
      f+1     :     0.000580
      f-1     :     0.001068
      f+2     :     0.000913
      f-2     :     0.000905
      f+3     :     0.000626
      f-3     :     0.000647
  8 Aus       :     2.603324  s :     2.603324
      pz      :     2.218960  p :     6.437763
      px      :     2.082009
      py      :     2.136794
      dz2     :     1.974844  d :     9.872079
      dxz     :     1.983362
      dyz     :     1.973110
      dx2y2   :     1.970976
      dxy     :     1.969787
      f0      :     0.000632  f :     0.005257
      f+1     :     0.000749
      f-1     :     0.001024
      f+2     :     0.000750
      f-2     :     0.000940
      f+3     :     0.000534
      f-3     :     0.000628
  9 Aus       :     2.735486  s :     2.735486
      pz      :     2.132979  p :     6.421982
      px      :     2.153955
      py      :     2.135047
      dz2     :     1.983020  d :     9.848869
      dxz     :     1.956916
      dyz     :     1.969631
      dx2y2   :     1.973984
      dxy     :     1.965317
      f0      :     0.000482  f :     0.004377
      f+1     :     0.000820
      f-1     :     0.000638
      f+2     :     0.000597
      f-2     :     0.000512
      f+3     :     0.000562
      f-3     :     0.000764
 10 Fes       :     6.311645  s :     6.311645
      pz      :     4.212911  p :    12.665027
      px      :     4.237944
      py      :     4.214172
      dz2     :     1.624037  d :     7.654830
      dxz     :     1.603017
      dyz     :     1.372914
      dx2y2   :     1.507624
      dxy     :     1.547238
      f0      :     0.000072  f :     0.000705
      f+1     :     0.000139
      f-1     :     0.000088
      f+2     :     0.000092
      f-2     :     0.000096
      f+3     :     0.000100
      f-3     :     0.000118

SPIN
  0 Aus       :     0.061266  s :     0.061266
      pz      :    -0.011034  p :    -0.059601
      px      :    -0.037892
      py      :    -0.010674
      dz2     :    -0.011191  d :    -0.036287
      dxz     :    -0.009887
      dyz     :     0.004389
      dx2y2   :    -0.011471
      dxy     :    -0.008126
      f0      :    -0.000007  f :    -0.000140
      f+1     :    -0.000033
      f-1     :    -0.000014
      f+2     :    -0.000025
      f-2     :    -0.000012
      f+3     :    -0.000017
      f-3     :    -0.000033
  1 Aus       :    -0.071848  s :    -0.071848
      pz      :    -0.006069  p :    -0.026811
      px      :    -0.007226
      py      :    -0.013516
      dz2     :     0.011978  d :     0.001889
      dxz     :     0.008644
      dyz     :    -0.008701
      dx2y2   :    -0.007750
      dxy     :    -0.002282
      f0      :     0.000062  f :     0.000144
      f+1     :     0.000075
      f-1     :    -0.000003
      f+2     :    -0.000007
      f-2     :     0.000002
      f+3     :     0.000008
      f-3     :     0.000008
  2 Aus       :    -0.071703  s :    -0.071703
      pz      :    -0.015001  p :    -0.026685
      px      :    -0.005910
      py      :    -0.005774
      dz2     :    -0.004321  d :     0.002078
      dxz     :    -0.005800
      dyz     :    -0.004416
      dx2y2   :     0.007342
      dxy     :     0.009272
      f0      :     0.000013  f :     0.000147
      f+1     :     0.000028
      f-1     :    -0.000002
      f+2     :     0.000009
      f-2     :    -0.000015
      f+3     :     0.000059
      f-3     :     0.000055
  3 Aus       :    -0.071384  s :    -0.071384
      pz      :    -0.016094  p :    -0.027348
      px      :    -0.004792
      py      :    -0.006461
      dz2     :    -0.003591  d :     0.001774
      dxz     :     0.003693
      dyz     :    -0.015902
      dx2y2   :     0.010727
      dxy     :     0.006847
      f0      :     0.000025  f :     0.000144
      f+1     :     0.000004
      f-1     :     0.000014
      f+2     :    -0.000013
      f-2     :     0.000004
      f+3     :     0.000051
      f-3     :     0.000059
  4 Aus       :    -0.071485  s :    -0.071485
      pz      :    -0.006391  p :    -0.027394
      px      :    -0.005617
      py      :    -0.015386
      dz2     :     0.007861  d :     0.001571
      dxz     :     0.007209
      dyz     :    -0.012097
      dx2y2   :     0.001927
      dxy     :    -0.003329
      f0      :     0.000037  f :     0.000141
      f+1     :     0.000061
      f-1     :    -0.000030
      f+2     :     0.000030
      f-2     :     0.000009
      f+3     :    -0.000000
      f-3     :     0.000034
  5 Aus       :    -0.071651  s :    -0.071651
      pz      :    -0.014996  p :    -0.026691
      px      :    -0.005930
      py      :    -0.005764
      dz2     :    -0.004324  d :     0.002073
      dxz     :    -0.005826
      dyz     :    -0.004394
      dx2y2   :     0.007342
      dxy     :     0.009275
      f0      :     0.000013  f :     0.000147
      f+1     :     0.000028
      f-1     :    -0.000002
      f+2     :     0.000009
      f-2     :    -0.000015
      f+3     :     0.000059
      f-3     :     0.000055
  6 Aus       :    -0.071886  s :    -0.071886
      pz      :    -0.006048  p :    -0.026798
      px      :    -0.007264
      py      :    -0.013486
      dz2     :     0.011977  d :     0.001867
      dxz     :     0.008638
      dyz     :    -0.008668
      dx2y2   :    -0.007758
      dxy     :    -0.002322
      f0      :     0.000062  f :     0.000144
      f+1     :     0.000075
      f-1     :    -0.000003
      f+2     :    -0.000007
      f-2     :     0.000001
      f+3     :     0.000008
      f-3     :     0.000008
  7 Aus       :    -0.071518  s :    -0.071518
      pz      :    -0.006370  p :    -0.027382
      px      :    -0.005643
      py      :    -0.015369
      dz2     :     0.007862  d :     0.001550
      dxz     :     0.007217
      dyz     :    -0.012087
      dx2y2   :     0.001894
      dxy     :    -0.003335
      f0      :     0.000037  f :     0.000141
      f+1     :     0.000061
      f-1     :    -0.000030
      f+2     :     0.000030
      f-2     :     0.000010
      f+3     :    -0.000000
      f-3     :     0.000034
  8 Aus       :    -0.071327  s :    -0.071327
      pz      :    -0.016095  p :    -0.027356
      px      :    -0.004805
      py      :    -0.006456
      dz2     :    -0.003599  d :     0.001760
      dxz     :     0.003701
      dyz     :    -0.015914
      dx2y2   :     0.010726
      dxy     :     0.006847
      f0      :     0.000026  f :     0.000144
      f+1     :     0.000004
      f-1     :     0.000014
      f+2     :    -0.000013
      f-2     :     0.000004
      f+3     :     0.000051
      f-3     :     0.000059
  9 Aus       :     0.061280  s :     0.061280
      pz      :    -0.011039  p :    -0.059610
      px      :    -0.037894
      py      :    -0.010678
      dz2     :    -0.011208  d :    -0.036450
      dxz     :    -0.009891
      dyz     :     0.004326
      dx2y2   :    -0.011509
      dxy     :    -0.008167
      f0      :    -0.000007  f :    -0.000140
      f+1     :    -0.000033
      f-1     :    -0.000014
      f+2     :    -0.000025
      f-2     :    -0.000012
      f+3     :    -0.000017
      f-3     :    -0.000033
 10 Fes       :     0.014315  s :     0.014315
      pz      :     0.006614  p :     0.019792
      px      :     0.006806
      py      :     0.006372
      dz2     :     0.443227  d :     2.809110
      dxz     :     0.465438
      dyz     :     0.779265
      dx2y2   :     0.576221
      dxy     :     0.544959
      f0      :     0.000003  f :     0.000015
      f+1     :     0.000004
      f-1     :     0.000001
      f+2     :     0.000000
      f-2     :    -0.000000
      f+3     :     0.000003
      f-3     :     0.000005


                      *****************************
                      * MAYER POPULATION ANALYSIS *
                      *****************************

  NA   - Mulliken gross atomic population
  ZA   - Total nuclear charge
  QA   - Mulliken gross atomic charge
  VA   - Mayer's total valence
  BVA  - Mayer's bonded valence
  FA   - Mayer's free valence

  ATOM       NA         ZA         QA         VA         BVA        FA
  0 Au    18.8139    19.0000     0.1861     1.5137     1.4941     0.0196
  1 Au    18.7779    19.0000     0.2221     1.6142     1.5939     0.0203
  2 Au    18.7784    19.0000     0.2216     1.6155     1.5953     0.0202
  3 Au    18.7785    19.0000     0.2215     1.6152     1.5951     0.0201
  4 Au    18.7781    19.0000     0.2219     1.6141     1.5940     0.0201
  5 Au    18.7786    19.0000     0.2214     1.6160     1.5958     0.0202
  6 Au    18.7781    19.0000     0.2219     1.6143     1.5940     0.0203
  7 Au    18.7782    19.0000     0.2218     1.6142     1.5941     0.0201
  8 Au    18.7787    19.0000     0.2213     1.6157     1.5957     0.0201
  9 Au    18.8139    19.0000     0.1861     1.5137     1.4942     0.0195
 10 Fe    28.1458    26.0000    -2.1458     8.0221     5.9047     2.1174

  Mayer bond orders larger than 0.100000
B(  0-Au,  1-Au) :   0.2022 B(  0-Au,  2-Au) :   0.2030 B(  0-Au,  3-Au) :   0.2007 
B(  0-Au,  4-Au) :   0.1998 B(  0-Au,  9-Au) :   0.1422 B(  0-Au, 10-Fe) :   0.4316 
B(  1-Au,  2-Au) :   0.1377 B(  1-Au,  8-Au) :   0.3356 B(  1-Au, 10-Fe) :   0.6299 
B(  2-Au,  7-Au) :   0.3354 B(  2-Au, 10-Fe) :   0.6310 B(  3-Au,  4-Au) :   0.1404 
B(  3-Au,  6-Au) :   0.3352 B(  3-Au, 10-Fe) :   0.6307 B(  4-Au,  5-Au) :   0.3357 
B(  4-Au, 10-Fe) :   0.6297 B(  5-Au,  6-Au) :   0.1376 B(  5-Au,  9-Au) :   0.2032 
B(  5-Au, 10-Fe) :   0.6310 B(  6-Au,  9-Au) :   0.2025 B(  6-Au, 10-Fe) :   0.6299 
B(  7-Au,  8-Au) :   0.1403 B(  7-Au,  9-Au) :   0.2001 B(  7-Au, 10-Fe) :   0.6297 
B(  8-Au,  9-Au) :   0.2009 B(  8-Au, 10-Fe) :   0.6306 B(  9-Au, 10-Fe) :   0.4306 


-------
TIMINGS
-------

Total SCF time: 0 days 0 hours 4 min 28 sec 

Total time                  ....     268.043 sec
Sum of individual times     ....     264.839 sec  ( 98.8%)

Fock matrix formation       ....     242.391 sec  ( 90.4%)
  Split-RI-J                ....      73.334 sec  ( 30.3% of F)
  XC integration            ....     166.607 sec  ( 68.7% of F)
    Basis function eval.    ....      21.667 sec  ( 13.0% of XC)
    Density eval.           ....      64.182 sec  ( 38.5% of XC)
    XC-Functional eval.     ....       3.891 sec  (  2.3% of XC)
    XC-Potential eval.      ....      64.186 sec  ( 38.5% of XC)
Diagonalization             ....      13.338 sec  (  5.0%)
Density matrix formation    ....       0.973 sec  (  0.4%)
Population analysis         ....       0.061 sec  (  0.0%)
Initial guess               ....       0.086 sec  (  0.0%)
Orbital Transformation      ....       1.097 sec  (  0.4%)
Orbital Orthonormalization  ....       0.071 sec  (  0.0%)
DIIS solution               ....       5.987 sec  (  2.2%)
Grid generation             ....       0.899 sec  (  0.3%)

Maximum memory used throughout the entire SCF-calculation: 68.3 MB

-------------------------   --------------------
FINAL SINGLE POINT ENERGY     -2621.715264130708
-------------------------   --------------------


                            ***************************************
                            *     ORCA property calculations      *
                            ***************************************

                                    ---------------------
                                    Active property flags
                                    ---------------------
   (+) Dipole Moment


------------------------------------------------------------------------------
                       ORCA ELECTRIC PROPERTIES CALCULATION
------------------------------------------------------------------------------

Dipole Moment Calculation                       ... on
Quadrupole Moment Calculation                   ... off
Polarizability Calculation                      ... off
GBWName                                         ... pbeSP_job2.gbw
Electron density                                ... pbeSP_job2.scfp
The origin for moment calculation is the CENTER OF MASS  = (16.550813, 11.961103 14.129151)

-------------
DIPOLE MOMENT
-------------
                                X             Y             Z
Electronic contribution:     -0.01004      -0.01749      -0.01845
Nuclear contribution   :      0.00993       0.01730       0.01832
                        -----------------------------------------
Total Dipole Moment    :     -0.00011      -0.00020      -0.00013
                        -----------------------------------------
Magnitude (a.u.)       :      0.00026
Magnitude (Debye)      :      0.00066



--------------------
Rotational spectrum 
--------------------
 
Rotational constants in cm-1:     0.002107     0.001707     0.001542 
Rotational constants in MHz :    63.155337    51.174972    46.214833 

 Dipole components along the rotational axes: 
x,y,z [a.u.] :     0.000255    -0.000008     0.000044 
x,y,z [Debye]:     0.000649    -0.000020     0.000113 

 

Timings for individual modules:

Sum of individual times         ...      272.830 sec (=   4.547 min)
GTO integral calculation        ...        4.565 sec (=   0.076 min)   1.7 %
SCF iterations                  ...      268.265 sec (=   4.471 min)  98.3 %



                             ****ORCA TERMINATED NORMALLY****
TOTAL RUN TIME: 0 days 0 hours 8 minutes 10 seconds 586 msec
