
                                 *****************
                                 * O   R   C   A *
                                 *****************

                                            #,                                       
                                            ###                                      
                                            ####                                     
                                            #####                                    
                                            ######                                   
                                           ########,                                 
                                     ,,################,,,,,                         
                               ,,#################################,,                 
                          ,,##########################################,,             
                       ,#########################################, ''#####,          
                    ,#############################################,,   '####,        
                  ,##################################################,,,,####,       
                ,###########''''           ''''###############################       
              ,#####''   ,,,,##########,,,,          '''####'''          '####       
            ,##' ,,,,###########################,,,                        '##       
           ' ,,###''''                  '''############,,,                           
         ,,##''                                '''############,,,,        ,,,,,,###''
      ,#''                                            '''#######################'''  
     '                                                          ''''####''''         
             ,#######,   #######,   ,#######,      ##                                
            ,#'     '#,  ##    ##  ,#'     '#,    #''#        ######   ,####,        
            ##       ##  ##   ,#'  ##            #'  '#       #        #'  '#        
            ##       ##  #######   ##           ,######,      #####,   #    #        
            '#,     ,#'  ##    ##  '#,     ,#' ,#      #,         ##   #,  ,#        
             '#######'   ##     ##  '#######'  #'      '#     #####' # '####'        



                  #######################################################
                  #                        -***-                        #
                  #          Department of theory and spectroscopy      #
                  #    Directorship and core code : Frank Neese         #
                  #        Max Planck Institute fuer Kohlenforschung    #
                  #                Kaiser Wilhelm Platz 1               #
                  #                 D-45470 Muelheim/Ruhr               #
                  #                      Germany                        #
                  #                                                     #
                  #                  All rights reserved                #
                  #                        -***-                        #
                  #######################################################


                         Program Version 5.0.3 -  RELEASE  -


 With contributions from (in alphabetic order):
   Daniel Aravena         : Magnetic Suceptibility
   Michael Atanasov       : Ab Initio Ligand Field Theory (pilot matlab implementation)
   Alexander A. Auer      : GIAO ZORA, VPT2 properties, NMR spectrum
   Ute Becker             : Parallelization
   Giovanni Bistoni       : ED, misc. LED, open-shell LED, HFLD
   Martin Brehm           : Molecular dynamics
   Dmytro Bykov           : SCF Hessian
   Vijay G. Chilkuri      : MRCI spin determinant printing, contributions to CSF-ICE
   Dipayan Datta          : RHF DLPNO-CCSD density
   Achintya Kumar Dutta   : EOM-CC, STEOM-CC
   Dmitry Ganyushin       : Spin-Orbit,Spin-Spin,Magnetic field MRCI
   Miquel Garcia          : C-PCM and meta-GGA Hessian, CC/C-PCM, Gaussian charge scheme
   Yang Guo               : DLPNO-NEVPT2, F12-NEVPT2, CIM, IAO-localization
   Andreas Hansen         : Spin unrestricted coupled pair/coupled cluster methods
   Benjamin Helmich-Paris : MC-RPA, TRAH-SCF, COSX integrals
   Lee Huntington         : MR-EOM, pCC
   Robert Izsak           : Overlap fitted RIJCOSX, COSX-SCS-MP3, EOM
   Marcus Kettner         : VPT2
   Christian Kollmar      : KDIIS, OOCD, Brueckner-CCSD(T), CCSD density, CASPT2, CASPT2-K
   Simone Kossmann        : Meta GGA functionals, TD-DFT gradient, OOMP2, MP2 Hessian
   Martin Krupicka        : Initial AUTO-CI
   Lucas Lang             : DCDCAS
   Marvin Lechner         : AUTO-CI (C++ implementation), FIC-MRCC
   Dagmar Lenk            : GEPOL surface, SMD
   Dimitrios Liakos       : Extrapolation schemes; Compound Job, initial MDCI parallelization
   Dimitrios Manganas     : Further ROCIS development; embedding schemes
   Dimitrios Pantazis     : SARC Basis sets
   Anastasios Papadopoulos: AUTO-CI, single reference methods and gradients
   Taras Petrenko         : DFT Hessian,TD-DFT gradient, ASA, ECA, R-Raman, ABS, FL, XAS/XES, NRVS
   Peter Pinski           : DLPNO-MP2, DLPNO-MP2 Gradient
   Christoph Reimann      : Effective Core Potentials
   Marius Retegan         : Local ZFS, SOC
   Christoph Riplinger    : Optimizer, TS searches, QM/MM, DLPNO-CCSD(T), (RO)-DLPNO pert. Triples
   Tobias Risthaus        : Range-separated hybrids, TD-DFT gradient, RPA, STAB
   Michael Roemelt        : Original ROCIS implementation
   Masaaki Saitow         : Open-shell DLPNO-CCSD energy and density
   Barbara Sandhoefer     : DKH picture change effects
   Avijit Sen             : IP-ROCIS
   Kantharuban Sivalingam : CASSCF convergence, NEVPT2, FIC-MRCI
   Bernardo de Souza      : ESD, SOC TD-DFT
   Georgi Stoychev        : AutoAux, RI-MP2 NMR, DLPNO-MP2 response
   Willem Van den Heuvel  : Paramagnetic NMR
   Boris Wezisla          : Elementary symmetry handling
   Frank Wennmohs         : Technical directorship


 We gratefully acknowledge several colleagues who have allowed us to
 interface, adapt or use parts of their codes:
   Stefan Grimme, W. Hujo, H. Kruse, P. Pracht,  : VdW corrections, initial TS optimization,
                  C. Bannwarth, S. Ehlert          DFT functionals, gCP, sTDA/sTD-DF
   Ed Valeev, F. Pavosevic, A. Kumar             : LibInt (2-el integral package), F12 methods
   Garnet Chan, S. Sharma, J. Yang, R. Olivares  : DMRG
   Ulf Ekstrom                                   : XCFun DFT Library
   Mihaly Kallay                                 : mrcc  (arbitrary order and MRCC methods)
   Jiri Pittner, Ondrej Demel                    : Mk-CCSD
   Frank Weinhold                                : gennbo (NPA and NBO analysis)
   Christopher J. Cramer and Donald G. Truhlar   : smd solvation model
   Lars Goerigk                                  : TD-DFT with DH, B97 family of functionals
   V. Asgeirsson, H. Jonsson                     : NEB implementation
   FAccTs GmbH                                   : IRC, NEB, NEB-TS, DLPNO-Multilevel, CI-OPT
                                                   MM, QMMM, 2- and 3-layer-ONIOM, Crystal-QMMM,
                                                   LR-CPCM, SF, NACMEs, symmetry and pop. for TD-DFT,
                                                   nearIR, NL-DFT gradient (VV10), updates on ESD,
                                                   ML-optimized integration grids
   S Lehtola, MJT Oliveira, MAL Marques          : LibXC Library
   Liviu Ungur et al                             : ANISO software


 Your calculation uses the libint2 library for the computation of 2-el integrals
 For citations please refer to: http://libint.valeyev.net

 Your ORCA version has been built with support for libXC version: 5.1.0
 For citations please refer to: https://tddft.org/programs/libxc/

 This ORCA versions uses:
   CBLAS   interface :  Fast vector & matrix operations
   LAPACKE interface :  Fast linear algebra routines
   SCALAPACK package :  Parallel linear algebra routines
   Shared memory     :  Shared parallel matrices
   BLAS/LAPACK       :  OpenBLAS 0.3.15  USE64BITINT DYNAMIC_ARCH NO_AFFINITY Haswell SINGLE_THREADED
        Core in use  :  Haswell
   Copyright (c) 2011-2014, The OpenBLAS Project




***************************************
The coordinates will be read from file: 2.xyz
***************************************


================================================================================

cite the ECPs for Au [Def2-ECP] as follows:
Ce-Yb(ecp-28): M. Dolg, H. Stoll, H.Preuss, J. Chem. Phys., 1989, 90, 1730-1734.
Y-Cd(ecp-28), Hf-Hg(ecp-46): D. Andrae,U. Haeussermann, M. Dolg, H. Stoll, H. Preuss, Theor. Chim. Acta, 1990, 77, 123-141.
In-Sb(ecp-28), Tl-Bi(ecp-46): B. Metz, H. Stoll, M. Dolg, J. Chem. Phys., 2000, 113, 2563-2569.
Te-Xe(ecp-28), Po-Rn(ecp-46): K. A. Peterson, D. Figgen, E. Goll, H. Stoll, M. Dolg, J. Chem. Phys., 2003, 119, 11113-11123.
Rb(ecp-28), Cs(ecp-46): T. Leininger, A. Nicklass, W. Kuechle, H. Stoll, M. Dolg, A. Bergner, Chem. Phys. Lett., 1996, 255, 274-280.
Sr(ecp-28), Ba(ecp-46): M. Kaupp, P. V. Schleyer, H. Stoll and H. Preuss, J. Chem. Phys., 1991, 94, 1360-1366.
La(ecp-46): M. Dolg, H. Stoll, A. Savin, H. Preuss, Theor. Chim. Acta, 1989, 75, 173-194.
Lu(ecp-28): X. Cao, M. Dolg, J. Chem. Phys., 2001, 115, 7348-7355.

ECP parameters for Au [Def2-ECP] have been obtained from:
TURBOMOLE (7.0.2)

----- Orbital basis set information -----
Your calculation utilizes the basis: def2-TZVP
   F. Weigend and R. Ahlrichs, Phys. Chem. Chem. Phys. 7, 3297 (2005).

----- AuxJ basis set information -----
Your calculation utilizes the auxiliary basis: def2/J
   F. Weigend, Phys. Chem. Chem. Phys. 8, 1057 (2006).

================================================================================
                                        WARNINGS
                       Please study these warnings very carefully!
================================================================================


WARNING: your system is open-shell and RHF/RKS was chosen
  ===> : WILL SWITCH to UHF/UKS


WARNING: Geometry Optimization
  ===> : Switching off AutoStart
         For restart on a previous wavefunction, please use MOREAD

INFO   : the flag for use of the SHARK integral package has been found!

================================================================================
                                       INPUT FILE
================================================================================
NAME = pbe.inp
|  1> %pal nprocs 1 end 
|  2> 
|  3> !PBE def2-TZVP OPT UNO
|  4> !SLOWCONV KDIIS 
|  5> 
|  6> %geom maxiter 300 end
|  7> 
|  8> *xyzfile 0 3 2.xyz                           ****END OF INPUT****
================================================================================

                       *****************************
                       * Geometry Optimization Run *
                       *****************************

Geometry optimization settings:
Update method            Update   .... BFGS
Choice of coordinates    CoordSys .... Z-matrix Internals
Initial Hessian          InHess   .... Almoef's Model

Convergence Tolerances:
Energy Change            TolE     ....  5.0000e-06 Eh
Max. Gradient            TolMAXG  ....  3.0000e-04 Eh/bohr
RMS Gradient             TolRMSG  ....  1.0000e-04 Eh/bohr
Max. Displacement        TolMAXD  ....  4.0000e-03 bohr
RMS Displacement         TolRMSD  ....  2.0000e-03 bohr
Strict Convergence                ....  False
------------------------------------------------------------------------------
                        ORCA OPTIMIZATION COORDINATE SETUP
------------------------------------------------------------------------------

The optimization will be done in new redundant internal coordinates
Making redundant internal coordinates   ...  (new redundants) done
Evaluating the initial hessian          ...  (Almloef) done
Evaluating the coordinates              ...  done
Calculating the B-matrix                .... done
Calculating the G-matrix                .... done
Diagonalizing the G-matrix              .... done
The first mode is                       ....  143
The number of degrees of freedom        ....   27

    -----------------------------------------------------------------
                    Redundant Internal Coordinates


    -----------------------------------------------------------------
         Definition                    Initial Value    Approx d2E/dq
    -----------------------------------------------------------------
      1. B(Au  1,Au  0)                  2.7973         0.006881   
      2. B(Au  3,Au  0)                  2.7975         0.006876   
      3. B(Au  4,Au  0)                  2.8887         0.004919   
      4. B(Au  6,Au  2)                  2.7986         0.006848   
      5. B(Au  7,Au  6)                  2.6848         0.010402   
      6. B(Au  8,Au  6)                  2.7988         0.006844   
      7. B(Au  9,Au  0)                  2.8885         0.004923   
      8. B(Fe 10,Au  8)                  2.5908         0.106808   
      9. B(Fe 10,Au  7)                  2.5398         0.128834   
     10. B(Fe 10,Au  3)                  2.5413         0.128100   
     11. B(Fe 10,Au  5)                  2.6099         0.099572   
     12. B(Fe 10,Au  0)                  3.3859         0.005755   
     13. B(Fe 10,Au  9)                  2.5898         0.107219   
     14. B(Fe 10,Au  4)                  2.5899         0.107171   
     15. B(Fe 10,Au  2)                  2.5909         0.106763   
     16. B(Fe 10,Au  1)                  2.5413         0.128110   
     17. A(Au  4,Au  0,Au  9)           60.3120         0.131408   
     18. A(Au  1,Au  0,Au  3)           68.9873         0.138351   
     19. A(Au  1,Au  0,Au  4)           95.0268         0.134748   
     20. A(Au  4,Au  0,Fe 10)           47.9525         0.138273   
     21. A(Au  3,Au  0,Au  4)           61.2270         0.134740   
     22. A(Au  3,Au  0,Au  9)           95.0254         0.134748   
     23. A(Au  1,Au  0,Fe 10)           47.3628         0.142164   
     24. A(Au  3,Au  0,Fe 10)           47.3623         0.142154   
     25. A(Au  9,Au  0,Fe 10)           47.9511         0.138282   
     26. A(Au  1,Au  0,Au  9)           61.2227         0.134756   
     27. A(Au  0,Au  1,Fe 10)           78.5653         0.196302   
     28. A(Au  6,Au  2,Fe 10)           97.7642         0.191854   
     29. A(Au  0,Au  3,Fe 10)           78.5609         0.196280   
     30. A(Au  0,Au  4,Fe 10)           76.1272         0.184513   
     31. A(Au  2,Au  6,Au  7)           66.3825         0.143140   
     32. A(Au  2,Au  6,Au  8)           63.6832         0.138246   
     33. A(Au  7,Au  6,Au  8)           66.3798         0.143132   
     34. A(Au  6,Au  7,Fe 10)          102.0430         0.206971   
     35. A(Au  6,Au  8,Fe 10)           97.7627         0.191849   
     36. A(Au  0,Au  9,Fe 10)           76.1330         0.184540   
     37. A(Au  5,Fe 10,Au  7)           61.8224         0.309609   
     38. A(Au  4,Fe 10,Au  7)          116.6722         0.313312   
     39. A(Au  1,Fe 10,Au  5)          132.5120         0.309327   
     40. A(Au  7,Fe 10,Au  9)          116.6723         0.313334   
     41. A(Au  5,Fe 10,Au  9)           66.3213         0.300626   
     42. A(Au  3,Fe 10,Au  7)          131.7484         0.322554   
     43. A(Au  8,Fe 10,Au  9)          110.5061         0.304013   
     44. A(Au  4,Fe 10,Au  9)           68.1533         0.304178   
     45. A(Au  3,Fe 10,Au  9)          109.6184         0.313044   
     46. A(Au  2,Fe 10,Au  7)           71.6490         0.313118   
     47. A(Au  3,Fe 10,Au  4)           68.7313         0.313021   
     48. A(Au  2,Fe 10,Au  3)           62.8217         0.312828   
     49. A(Au  2,Fe 10,Au  9)          171.4892         0.303993   
     50. A(Au  1,Fe 10,Au  9)           68.7226         0.313048   
     51. A(Au  1,Fe 10,Au  7)          131.7468         0.322558   
     52. A(Au  7,Fe 10,Au  8)           71.6505         0.313140   
     53. A(Au  0,Fe 10,Au  3)           54.0768         0.204568   
     54. A(Au  0,Fe 10,Au  2)          116.0382         0.199900   
     55. A(Au  5,Fe 10,Au  8)          121.3599         0.300443   
     56. A(Au  4,Fe 10,Au  5)           66.3170         0.300605   
     57. A(Au  0,Fe 10,Au  4)           55.9202         0.199995   
     58. A(Au  0,Fe 10,Au  5)          108.4192         0.198163   
     59. A(Au  0,Fe 10,Au  7)          170.2416         0.204718   
     60. A(Au  0,Fe 10,Au  8)          116.0318         0.199910   
     61. A(Au  0,Fe 10,Au  9)           55.9159         0.200006   
     62. A(Au  2,Fe 10,Au  4)          110.5143         0.303971   
     63. A(Au  0,Fe 10,Au  1)           54.0719         0.204570   
     64. A(Au  4,Fe 10,Au  8)          171.4896         0.303992   
     65. A(Au  3,Fe 10,Au  8)          104.6966         0.312850   
     66. A(Au  3,Fe 10,Au  5)          132.5159         0.309323   
     67. A(Au  2,Fe 10,Au  8)           69.4844         0.303806   
     68. A(Au  1,Fe 10,Au  8)           62.8199         0.312854   
     69. A(Au  2,Fe 10,Au  5)          121.3593         0.300422   
     70. A(Au  1,Fe 10,Au  4)          109.6172         0.313025   
     71. A(Au  1,Fe 10,Au  3)           77.1263         0.322256   
     72. A(Au  1,Fe 10,Au  2)          104.7002         0.312832   
     73. D(Fe 10,Au  1,Au  0,Au  9)    -57.7913         0.001501   
     74. D(Fe 10,Au  1,Au  0,Au  4)     -5.7837         0.001501   
     75. D(Fe 10,Au  1,Au  0,Au  3)     50.7526         0.001501   
     76. D(Fe 10,Au  3,Au  0,Au  1)    -50.7532         0.001501   
     77. D(Fe 10,Au  3,Au  0,Au  9)      5.7791         0.001501   
     78. D(Fe 10,Au  3,Au  0,Au  4)     57.7902         0.001501   
     79. D(Fe 10,Au  4,Au  0,Au  3)    -56.9501         0.001501   
     80. D(Fe 10,Au  4,Au  0,Au  1)      5.7295         0.001501   
     81. D(Fe 10,Au  4,Au  0,Au  9)     58.3975         0.001501   
     82. D(Au  7,Au  6,Au  2,Fe 10)    -33.8568         0.001501   
     83. D(Au  8,Au  6,Au  2,Fe 10)     40.3836         0.001501   
     84. D(Fe 10,Au  7,Au  6,Au  8)    -35.1566         0.001503   
     85. D(Fe 10,Au  7,Au  6,Au  2)     35.1558         0.001503   
     86. D(Fe 10,Au  8,Au  6,Au  2)    -40.3856         0.001501   
     87. D(Fe 10,Au  8,Au  6,Au  7)     33.8591         0.001501   
     88. D(Fe 10,Au  9,Au  0,Au  4)    -58.3996         0.001501   
     89. D(Fe 10,Au  9,Au  0,Au  3)     -5.7251         0.001501   
     90. D(Fe 10,Au  9,Au  0,Au  1)     56.9538         0.001501   
     91. D(Au  4,Fe 10,Au  0,Au  3)     87.0954         0.001500   
     92. D(Au  4,Fe 10,Au  2,Au  6)    147.0328         0.001548   
     93. D(Au  3,Fe 10,Au  0,Au  9)   -172.2368         0.001500   
     94. D(Au  3,Fe 10,Au  0,Au  1)    100.6738         0.001500   
     95. D(Au  2,Fe 10,Au  0,Au  9)    176.7892         0.001500   
     96. D(Au  7,Fe 10,Au  9,Au  0)    172.6304         0.001549   
     97. D(Au  8,Fe 10,Au  1,Au  0)   -168.9161         0.001568   
     98. D(Au  3,Fe 10,Au  0,Au  4)    -87.0954         0.001500   
     99. D(Au  5,Fe 10,Au  2,Au  6)     72.9478         0.001548   
    100. D(Au  4,Fe 10,Au  0,Au  1)   -172.2308         0.001500   
    101. D(Au  9,Fe 10,Au  2,Au  6)   -133.5864         0.001548   
    102. D(Au  4,Fe 10,Au  0,Au  9)    -85.1413         0.001500   
    103. D(Au  5,Fe 10,Au  9,Au  0)    135.5041         0.001549   
    104. D(Au  3,Fe 10,Au  1,Au  0)    -54.7173         0.001568   
    105. D(Au  2,Fe 10,Au  0,Au  4)    -98.0695         0.001500   
    106. D(Au  2,Fe 10,Au  0,Au  3)    -10.9740         0.001500   
    107. D(Au  9,Fe 10,Au  0,Au  1)    -87.0895         0.001500   
    108. D(Au  2,Fe 10,Au  0,Au  1)     89.6997         0.001500   
    109. D(Au  1,Fe 10,Au  0,Au  9)     87.0895         0.001500   
    110. D(Au  8,Fe 10,Au  0,Au  3)    -89.7019         0.001500   
    111. D(Au  8,Fe 10,Au  7,Au  6)     36.9017         0.001569   
    112. D(Au  5,Fe 10,Au  7,Au  6)   -179.9985         0.001569   
    113. D(Au  8,Fe 10,Au  0,Au  4)   -176.7974         0.001500   
    114. D(Au  8,Fe 10,Au  0,Au  9)     98.0613         0.001500   
    115. D(Au  5,Fe 10,Au  8,Au  6)    -72.9503         0.001548   
    116. D(Au  9,Fe 10,Au  0,Au  3)    172.2368         0.001500   
    117. D(Au  9,Fe 10,Au  0,Au  4)     85.1413         0.001500   
    118. D(Au  2,Fe 10,Au  1,Au  0)   -111.7368         0.001568   
    119. D(Au  8,Fe 10,Au  0,Au  1)     10.9718         0.001500   
    120. D(Au  4,Fe 10,Au  1,Au  0)      6.8267         0.001568   
    121. D(Au  5,Fe 10,Au  1,Au  0)     82.2453         0.001568   
    122. D(Au  7,Fe 10,Au  1,Au  0)    169.9249         0.001568   
    123. D(Au  1,Fe 10,Au  0,Au  4)    172.2308         0.001500   
    124. D(Au  9,Fe 10,Au  1,Au  0)     62.5801         0.001568   
    125. D(Au  1,Fe 10,Au  2,Au  6)    -95.0133         0.001548   
    126. D(Au  3,Fe 10,Au  2,Au  6)   -161.8324         0.001548   
    127. D(Au  7,Fe 10,Au  0,Au  9)    -42.5510         0.001500   
    128. D(Au  7,Fe 10,Au  0,Au  4)     42.5904         0.001500   
    129. D(Au  7,Fe 10,Au  2,Au  6)     34.6468         0.001548   
    130. D(Au  8,Fe 10,Au  2,Au  6)    -42.0550         0.001548   
    131. D(Au  1,Fe 10,Au  0,Au  3)   -100.6738         0.001500   
    132. D(Au  0,Fe 10,Au  2,Au  6)   -151.8532         0.001548   
    133. D(Au  1,Fe 10,Au  3,Au  0)     54.7123         0.001568   
    134. D(Au  2,Fe 10,Au  3,Au  0)    168.9146         0.001568   
    135. D(Au  7,Fe 10,Au  0,Au  3)    129.6858         0.001500   
    136. D(Au  7,Fe 10,Au  4,Au  0)   -172.6249         0.001549   
    137. D(Au  5,Fe 10,Au  4,Au  0)   -135.5044         0.001549   
    138. D(Au  7,Fe 10,Au  0,Au  1)   -129.6404         0.001500   
    139. D(Au  3,Fe 10,Au  4,Au  0)     60.2127         0.001549   
    140. D(Au  2,Fe 10,Au  4,Au  0)    108.2243         0.001549   
    141. D(Au  5,Fe 10,Au  0,Au  9)    -42.5717         0.001500   
    142. D(Au  1,Fe 10,Au  4,Au  0)     -6.6734         0.001549   
    143. D(Au  9,Fe 10,Au  3,Au  0)     -6.8211         0.001568   
    144. D(Au  5,Fe 10,Au  0,Au  4)     42.5697         0.001500   
    145. D(Au  8,Fe 10,Au  4,Au  0)     19.8287         0.001549   
    146. D(Au  9,Fe 10,Au  4,Au  0)    -62.7594         0.001549   
    147. D(Au  1,Fe 10,Au  7,Au  6)     56.6751         0.001569   
    148. D(Au  2,Fe 10,Au  7,Au  6)    -36.8977         0.001569   
    149. D(Au  3,Fe 10,Au  7,Au  6)    -56.6670         0.001569   
    150. D(Au  4,Fe 10,Au  7,Au  6)   -141.1714         0.001569   
    151. D(Au  8,Fe 10,Au  3,Au  0)    111.7314         0.001568   
    152. D(Au  7,Fe 10,Au  3,Au  0)   -169.9313         0.001568   
    153. D(Au  9,Fe 10,Au  7,Au  6)    141.1668         0.001569   
    154. D(Au  0,Fe 10,Au  7,Au  6)    179.9793         0.001569   
    155. D(Au  1,Fe 10,Au  8,Au  6)    161.8353         0.001548   
    156. D(Au  2,Fe 10,Au  8,Au  6)     42.0518         0.001548   
    157. D(Au  3,Fe 10,Au  8,Au  6)     95.0147         0.001548   
    158. D(Au  4,Fe 10,Au  8,Au  6)    133.6382         0.001548   
    159. D(Au  5,Fe 10,Au  0,Au  3)    129.6651         0.001500   
    160. D(Au  7,Fe 10,Au  8,Au  6)    -34.6480         0.001548   
    161. D(Au  9,Fe 10,Au  8,Au  6)   -147.0362         0.001548   
    162. D(Au  0,Fe 10,Au  8,Au  6)    151.8586         0.001548   
    163. D(Au  1,Fe 10,Au  9,Au  0)    -60.2119         0.001549   
    164. D(Au  2,Fe 10,Au  9,Au  0)    -19.8795         0.001549   
    165. D(Au  3,Fe 10,Au  9,Au  0)      6.6688         0.001549   
    166. D(Au  4,Fe 10,Au  9,Au  0)     62.7650         0.001549   
    167. D(Au  5,Fe 10,Au  3,Au  0)    -82.2471         0.001568   
    168. D(Au  4,Fe 10,Au  3,Au  0)    -62.5797         0.001568   
    169. D(Au  8,Fe 10,Au  9,Au  0)   -108.2207         0.001549   
    170. D(Au  5,Fe 10,Au  0,Au  1)   -129.6611         0.001500   
    -----------------------------------------------------------------

Number of atoms                         .... 11
Number of degrees of freedom            .... 170

         *************************************************************
         *                GEOMETRY OPTIMIZATION CYCLE   1            *
         *************************************************************
---------------------------------
CARTESIAN COORDINATES (ANGSTROEM)
---------------------------------
  Au     8.981238    6.148451    7.549453
  Au     8.742167    8.915427    7.883448
  Au     5.190107    9.124007    5.920678
  Au     7.050534    7.204253    5.822098
  Au     6.195354    5.589083    8.069525
  Au     4.901787    7.205740   10.019453
  Au     4.200172   11.491702    7.037008
  Au     4.213803    9.420565    8.745368
  Au     6.766869   10.718781    7.841828
  Au     7.744919    7.156739    9.957383
  Fe     6.316656    8.176094    8.052659

----------------------------
CARTESIAN COORDINATES (A.U.)
----------------------------
  NO LB      ZA    FRAG     MASS         X           Y           Z
   0 Au   19.0000*   0   196.966   16.972080   11.618889   14.266398
   1 Au   19.0000*   0   196.966   16.520301   16.847716   14.897557
   2 Au   19.0000*   0   196.966    9.807880   17.241874   11.188460
   3 Au   19.0000*   0   196.966   13.323579   13.614065   11.002171
   4 Au   19.0000*   0   196.966   11.707522   10.561837   15.249192
   5 Au   19.0000*   0   196.966    9.263035   13.616874   18.934022
   6 Au   19.0000*   0   196.966    7.937174   21.716169   13.298018
   7 Au   19.0000*   0   196.966    7.962933   17.802289   16.526351
   8 Au   19.0000*   0   196.966   12.787529   20.255561   14.818907
   9 Au   19.0000*   0   196.966   14.635776   13.524277   18.816727
  10 Fe   26.0000    0    55.850   11.936750   15.450579   15.217321
* core charge reduced due to ECP

--------------------------------
INTERNAL COORDINATES (ANGSTROEM)
--------------------------------
 Au     0   0   0     0.000000000000     0.00000000     0.00000000
 Au     1   0   0     2.797295420116     0.00000000     0.00000000
 Au     2   1   0     4.063631518348    93.88804009     0.00000000
 Au     3   2   1     2.675138120646    51.17555810   340.16740968
 Au     1   2   3     2.888688023285    95.02682945   319.17319494
 Au     5   1   2     2.844136551301   116.87185764   324.40882853
 Au     3   2   1     2.798596540185    99.20418070   156.60270406
 Au     6   5   1     2.646142111690   105.30225184    82.16375922
 Au     2   1   3     2.674999062375   136.72705168    21.05987802
 Au     6   5   1     2.844231685491    61.35393924   342.82990118
 Fe     8   6   5     2.539792514063    60.39180497   328.06699933

---------------------------
INTERNAL COORDINATES (A.U.)
---------------------------
 Au     0   0   0     0.000000000000     0.00000000     0.00000000
 Au     1   0   0     5.286122259692     0.00000000     0.00000000
 Au     2   1   0     7.679150678848    93.88804009     0.00000000
 Au     3   2   1     5.055278418433    51.17555810   340.16740968
 Au     1   2   3     5.458829250346    95.02682945   319.17319494
 Au     5   1   2     5.374639169435   116.87185764   324.40882853
 Au     3   2   1     5.288581020289    99.20418070   156.60270406
 Au     6   5   1     5.000483902530   105.30225184    82.16375922
 Au     2   1   3     5.055015636385   136.72705168    21.05987802
 Au     6   5   1     5.374818947000    61.35393924   342.82990118
 Fe     8   6   5     4.799512288563    60.39180497   328.06699933

---------------------
BASIS SET INFORMATION
---------------------
There are 2 groups of distinct atoms

 Group   1 Type Au  : 8s7p6d1f contracted to 6s4p3d1f pattern {311111/4111/411/1}
 Group   2 Type Fe  : 17s11p7d1f contracted to 6s4p4d1f pattern {842111/6311/4111/1}

Atom   0Au   basis set group =>   1
Atom   1Au   basis set group =>   1
Atom   2Au   basis set group =>   1
Atom   3Au   basis set group =>   1
Atom   4Au   basis set group =>   1
Atom   5Au   basis set group =>   1
Atom   6Au   basis set group =>   1
Atom   7Au   basis set group =>   1
Atom   8Au   basis set group =>   1
Atom   9Au   basis set group =>   1
Atom  10Fe   basis set group =>   2
---------------------------------
AUXILIARY/J BASIS SET INFORMATION
---------------------------------
There are 2 groups of distinct atoms

 Group   1 Type Au  : 11s5p5d3f3g contracted to 8s5p5d2f3g pattern {41111111/11111/11111/21/111}
 Group   2 Type Fe  : 19s5p5d3f3g contracted to 8s5p5d2f3g pattern {121111111/11111/11111/21/111}

Atom   0Au   basis set group =>   1
Atom   1Au   basis set group =>   1
Atom   2Au   basis set group =>   1
Atom   3Au   basis set group =>   1
Atom   4Au   basis set group =>   1
Atom   5Au   basis set group =>   1
Atom   6Au   basis set group =>   1
Atom   7Au   basis set group =>   1
Atom   8Au   basis set group =>   1
Atom   9Au   basis set group =>   1
Atom  10Fe   basis set group =>   2
-------------------------
ECP PARAMETER INFORMATION
-------------------------

 Group 1, Type Au ECP Def2-ECP (replacing 60 core electrons, lmax=3)

Atom   0Au   ECP group =>   1
Atom   1Au   ECP group =>   1
Atom   2Au   ECP group =>   1
Atom   3Au   ECP group =>   1
Atom   4Au   ECP group =>   1
Atom   5Au   ECP group =>   1
Atom   6Au   ECP group =>   1
Atom   7Au   ECP group =>   1
Atom   8Au   ECP group =>   1
Atom   9Au   ECP group =>   1

------------------------------------------------------------------------------
                           ORCA GTO INTEGRAL CALCULATION
                           -- RI-GTO INTEGRALS CHOSEN --
------------------------------------------------------------------------------
------------------------------------------------------------------------------
                   ___                                                        
                  /   \      - P O W E R E D   B Y -                         
                 /     \                                                     
                 |  |  |   _    _      __       _____    __    __             
                 |  |  |  | |  | |    /  \     |  _  \  |  |  /  |          
                  \  \/   | |  | |   /    \    | | | |  |  | /  /          
                 / \  \   | |__| |  /  /\  \   | |_| |  |  |/  /          
                |  |  |   |  __  | /  /__\  \  |    /   |      \           
                |  |  |   | |  | | |   __   |  |    \   |  |\   \          
                \     /   | |  | | |  |  |  |  | |\  \  |  | \   \       
                 \___/    |_|  |_| |__|  |__|  |_| \__\ |__|  \__/        
                                                                              
                      - O R C A' S   B I G   F R I E N D -                    
                                      &                                       
                       - I N T E G R A L  F E E D E R -                       
                                                                              
 v1 FN, 2020, v2 2021                                                         
------------------------------------------------------------------------------


Reading SHARK input file pbe.SHARKINP.tmp ... ok
----------------------
SHARK INTEGRAL PACKAGE
----------------------

Number of atoms                             ...     11
Number of basis functions                   ...    445
Number of shells                            ...    155
Maximum angular momentum                    ...      3
Integral batch strategy                     ... SHARK/LIBINT Hybrid
RI-J (if used) integral strategy            ... SPLIT-RIJ (Revised 2003 algorithm where possible)
Printlevel                                  ...      1
Contraction scheme used                     ... SEGMENTED contraction
Coulomb Range Separation                    ... NOT USED
Exchange Range Separation                   ... NOT USED
Finite Nucleus Model                        ... NOT USED
Auxiliary Coulomb fitting basis             ... AVAILABLE
   # of basis functions in Aux-J            ...    979
   # of shells in Aux-J                     ...    253
   Maximum angular momentum in Aux-J        ...      4
Auxiliary J/K fitting basis                 ... NOT available
Auxiliary Correlation fitting basis         ... NOT available
Auxiliary 'external' fitting basis          ... NOT available
Integral threshold                          ...     2.500000e-11
Primitive cut-off                           ...     2.500000e-12
Primitive pair pre-selection threshold      ...     2.500000e-12

Calculating pre-screening integrals         ... done (  0.2 sec) Dimension = 155
Organizing shell pair data                  ... done (  0.2 sec)
Shell pair information
Total number of shell pairs                 ...     12090
Shell pairs after pre-screening             ...     10056
Total number of primitive shell pairs       ...     33105
Primitive shell pairs kept                  ...     20361
          la=0 lb=0:   1569 shell pairs
          la=1 lb=0:   2302 shell pairs
          la=1 lb=1:    865 shell pairs
          la=2 lb=0:   1978 shell pairs
          la=2 lb=1:   1395 shell pairs
          la=2 lb=2:    576 shell pairs
          la=3 lb=0:    547 shell pairs
          la=3 lb=1:    414 shell pairs
          la=3 lb=2:    350 shell pairs
          la=3 lb=3:     60 shell pairs

Calculating one electron integrals          ... done (  0.1 sec)
Calculating ECP integrals                   ... done (  4.3 sec)
Calculating RI/J V-Matrix + Cholesky decomp.... done (  0.0 sec)
Calculating Nuclear repulsion               ... done (  0.0 sec) ENN=   3255.968601167755 Eh

SHARK setup successfully completed in   5.2 seconds

Maximum memory used throughout the entire GTOINT-calculation: 304.3 MB
-------------------------------------------------------------------------------
                                 ORCA SCF
-------------------------------------------------------------------------------

------------
SCF SETTINGS
------------
Hamiltonian:
 Density Functional     Method          .... DFT(GTOs)
 Exchange Functional    Exchange        .... PBE
   PBE kappa parameter   XKappa         ....  0.804000
   PBE mue parameter    XMuePBE         ....  0.219520
 Correlation Functional Correlation     .... PBE
   PBE beta parameter  CBetaPBE         ....  0.066725
 LDA part of GGA corr.  LDAOpt          .... PW91-LDA
 Gradients option       PostSCFGGA      .... off
   Density functional embedding theory  .... OFF
   NL short-range parameter             ....  6.400000
 RI-approximation to the Coulomb term is turned on
   Number of AuxJ basis functions       .... 979


General Settings:
 Integral files         IntName         .... pbe
 Hartree-Fock type      HFTyp           .... UHF
 Total Charge           Charge          ....    0
 Multiplicity           Mult            ....    3
 Number of Electrons    NEL             ....  216
 Basis Dimension        Dim             ....  445
 Nuclear Repulsion      ENuc            ....   3255.9686011678 Eh

Convergence Acceleration:
 DIIS                   CNVDIIS         .... off
 Trust-Rad. Augm. Hess. CNVTRAH         .... auto
   Auto Start mean grad. ratio tolernc. ....  1.125000
   Auto Start start iteration           ....    20
   Auto Start num. interpolation iter.  ....    10
   Max. Number of Micro iterations      ....    16
   Max. Number of Macro iterations      .... Maxiter - #DIIS iter
   Number of Davidson start vectors     ....     2
   Converg. threshold I  (grad. norm)   ....   1.000e-05
   Converg. threshold II (energy diff.) ....   1.000e-08
   Grad. Scal. Fac. for Micro threshold ....   0.100
   Minimum threshold for Micro iter.    ....   0.010
   NR start threshold (gradient norm)   ....   0.001
   Initial trust radius                 ....   0.400
   Minimum AH scaling param. (alpha)    ....   1.000
   Maximum AH scaling param. (alpha)    .... 1000.000
   Orbital update algorithm             .... Taylor
   White noise on init. David. guess    .... on
   Maximum white noise                  ....   0.010
   Quad. conv. algorithm                .... NR
 SOSCF                  CNVSOSCF        .... off
 Level Shifting         CNVShift        .... off
 Zerner damping         CNVZerner       .... off
 Static damping         CNVDamp         .... off
 Fernandez-Rico         CNVRico         .... off

SCF Procedure:
 Maximum # iterations   MaxIter         ....   125
 SCF integral mode      SCFMode         .... Direct
   Integral package                     .... SHARK and LIBINT hybrid scheme
 Reset frequency        DirectResetFreq ....    20
 Integral Threshold     Thresh          ....  2.500e-11 Eh
 Primitive CutOff       TCut            ....  2.500e-12 Eh

Convergence Tolerance:
 Convergence Check Mode ConvCheckMode   .... Total+1el-Energy
 Convergence forced     ConvForced      .... 0
 Energy Change          TolE            ....  1.000e-08 Eh
 1-El. energy change                    ....  1.000e-05 Eh


Diagonalization of the overlap matrix:
Smallest eigenvalue                        ... 4.885e-04
Time for diagonalization                   ...    0.022 sec
Threshold for overlap eigenvalues          ... 1.000e-08
Number of eigenvalues below threshold      ... 0
Time for construction of square roots      ...    0.011 sec
Total time needed                          ...    0.033 sec

Time for model grid setup =    0.722 sec

------------------------------
INITIAL GUESS: MODEL POTENTIAL
------------------------------
Loading Hartree-Fock densities                     ... done
  calling /media/Programs/ORCA501/orca pbe_atom79.inp > pbe_atom79.out in order to generate an atomic fitting density for atom 0 (Au with ECP) on-the-fly... 
    atom 0 (Au), assumed electronic state with S=2: 1s2 2s2 2p6 3s2 3p6 4s2 3d10 4p6 5s2 4d10 5p6 6s1 4f14 5d10           ... done
Calculating cut-offs                               ... done
Initializing the effective Hamiltonian             ... done
Setting up the integral package (SHARK)            ... done
Starting the Coulomb interaction                   ... done (   1.0 sec)
Reading the grid                                   ... done
Mapping shells                                     ... done
Starting the XC term evaluation                    ... done (   1.3 sec)
  promolecular density results
     # of electrons  =    816.012190698
     EX              =  -3712.325086333
     EC              =    -49.570163012
     EX+EC           =  -3761.895249345
Transforming the Hamiltonian                       ... done (   0.0 sec)
Diagonalizing the Hamiltonian                      ... done (   0.0 sec)
Back transforming the eigenvectors                 ... done (   0.0 sec)
Now organizing SCF variables                       ... done
                      ------------------
                      INITIAL GUESS DONE (   3.5 sec)
                      ------------------
-------------------
DFT GRID GENERATION
-------------------

General Integration Accuracy     IntAcc      ... 4.388
Radial Grid Type                 RadialGrid  ... OptM3 with GC (2021)
Angular Grid (max. ang.)         AngularGrid ... 4 (Lebedev-302)
Angular grid pruning method      GridPruning ... 4 (adaptive)
Weight generation scheme         WeightScheme... Becke
Basis function cutoff            BFCut       ... 1.0000e-11
Integration weight cutoff        WCut        ... 1.0000e-14
Angular grids for H and He will be reduced by one unit
Partially contracted basis set               ... off
Rotationally invariant grid construction     ... off

Total number of grid points                  ...   123309
Total number of batches                      ...     1931
Average number of points per batch           ...       63
Average number of grid points per atom       ...    11210
Time for grid setup =    1.806 sec

--------------
SCF ITERATIONS
--------------
ITER       Energy         Delta-E        Max-DP      RMS-DP      [F,P]   Gradient Norm
               ***  Starting incremental Fock matrix formation  ***
                             ****Resetting KDIIS****
                             ****Turning on KDIIS(Cayley)****
  0  -2618.6994605074   0.000000000000 0.86281211  0.00334500  0.3761280   0.264179594
  1  -2620.6630283495  -1.963567842176 1.10058398  0.00359413  0.3364609   0.170218382
  2  -2621.2988811847  -0.635852835176 0.20266023  0.00171924  0.2655229   0.123043722
  3  -2621.5057092283  -0.206828043592 0.28184089  0.00176020  0.1543748   0.075094754
  4  -2621.5349959346  -0.029286706319 0.02557495  0.00056062  0.0498261   0.032556170
  5  -2621.6047519162  -0.069755981617 0.51032697  0.00168219  0.0283517   0.013530052
  6  -2621.6415624039  -0.036810487692 0.09009657  0.00132254  0.0390406   0.018514460
  7  -2621.6818053092  -0.040242905292 0.06346878  0.00040579  0.0120475   0.010011770
  8  -2621.6873139496  -0.005508640407 0.03871387  0.00026248  0.0127732   0.009224035
  9  -2621.6968755274  -0.009561577782 0.01963845  0.00022248  0.0103551   0.003252220
 10  -2621.7003366286  -0.003461101198 0.02099791  0.00024870  0.0082005   0.005071565
 11  -2621.7058463645  -0.005509735917 0.04765855  0.00027080  0.0052332   0.002308509
 12  -2621.7088872466  -0.003040882100 0.03772572  0.00013559  0.0075345   0.004090041
 13  -2621.7098026196  -0.000915372958 0.02402865  0.00014260  0.0076251   0.003433890
 14  -2621.7114742864  -0.001671666821 0.01646620  0.00009279  0.0048348   0.002166028
 15  -2621.7113587234   0.000115563043 0.02265879  0.00014296  0.0077956   0.002534696
 16  -2621.7130875273  -0.001728803956 0.00687682  0.00004803  0.0051222   0.001699243
 17  -2621.7131065987  -0.000019071348 0.01030701  0.00011749  0.0040679   0.001387680
 18  -2621.7143536147  -0.001247016086 0.01607644  0.00006151  0.0036447   0.001390243
 19  -2621.7145657586  -0.000212143887 0.00863403  0.00009547  0.0056841   0.001773022
               *** Restarting incremental Fock matrix formation ***
                             ****Resetting KDIIS****

 WARNING: the maximum gradient error descreased on average only by a factor   1.1
          during the last 20 iterations

                      *** Initiating the TRAH-SCF procedure ***

                    *** KDIIS BlockDiag ( 0.045 sec) ***

TRAH GRID
---------

General Integration Accuracy     IntAcc      ... 3.467
Radial Grid Type                 RadialGrid  ... OptM3 with GC (2021)
Angular Grid (max. ang.)         AngularGrid ... 1 (Lebedev-50)
Angular grid pruning method      GridPruning ... 4 (adaptive)
Weight generation scheme         WeightScheme... Becke
Basis function cutoff            BFCut       ... 1.0000e-11
Integration weight cutoff        WCut        ... 1.0000e-14
Angular grids for H and He will be reduced by one unit
Partially contracted basis set               ... off
Rotationally invariant grid construction     ... off

Total number of grid points                  ...    53253
Total number of batches                      ...      839
Average number of points per batch           ...       63
Average number of grid points per atom       ...     4841

 --------------------------------------------------------------------------------------------
   Iter.        energy            ||Error||_2        Shift      TRadius  Mac/Mic        Rej.
 --------------------------------------------------------------------------------------------
    0      -2621.715450421463     1.961130e-02                     0.400 (TRAH MAcro)   No
WARNING : small    HOMO - LUMO gap : (op =  beta) 0.012007
    0     dE    -7.832254e-05     3.863837e-02    -7.8321e-05      0.004 (TRAH MIcro)
    0     dE    -1.693830e-03     5.872867e-02    -1.6443e-03      0.174 (TRAH MIcro)
    0     dE    -2.584138e-03     5.024541e-02    -2.4218e-03      0.259 (TRAH MIcro)
    0     dE    -3.616807e-03     1.666941e-02    -3.2005e-03      0.361 (TRAH MIcro)
    0     dE    -3.934286e-03     1.524929e-02    -3.4283e-03      0.384 (TRAH MIcro)
    0     dE    -4.092513e-03     8.363504e-03    -3.5438e-03      0.394 (TRAH MIcro)
    0     dE    -4.139034e-03     4.289012e-03    -3.5747e-03      0.397 (TRAH MIcro)
    0     dE    -4.152771e-03     1.440578e-03    -3.5827e-03      0.399 (TRAH MIcro)
    1      -2621.718233210221     2.483665e-02                     0.400 (TRAH MAcro)   No
WARNING : small    HOMO - LUMO gap : (op =  beta) 0.012909
    1     dE    -1.253537e-04     1.668795e-02    -1.2535e-04      0.005 (TRAH MIcro)
    1     dE    -2.590747e-04     8.264933e-03    -2.5895e-04      0.022 (TRAH MIcro)
    1     dE    -4.069551e-04     8.294774e-03    -4.0552e-04      0.060 (TRAH MIcro)
    1     dE    -4.427453e-04     4.265813e-03    -4.4061e-04      0.070 (TRAH MIcro)
    1     dE    -4.517056e-04     2.270272e-03    -4.4938e-04      0.072 (TRAH MIcro)
    2      -2621.718700338570     2.455996e-03                     0.480 (TRAH MAcro)   No
WARNING : small    HOMO - LUMO gap : (op =  beta) 0.012337
    2     dE    -9.388138e-07     5.735221e-03    -9.3881e-07      0.000 (TRAH MIcro)
    2     dE    -6.177310e-06     1.998676e-03    -6.1771e-06      0.006 (TRAH MIcro)
    2     dE    -7.916097e-06     2.353705e-03    -7.9155e-06      0.009 (TRAH MIcro)
    2     dE    -9.818082e-06     1.591771e-03    -9.8167e-06      0.012 (TRAH MIcro)
    2     dE    -1.074222e-05     5.493811e-04    -1.0740e-05      0.014 (TRAH MIcro)
    2     dE    -1.103451e-05     5.459923e-04    -1.1032e-05      0.015 (TRAH MIcro)
    2     dE    -1.116253e-05     3.622947e-04    -1.1160e-05      0.015 (TRAH MIcro)
    2     dE    -1.122052e-05     2.104635e-04    -1.1218e-05      0.016 (TRAH MIcro)
    3      -2621.718711595964     2.223415e-04                           (NR   MAcro)
WARNING : small    HOMO - LUMO gap : (op =  beta) 0.012355
    3     dE    -1.302001e-08     1.297207e-04                           (NR   MIcro)
    3     dE    -2.026542e-08     1.113242e-04                           (NR   MIcro)
    3     dE    -3.577656e-08     1.270016e-04                           (NR   MIcro)
    3     dE    -4.785058e-08     1.082490e-04                           (NR   MIcro)
    3     dE    -5.621395e-08     8.248296e-05                           (NR   MIcro)
    3     dE    -6.135627e-08     6.548504e-05                           (NR   MIcro)
    3     dE    -6.859894e-08     1.142878e-04                           (NR   MIcro)
    3     dE    -1.132106e-07     4.556279e-04                           (NR   MIcro)
    3     dE     1.341104e-07     9.024866e-04                           (NR   MIcro)
    3     dE     1.274787e-08     1.670500e-04                           (NR   MIcro)
    3     dE    -4.991448e-09     8.645333e-05                           (NR   MIcro)
    3     dE    -7.948418e-09     5.063101e-05                           (NR   MIcro)
    3     dE    -8.713121e-09     2.406766e-05                           (NR   MIcro)
    3     dE    -8.939850e-09     8.151303e-06                           (NR   MIcro)
    3     dE    -8.986488e-09     5.240115e-06                           (NR   MIcro)
    4      -2621.718711603265     1.201770e-05                           (NR   MAcro)
WARNING : small    HOMO - LUMO gap : (op =  beta) 0.012341
    4     dE    -1.800261e-10     1.584414e-05                           (NR   MIcro)
    4     dE    -2.953628e-10     1.323371e-05                           (NR   MIcro)
    4     dE    -4.065204e-10     1.015745e-05                           (NR   MIcro)
    4     dE    -4.779857e-10     5.898269e-06                           (NR   MIcro)
    4     dE    -4.993435e-10     4.164187e-06                           (NR   MIcro)
    4     dE    -5.168134e-10     4.145830e-06                           (NR   MIcro)
    4     dE    -5.354426e-10     4.310040e-06                           (NR   MIcro)
    4     dE    -5.750416e-10     7.567852e-06                           (NR   MIcro)
    4     dE    -1.042352e-09     5.004132e-05                           (NR   MIcro)
    4     dE    -2.494888e-10     1.552815e-05                           (NR   MIcro)
    4     dE    -3.405257e-10     5.833640e-06                           (NR   MIcro)
    4     dE    -3.581930e-10     3.330451e-06                           (NR   MIcro)
    4     dE    -3.654519e-10     1.854178e-06                           (NR   MIcro)
    4     dE    -3.674449e-10     9.580246e-07                           (NR   MIcro)
    5      -2621.718711603693     1.071387e-06                           (NR   MAcro)
WARNING : small    HOMO - LUMO gap : (op =  beta) 0.012339

               *****************************************************
               *                     SUCCESS                       *
               *           SCF CONVERGED AFTER  76 CYCLES          *
               *****************************************************


----------------
TOTAL SCF ENERGY
----------------

Total Energy       :        -2621.71871160 Eh          -71340.59303 eV

Components:
Nuclear Repulsion  :         3255.96860117 Eh           88599.40994 eV
Electronic Energy  :        -5877.68731277 Eh         -159940.00297 eV
One Electron Energy:       -10637.39229120 Eh         -289458.16001 eV
Two Electron Energy:         4759.70497843 Eh          129518.15704 eV

Virial components:
Potential Energy   :        -4341.33497026 Eh         -118133.73034 eV
Kinetic Energy     :         1719.61625866 Eh           46793.13732 eV
Virial Ratio       :            2.52459521


DFT components:
N(Alpha)           :      108.999991022508 electrons
N(Beta)            :      106.999989306124 electrons
N(Total)           :      215.999980328633 electrons
E(X)               :     -174.809118794033 Eh       
E(C)               :       -9.414827273805 Eh       
E(XC)              :     -184.223946067838 Eh       
DFET-embed. en.    :        0.000000000000 Eh       

---------------
SCF CONVERGENCE
---------------

  Last Energy change         ...   -4.2792e-10  Tolerance :   1.0000e-08
  Last Orbital Gradient      ...    1.0714e-06  Tolerance :   1.0000e-05
  Last Orbital Rotation      ...    4.3271e-04

             **** THE GBW FILE WAS UPDATED (pbe.gbw) ****
             **** DENSITY pbe.scfp WAS UPDATED ****
             **** ENERGY FILE WAS UPDATED (pbe.en.tmp) ****
----------------------
UHF SPIN CONTAMINATION
----------------------

Warning: in a DFT calculation there is little theoretical justification to 
         calculate <S**2> as in Hartree-Fock theory. We will do it anyways
         but you should keep in mind that the values have only limited relevance

Expectation value of <S**2>     :     3.017311
Ideal value S*(S+1) for S=1.0   :     2.000000
Deviation                       :     1.017311

             **** THE GBW FILE WAS UPDATED (pbe.gbw) ****
             **** DENSITY pbe.scfp WAS UPDATED ****
----------------
ORBITAL ENERGIES
----------------
                 SPIN UP ORBITALS
  NO   OCC          E(Eh)            E(eV) 
   0   1.0000    -254.741023     -6931.8556 
   1   1.0000     -29.580414      -804.9240 
   2   1.0000     -25.527585      -694.6409 
   3   1.0000     -25.513033      -694.2449 
   4   1.0000     -25.508142      -694.1118 
   5   1.0000      -4.029259      -109.6417 
   6   1.0000      -4.022600      -109.4605 
   7   1.0000      -4.020409      -109.4009 
   8   1.0000      -4.020390      -109.4004 
   9   1.0000      -4.019680      -109.3811 
  10   1.0000      -4.019613      -109.3792 
  11   1.0000      -4.019428      -109.3742 
  12   1.0000      -4.019368      -109.3726 
  13   1.0000      -4.016267      -109.2882 
  14   1.0000      -4.012048      -109.1734 
  15   1.0000      -3.354751       -91.2874 
  16   1.0000      -2.248616       -61.1879 
  17   1.0000      -2.244316       -61.0709 
  18   1.0000      -2.239855       -60.9496 
  19   1.0000      -2.239674       -60.9446 
  20   1.0000      -2.239019       -60.9268 
  21   1.0000      -2.237529       -60.8863 
  22   1.0000      -2.236628       -60.8617 
  23   1.0000      -2.236598       -60.8609 
  24   1.0000      -2.235839       -60.8403 
  25   1.0000      -2.235751       -60.8379 
  26   1.0000      -2.235293       -60.8254 
  27   1.0000      -2.235131       -60.8210 
  28   1.0000      -2.234520       -60.8044 
  29   1.0000      -2.234135       -60.7939 
  30   1.0000      -2.233233       -60.7694 
  31   1.0000      -2.232718       -60.7553 
  32   1.0000      -2.232491       -60.7492 
  33   1.0000      -2.231732       -60.7285 
  34   1.0000      -2.231130       -60.7121 
  35   1.0000      -2.229736       -60.6742 
  36   1.0000      -2.228498       -60.6405 
  37   1.0000      -2.227575       -60.6154 
  38   1.0000      -2.227120       -60.6030 
  39   1.0000      -2.226993       -60.5996 
  40   1.0000      -2.226804       -60.5944 
  41   1.0000      -2.225825       -60.5678 
  42   1.0000      -2.225292       -60.5533 
  43   1.0000      -2.225175       -60.5501 
  44   1.0000      -2.224961       -60.5443 
  45   1.0000      -2.224037       -60.5191 
  46   1.0000      -2.191428       -59.6318 
  47   1.0000      -2.161126       -58.8072 
  48   1.0000      -2.152876       -58.5827 
  49   1.0000      -0.414826       -11.2880 
  50   1.0000      -0.381005       -10.3677 
  51   1.0000      -0.369564       -10.0563 
  52   1.0000      -0.367975       -10.0131 
  53   1.0000      -0.362224        -9.8566 
  54   1.0000      -0.358811        -9.7637 
  55   1.0000      -0.356932        -9.7126 
  56   1.0000      -0.347576        -9.4580 
  57   1.0000      -0.341481        -9.2922 
  58   1.0000      -0.336906        -9.1677 
  59   1.0000      -0.334238        -9.0951 
  60   1.0000      -0.328571        -8.9409 
  61   1.0000      -0.328464        -8.9380 
  62   1.0000      -0.327571        -8.9137 
  63   1.0000      -0.325641        -8.8611 
  64   1.0000      -0.321748        -8.7552 
  65   1.0000      -0.320983        -8.7344 
  66   1.0000      -0.316971        -8.6252 
  67   1.0000      -0.316431        -8.6105 
  68   1.0000      -0.315084        -8.5739 
  69   1.0000      -0.313049        -8.5185 
  70   1.0000      -0.301668        -8.2088 
  71   1.0000      -0.301320        -8.1993 
  72   1.0000      -0.298051        -8.1104 
  73   1.0000      -0.295285        -8.0351 
  74   1.0000      -0.291669        -7.9367 
  75   1.0000      -0.286905        -7.8071 
  76   1.0000      -0.284122        -7.7313 
  77   1.0000      -0.284032        -7.7289 
  78   1.0000      -0.281420        -7.6578 
  79   1.0000      -0.279575        -7.6076 
  80   1.0000      -0.278098        -7.5674 
  81   1.0000      -0.274977        -7.4825 
  82   1.0000      -0.273738        -7.4488 
  83   1.0000      -0.272871        -7.4252 
  84   1.0000      -0.269128        -7.3233 
  85   1.0000      -0.267637        -7.2828 
  86   1.0000      -0.267611        -7.2821 
  87   1.0000      -0.265145        -7.2150 
  88   1.0000      -0.260317        -7.0836 
  89   1.0000      -0.260164        -7.0794 
  90   1.0000      -0.257966        -7.0196 
  91   1.0000      -0.257669        -7.0115 
  92   1.0000      -0.254499        -6.9253 
  93   1.0000      -0.252716        -6.8767 
  94   1.0000      -0.251127        -6.8335 
  95   1.0000      -0.250288        -6.8107 
  96   1.0000      -0.249271        -6.7830 
  97   1.0000      -0.246769        -6.7149 
  98   1.0000      -0.243990        -6.6393 
  99   1.0000      -0.243210        -6.6181 
 100   1.0000      -0.240506        -6.5445 
 101   1.0000      -0.238830        -6.4989 
 102   1.0000      -0.237276        -6.4566 
 103   1.0000      -0.232745        -6.3333 
 104   1.0000      -0.229763        -6.2522 
 105   1.0000      -0.226211        -6.1555 
 106   1.0000      -0.219488        -5.9726 
 107   1.0000      -0.215041        -5.8516 
 108   1.0000      -0.204441        -5.5631 
 109   0.0000      -0.175059        -4.7636 
 110   0.0000      -0.163535        -4.4500 
 111   0.0000      -0.136749        -3.7211 
 112   0.0000      -0.132285        -3.5997 
 113   0.0000      -0.123879        -3.3709 
 114   0.0000      -0.098778        -2.6879 
 115   0.0000      -0.066003        -1.7960 
 116   0.0000      -0.060738        -1.6528 
 117   0.0000      -0.052350        -1.4245 
 118   0.0000      -0.043595        -1.1863 
 119   0.0000      -0.038893        -1.0583 
 120   0.0000      -0.035028        -0.9532 
 121   0.0000      -0.032849        -0.8939 
 122   0.0000      -0.023077        -0.6280 
 123   0.0000      -0.007759        -0.2111 
 124   0.0000       0.009732         0.2648 
 125   0.0000       0.021719         0.5910 
 126   0.0000       0.024909         0.6778 
 127   0.0000       0.039718         1.0808 
 128   0.0000       0.045610         1.2411 
 129   0.0000       0.049471         1.3462 
 130   0.0000       0.052565         1.4304 
 131   0.0000       0.055081         1.4988 
 132   0.0000       0.058684         1.5969 
 133   0.0000       0.060843         1.6556 
 134   0.0000       0.064334         1.7506 
 135   0.0000       0.072471         1.9720 
 136   0.0000       0.078726         2.1422 
 137   0.0000       0.078951         2.1484 
 138   0.0000       0.090991         2.4760 
 139   0.0000       0.095194         2.5904 
 140   0.0000       0.096571         2.6278 
 141   0.0000       0.114500         3.1157 
 142   0.0000       0.131865         3.5882 
 143   0.0000       0.132594         3.6081 
 144   0.0000       0.147095         4.0027 
 145   0.0000       0.150349         4.0912 
 146   0.0000       0.151876         4.1328 
 147   0.0000       0.154728         4.2104 
 148   0.0000       0.169098         4.6014 
 149   0.0000       0.172698         4.6993 
 150   0.0000       0.180369         4.9081 
 151   0.0000       0.185833         5.0568 
 152   0.0000       0.186724         5.0810 
 153   0.0000       0.200023         5.4429 
 154   0.0000       0.208202         5.6655 
 155   0.0000       0.221122         6.0170 
 156   0.0000       0.223988         6.0950 
 157   0.0000       0.231157         6.2901 
 158   0.0000       0.238834         6.4990 
 159   0.0000       0.241619         6.5748 
 160   0.0000       0.242196         6.5905 
 161   0.0000       0.249871         6.7993 
 162   0.0000       0.257081         6.9955 
 163   0.0000       0.260491         7.0883 
 164   0.0000       0.268217         7.2985 
 165   0.0000       0.272797         7.4232 
 166   0.0000       0.273685         7.4473 
 167   0.0000       0.280059         7.6208 
 168   0.0000       0.286566         7.7979 
 169   0.0000       0.291880         7.9425 
 170   0.0000       0.291902         7.9431 
 171   0.0000       0.293338         7.9821 
 172   0.0000       0.303687         8.2637 
 173   0.0000       0.309568         8.4238 
 174   0.0000       0.313932         8.5425 
 175   0.0000       0.318226         8.6594 
 176   0.0000       0.328164         8.9298 
 177   0.0000       0.336097         9.1457 
 178   0.0000       0.340945         9.2776 
 179   0.0000       0.346051         9.4165 
 180   0.0000       0.351570         9.5667 
 181   0.0000       0.355767         9.6809 
 182   0.0000       0.360103         9.7989 
 183   0.0000       0.360632         9.8133 
 184   0.0000       0.368131        10.0174 
 185   0.0000       0.375206        10.2099 
 186   0.0000       0.382432        10.4065 
 187   0.0000       0.386994        10.5306 
 188   0.0000       0.392343        10.6762 
 189   0.0000       0.399808        10.8793 
 190   0.0000       0.407218        11.0810 
 191   0.0000       0.411450        11.1961 
 192   0.0000       0.425932        11.5902 
 193   0.0000       0.428253        11.6534 
 194   0.0000       0.433073        11.7845 
 195   0.0000       0.441144        12.0041 
 196   0.0000       0.445339        12.1183 
 197   0.0000       0.448745        12.2110 
 198   0.0000       0.458484        12.4760 
 199   0.0000       0.464713        12.6455 
 200   0.0000       0.470717        12.8089 
 201   0.0000       0.482761        13.1366 
 202   0.0000       0.486534        13.2393 
 203   0.0000       0.492303        13.3962 
 204   0.0000       0.492911        13.4128 
 205   0.0000       0.500199        13.6111 
 206   0.0000       0.500682        13.6242 
 207   0.0000       0.507544        13.8110 
 208   0.0000       0.517936        14.0937 
 209   0.0000       0.518038        14.0965 
 210   0.0000       0.520770        14.1709 
 211   0.0000       0.532310        14.4849 
 212   0.0000       0.548759        14.9325 
 213   0.0000       0.556470        15.1423 
 214   0.0000       0.597849        16.2683 
 215   0.0000       0.616084        16.7645 
 216   0.0000       0.630857        17.1665 
 217   0.0000       0.659454        17.9446 
 218   0.0000       0.666011        18.1231 
 219   0.0000       0.679396        18.4873 
 220   0.0000       0.693751        18.8779 
 221   0.0000       0.706561        19.2265 
 222   0.0000       0.708943        19.2913 
 223   0.0000       0.728570        19.8254 
 224   0.0000       0.746377        20.3100 
 225   0.0000       0.747253        20.3338 
 226   0.0000       0.755108        20.5475 
 227   0.0000       0.771289        20.9878 
 228   0.0000       0.781168        21.2567 
 229   0.0000       0.789482        21.4829 
 230   0.0000       0.796772        21.6813 
 231   0.0000       0.824514        22.4362 
 232   0.0000       0.824628        22.4393 
 233   0.0000       0.837564        22.7913 
 234   0.0000       0.856077        23.2950 
 235   0.0000       0.861045        23.4302 
 236   0.0000       0.881114        23.9763 
 237   0.0000       0.898124        24.4392 
 238   0.0000       0.918936        25.0055 
 239   0.0000       0.926691        25.2165 
 240   0.0000       0.941438        25.6178 
 241   0.0000       0.965000        26.2590 
 242   0.0000       0.968810        26.3627 
 243   0.0000       0.985392        26.8139 
 244   0.0000       1.007043        27.4030 
 245   0.0000       1.067904        29.0592 
 246   0.0000       1.100134        29.9362 
 247   0.0000       1.147567        31.2269 
 248   0.0000       1.177118        32.0310 
 249   0.0000       1.208690        32.8901 
 250   0.0000       1.219168        33.1752 
 251   0.0000       1.257699        34.2237 
 252   0.0000       1.276219        34.7277 
 253   0.0000       1.279331        34.8124 
 254   0.0000       1.293805        35.2062 
 255   0.0000       1.308716        35.6120 
 256   0.0000       1.312315        35.7099 
 257   0.0000       1.325149        36.0591 
 258   0.0000       1.327108        36.1125 
 259   0.0000       1.344287        36.5799 
 260   0.0000       1.349460        36.7207 
 261   0.0000       1.354270        36.8516 
 262   0.0000       1.367945        37.2237 
 263   0.0000       1.379932        37.5498 
 264   0.0000       1.384269        37.6679 
 265   0.0000       1.389486        37.8098 
 266   0.0000       1.391426        37.8626 
 267   0.0000       1.399561        38.0840 
 268   0.0000       1.413123        38.4530 
 269   0.0000       1.422228        38.7008 
 270   0.0000       1.428111        38.8609 
 271   0.0000       1.430327        38.9212 
 272   0.0000       1.432974        38.9932 
 273   0.0000       1.443087        39.2684 
 274   0.0000       1.444268        39.3005 
 275   0.0000       1.444359        39.3030 
 276   0.0000       1.454457        39.5778 
 277   0.0000       1.456103        39.6226 
 278   0.0000       1.466085        39.8942 
 279   0.0000       1.466879        39.9158 
 280   0.0000       1.470178        40.0056 
 281   0.0000       1.470795        40.0224 
 282   0.0000       1.476536        40.1786 
 283   0.0000       1.477642        40.2087 
 284   0.0000       1.479094        40.2482 
 285   0.0000       1.479537        40.2603 
 286   0.0000       1.482651        40.3450 
 287   0.0000       1.484014        40.3821 
 288   0.0000       1.489456        40.5302 
 289   0.0000       1.491373        40.5823 
 290   0.0000       1.494816        40.6760 
 291   0.0000       1.494829        40.6764 
 292   0.0000       1.496963        40.7344 
 293   0.0000       1.497699        40.7545 
 294   0.0000       1.498959        40.7888 
 295   0.0000       1.500586        40.8330 
 296   0.0000       1.501459        40.8568 
 297   0.0000       1.501798        40.8660 
 298   0.0000       1.505258        40.9602 
 299   0.0000       1.506699        40.9994 
 300   0.0000       1.509334        41.0711 
 301   0.0000       1.509605        41.0784 
 302   0.0000       1.515016        41.2257 
 303   0.0000       1.515583        41.2411 
 304   0.0000       1.516206        41.2581 
 305   0.0000       1.517625        41.2967 
 306   0.0000       1.520302        41.3695 
 307   0.0000       1.521398        41.3993 
 308   0.0000       1.522616        41.4325 
 309   0.0000       1.525004        41.4975 
 310   0.0000       1.528910        41.6037 
 311   0.0000       1.529258        41.6132 
 312   0.0000       1.530929        41.6587 
 313   0.0000       1.538196        41.8564 
 314   0.0000       1.538214        41.8569 
 315   0.0000       1.541270        41.9401 
 316   0.0000       1.543718        42.0067 
 317   0.0000       1.545021        42.0422 
 318   0.0000       1.551962        42.2310 
 319   0.0000       1.554245        42.2932 
 320   0.0000       1.556511        42.3548 
 321   0.0000       1.556513        42.3549 
 322   0.0000       1.560208        42.4554 
 323   0.0000       1.563661        42.5494 
 324   0.0000       1.564902        42.5832 
 325   0.0000       1.569124        42.6980 
 326   0.0000       1.569334        42.7037 
 327   0.0000       1.569629        42.7118 
 328   0.0000       1.572498        42.7898 
 329   0.0000       1.573928        42.8288 
 330   0.0000       1.581769        43.0421 
 331   0.0000       1.583353        43.0852 
 332   0.0000       1.586484        43.1704 
 333   0.0000       1.588127        43.2151 
 334   0.0000       1.590018        43.2666 
 335   0.0000       1.599732        43.5309 
 336   0.0000       1.600819        43.5605 
 337   0.0000       1.603589        43.6359 
 338   0.0000       1.604781        43.6683 
 339   0.0000       1.609415        43.7944 
 340   0.0000       1.613914        43.9168 
 341   0.0000       1.621493        44.1231 
 342   0.0000       1.621591        44.1257 
 343   0.0000       1.626835        44.2684 
 344   0.0000       1.639458        44.6119 
 345   0.0000       1.647369        44.8272 
 346   0.0000       1.648515        44.8584 
 347   0.0000       1.655369        45.0449 
 348   0.0000       1.658334        45.1256 
 349   0.0000       1.683838        45.8196 
 350   0.0000       1.687877        45.9295 
 351   0.0000       1.709104        46.5071 
 352   0.0000       1.719301        46.7846 
 353   0.0000       1.738273        47.3008 
 354   0.0000       1.743124        47.4328 
 355   0.0000       1.764125        48.0043 
 356   0.0000       1.768282        48.1174 
 357   0.0000       1.769894        48.1613 
 358   0.0000       1.776460        48.3399 
 359   0.0000       1.792872        48.7865 
 360   0.0000       1.817855        49.4664 
 361   0.0000       1.831162        49.8285 
 362   0.0000       1.842754        50.1439 
 363   0.0000       1.867589        50.8197 
 364   0.0000       1.877017        51.0762 
 365   0.0000       1.911535        52.0155 
 366   0.0000       1.943513        52.8857 
 367   0.0000       1.945222        52.9322 
 368   0.0000       2.016740        54.8783 
 369   0.0000       2.095421        57.0193 
 370   0.0000       2.113949        57.5235 
 371   0.0000       2.215775        60.2943 
 372   0.0000       2.274401        61.8896 
 373   0.0000       2.297002        62.5046 
 374   0.0000       2.297689        62.5233 
 375   0.0000       2.353951        64.0543 
 376   0.0000       2.392174        65.0944 
 377   0.0000       2.417528        65.7843 
 378   0.0000       2.455580        66.8197 
 379   0.0000       2.465359        67.0858 
 380   0.0000       2.488555        67.7170 
 381   0.0000       2.514787        68.4308 
 382   0.0000       3.239946        88.1634 
 383   0.0000       3.554351        96.7188 
 384   0.0000       3.577853        97.3583 
 385   0.0000       3.605566        98.1124 
 386   0.0000       3.723739       101.3281 
 387   0.0000       3.760267       102.3221 
 388   0.0000       3.913951       106.5040 
 389   0.0000       3.915942       106.5582 
 390   0.0000       3.933037       107.0234 
 391   0.0000       3.941037       107.2411 
 392   0.0000       3.948667       107.4487 
 393   0.0000       3.953263       107.5738 
 394   0.0000       3.963903       107.8633 
 395   0.0000      23.575808       641.5303 
 396   0.0000      23.751645       646.3151 
 397   0.0000      23.899530       650.3393 
 398   0.0000      24.398373       663.9135 
 399   0.0000      24.496778       666.5912 
 400   0.0000      24.580778       668.8770 
 401   0.0000      24.671681       671.3506 
 402   0.0000      24.717758       672.6044 
 403   0.0000      25.239714       686.8075 
 404   0.0000      25.473304       693.1638 
 405   0.0000      25.566902       695.7108 
 406   0.0000      25.636900       697.6155 
 407   0.0000      25.901438       704.8140 
 408   0.0000      25.973962       706.7875 
 409   0.0000      26.039730       708.5771 
 410   0.0000      26.163727       711.9512 
 411   0.0000      26.267055       714.7629 
 412   0.0000      26.361645       717.3368 
 413   0.0000      26.441209       719.5019 
 414   0.0000      26.808860       729.5062 
 415   0.0000      26.853204       730.7128 
 416   0.0000      27.060278       736.3476 
 417   0.0000      27.173507       739.4287 
 418   0.0000      27.493485       748.1358 
 419   0.0000      27.533517       749.2251 
 420   0.0000      27.573838       750.3223 
 421   0.0000      27.954645       760.6846 
 422   0.0000      28.898919       786.3796 
 423   0.0000      29.010136       789.4059 
 424   0.0000      30.392730       827.0282 
 425   0.0000      43.840520      1192.9612 
 426   0.0000      43.947818      1195.8809 
 427   0.0000      43.996385      1197.2025 
 428   0.0000      44.002975      1197.3818 
 429   0.0000      44.047219      1198.5858 
 430   0.0000      44.084283      1199.5943 
 431   0.0000      44.131335      1200.8747 
 432   0.0000      44.134587      1200.9632 
 433   0.0000      44.143962      1201.2183 
 434   0.0000      44.184512      1202.3217 
 435   0.0000     205.068829      5580.2065 
 436   0.0000     205.112938      5581.4068 
 437   0.0000     205.131939      5581.9238 
 438   0.0000     205.132679      5581.9440 
 439   0.0000     205.155093      5582.5539 
 440   0.0000     205.172088      5583.0164 
 441   0.0000     205.185892      5583.3920 
 442   0.0000     205.189347      5583.4860 
 443   0.0000     205.192054      5583.5597 
 444   0.0000     205.211769      5584.0961 

                 SPIN DOWN ORBITALS
  NO   OCC          E(Eh)            E(eV) 
   0   1.0000    -254.740370     -6931.8379 
   1   1.0000     -29.527370      -803.4806 
   2   1.0000     -25.482499      -693.4141 
   3   1.0000     -25.474238      -693.1892 
   4   1.0000     -25.471835      -693.1239 
   5   1.0000      -4.028232      -109.6138 
   6   1.0000      -4.023174      -109.4761 
   7   1.0000      -4.019819      -109.3848 
   8   1.0000      -4.019798      -109.3843 
   9   1.0000      -4.019599      -109.3788 
  10   1.0000      -4.019532      -109.3770 
  11   1.0000      -4.019030      -109.3634 
  12   1.0000      -4.018970      -109.3617 
  13   1.0000      -4.017077      -109.3102 
  14   1.0000      -4.012948      -109.1979 
  15   1.0000      -3.234663       -88.0197 
  16   1.0000      -2.247265       -61.1512 
  17   1.0000      -2.242951       -61.0338 
  18   1.0000      -2.239100       -60.9290 
  19   1.0000      -2.238848       -60.9222 
  20   1.0000      -2.238679       -60.9176 
  21   1.0000      -2.237714       -60.8913 
  22   1.0000      -2.236108       -60.8476 
  23   1.0000      -2.235685       -60.8361 
  24   1.0000      -2.234887       -60.8144 
  25   1.0000      -2.234722       -60.8099 
  26   1.0000      -2.234567       -60.8057 
  27   1.0000      -2.234503       -60.8039 
  28   1.0000      -2.234213       -60.7960 
  29   1.0000      -2.233997       -60.7901 
  30   1.0000      -2.233091       -60.7655 
  31   1.0000      -2.232703       -60.7549 
  32   1.0000      -2.232556       -60.7509 
  33   1.0000      -2.232234       -60.7422 
  34   1.0000      -2.231328       -60.7175 
  35   1.0000      -2.229899       -60.6786 
  36   1.0000      -2.228689       -60.6457 
  37   1.0000      -2.227923       -60.6249 
  38   1.0000      -2.227577       -60.6154 
  39   1.0000      -2.227482       -60.6129 
  40   1.0000      -2.227104       -60.6026 
  41   1.0000      -2.226212       -60.5783 
  42   1.0000      -2.225928       -60.5706 
  43   1.0000      -2.225791       -60.5669 
  44   1.0000      -2.225241       -60.5519 
  45   1.0000      -2.225021       -60.5459 
  46   1.0000      -2.059384       -56.0387 
  47   1.0000      -2.047114       -55.7048 
  48   1.0000      -2.046906       -55.6991 
  49   1.0000      -0.410345       -11.1661 
  50   1.0000      -0.381744       -10.3878 
  51   1.0000      -0.365530        -9.9466 
  52   1.0000      -0.362651        -9.8682 
  53   1.0000      -0.358150        -9.7457 
  54   1.0000      -0.356275        -9.6947 
  55   1.0000      -0.352689        -9.5972 
  56   1.0000      -0.341000        -9.2791 
  57   1.0000      -0.335056        -9.1173 
  58   1.0000      -0.332168        -9.0387 
  59   1.0000      -0.330869        -9.0034 
  60   1.0000      -0.329339        -8.9618 
  61   1.0000      -0.326951        -8.8968 
  62   1.0000      -0.325220        -8.8497 
  63   1.0000      -0.322545        -8.7769 
  64   1.0000      -0.320545        -8.7225 
  65   1.0000      -0.316704        -8.6180 
  66   1.0000      -0.316548        -8.6137 
  67   1.0000      -0.313130        -8.5207 
  68   1.0000      -0.311529        -8.4771 
  69   1.0000      -0.305607        -8.3160 
  70   1.0000      -0.302624        -8.2348 
  71   1.0000      -0.301744        -8.2109 
  72   1.0000      -0.297604        -8.0982 
  73   1.0000      -0.295285        -8.0351 
  74   1.0000      -0.290411        -7.9025 
  75   1.0000      -0.287570        -7.8252 
  76   1.0000      -0.283598        -7.7171 
  77   1.0000      -0.282151        -7.6777 
  78   1.0000      -0.280472        -7.6320 
  79   1.0000      -0.279273        -7.5994 
  80   1.0000      -0.276239        -7.5168 
  81   1.0000      -0.275805        -7.5050 
  82   1.0000      -0.273542        -7.4435 
  83   1.0000      -0.269998        -7.3470 
  84   1.0000      -0.268977        -7.3192 
  85   1.0000      -0.268471        -7.3055 
  86   1.0000      -0.267580        -7.2812 
  87   1.0000      -0.265813        -7.2331 
  88   1.0000      -0.260879        -7.0989 
  89   1.0000      -0.260501        -7.0886 
  90   1.0000      -0.258424        -7.0321 
  91   1.0000      -0.255335        -6.9480 
  92   1.0000      -0.254307        -6.9201 
  93   1.0000      -0.253389        -6.8951 
  94   1.0000      -0.250815        -6.8250 
  95   1.0000      -0.250693        -6.8217 
  96   1.0000      -0.246806        -6.7159 
  97   1.0000      -0.245906        -6.6914 
  98   1.0000      -0.244711        -6.6589 
  99   1.0000      -0.241044        -6.5591 
 100   1.0000      -0.238322        -6.4851 
 101   1.0000      -0.234482        -6.3806 
 102   1.0000      -0.222052        -6.0423 
 103   1.0000      -0.211653        -5.7594 
 104   1.0000      -0.196341        -5.3427 
 105   1.0000      -0.188166        -5.1203 
 106   1.0000      -0.168772        -4.5925 
 107   0.0000      -0.156434        -4.2568 
 108   0.0000      -0.155592        -4.2339 
 109   0.0000      -0.145221        -3.9517 
 110   0.0000      -0.139693        -3.8012 
 111   0.0000      -0.132161        -3.5963 
 112   0.0000      -0.123112        -3.3501 
 113   0.0000      -0.118992        -3.2379 
 114   0.0000      -0.096945        -2.6380 
 115   0.0000      -0.065865        -1.7923 
 116   0.0000      -0.061340        -1.6692 
 117   0.0000      -0.054451        -1.4817 
 118   0.0000      -0.043000        -1.1701 
 119   0.0000      -0.041255        -1.1226 
 120   0.0000      -0.036824        -1.0020 
 121   0.0000      -0.032934        -0.8962 
 122   0.0000      -0.022077        -0.6007 
 123   0.0000      -0.008921        -0.2427 
 124   0.0000       0.009512         0.2588 
 125   0.0000       0.021259         0.5785 
 126   0.0000       0.024042         0.6542 
 127   0.0000       0.039159         1.0656 
 128   0.0000       0.043712         1.1895 
 129   0.0000       0.047903         1.3035 
 130   0.0000       0.052014         1.4154 
 131   0.0000       0.054396         1.4802 
 132   0.0000       0.055970         1.5230 
 133   0.0000       0.059291         1.6134 
 134   0.0000       0.063743         1.7345 
 135   0.0000       0.071079         1.9342 
 136   0.0000       0.075004         2.0410 
 137   0.0000       0.076671         2.0863 
 138   0.0000       0.090347         2.4585 
 139   0.0000       0.094170         2.5625 
 140   0.0000       0.094286         2.5657 
 141   0.0000       0.113048         3.0762 
 142   0.0000       0.128943         3.5087 
 143   0.0000       0.131410         3.5759 
 144   0.0000       0.148980         4.0539 
 145   0.0000       0.151722         4.1286 
 146   0.0000       0.152510         4.1500 
 147   0.0000       0.155268         4.2251 
 148   0.0000       0.168997         4.5986 
 149   0.0000       0.172205         4.6859 
 150   0.0000       0.182448         4.9647 
 151   0.0000       0.186639         5.0787 
 152   0.0000       0.188111         5.1188 
 153   0.0000       0.201300         5.4776 
 154   0.0000       0.208568         5.6754 
 155   0.0000       0.221886         6.0378 
 156   0.0000       0.222280         6.0486 
 157   0.0000       0.230916         6.2835 
 158   0.0000       0.236657         6.4398 
 159   0.0000       0.241853         6.5812 
 160   0.0000       0.242451         6.5974 
 161   0.0000       0.247978         6.7478 
 162   0.0000       0.254486         6.9249 
 163   0.0000       0.259076         7.0498 
 164   0.0000       0.270320         7.3558 
 165   0.0000       0.270341         7.3564 
 166   0.0000       0.271198         7.3797 
 167   0.0000       0.275657         7.5010 
 168   0.0000       0.285485         7.7684 
 169   0.0000       0.288963         7.8631 
 170   0.0000       0.289666         7.8822 
 171   0.0000       0.290766         7.9121 
 172   0.0000       0.301237         8.1971 
 173   0.0000       0.308072         8.3831 
 174   0.0000       0.310887         8.4597 
 175   0.0000       0.315555         8.5867 
 176   0.0000       0.324681         8.8350 
 177   0.0000       0.333690         9.0802 
 178   0.0000       0.339606         9.2412 
 179   0.0000       0.343115         9.3366 
 180   0.0000       0.349061         9.4984 
 181   0.0000       0.353355         9.6153 
 182   0.0000       0.357051         9.7158 
 183   0.0000       0.358595         9.7579 
 184   0.0000       0.365513         9.9461 
 185   0.0000       0.373260        10.1569 
 186   0.0000       0.380085        10.3426 
 187   0.0000       0.384143        10.4531 
 188   0.0000       0.389426        10.5968 
 189   0.0000       0.398446        10.8423 
 190   0.0000       0.405891        11.0448 
 191   0.0000       0.411930        11.2092 
 192   0.0000       0.426003        11.5921 
 193   0.0000       0.426547        11.6069 
[...]
  61( 2) :    -0.324450 a.u.    -8.829 eV
  62( 2) :    -0.320853 a.u.    -8.731 eV
  63( 2) :    -0.320136 a.u.    -8.711 eV
  64( 2) :    -0.319136 a.u.    -8.684 eV
  65( 2) :    -0.315495 a.u.    -8.585 eV
  66( 2) :    -0.314712 a.u.    -8.564 eV
  67( 2) :    -0.311014 a.u.    -8.463 eV
  68( 2) :    -0.308918 a.u.    -8.406 eV
  69( 2) :    -0.307275 a.u.    -8.361 eV
  70( 2) :    -0.306846 a.u.    -8.350 eV
  71( 2) :    -0.301420 a.u.    -8.202 eV
  72( 2) :    -0.299682 a.u.    -8.155 eV
  73( 2) :    -0.297718 a.u.    -8.101 eV
  74( 2) :    -0.289523 a.u.    -7.878 eV
  75( 2) :    -0.287216 a.u.    -7.816 eV
  76( 2) :    -0.285534 a.u.    -7.770 eV
  77( 2) :    -0.279145 a.u.    -7.596 eV
  78( 2) :    -0.278307 a.u.    -7.573 eV
  79( 2) :    -0.277772 a.u.    -7.559 eV
  80( 2) :    -0.274606 a.u.    -7.472 eV
  81( 2) :    -0.272283 a.u.    -7.409 eV
  82( 2) :    -0.271179 a.u.    -7.379 eV
  83( 2) :    -0.270140 a.u.    -7.351 eV
  84( 2) :    -0.268396 a.u.    -7.303 eV
  85( 2) :    -0.268099 a.u.    -7.295 eV
  86( 2) :    -0.266342 a.u.    -7.248 eV
  87( 2) :    -0.265366 a.u.    -7.221 eV
  88( 2) :    -0.261920 a.u.    -7.127 eV
  89( 2) :    -0.258905 a.u.    -7.045 eV
  90( 2) :    -0.258339 a.u.    -7.030 eV
  91( 2) :    -0.254643 a.u.    -6.929 eV
  92( 2) :    -0.253894 a.u.    -6.909 eV
  93( 2) :    -0.253257 a.u.    -6.891 eV
  94( 2) :    -0.253007 a.u.    -6.885 eV
  95( 2) :    -0.251332 a.u.    -6.839 eV
  96( 2) :    -0.246368 a.u.    -6.704 eV
  97( 2) :    -0.246026 a.u.    -6.695 eV
  98( 2) :    -0.236624 a.u.    -6.439 eV
  99( 2) :    -0.235636 a.u.    -6.412 eV
 100( 2) :    -0.235013 a.u.    -6.395 eV
 101( 2) :    -0.234247 a.u.    -6.374 eV
 102( 2) :    -0.232440 a.u.    -6.325 eV
 103( 2) :    -0.207661 a.u.    -5.651 eV
 104( 2) :    -0.186251 a.u.    -5.068 eV
 105( 2) :    -0.183324 a.u.    -4.989 eV
 106( 2) :    -0.168918 a.u.    -4.597 eV
 107( 1) :    -0.198582 a.u.    -5.404 eV alpha=   -6.820 beta=   -3.988
 108( 1) :    -0.196577 a.u.    -5.349 eV alpha=   -7.012 beta=   -3.686
 109( 0) :    -0.181747 a.u.    -4.946 eV
 110( 0) :    -0.181396 a.u.    -4.936 eV
 111( 0) :    -0.134807 a.u.    -3.668 eV
 112( 0) :    -0.132017 a.u.    -3.592 eV
 113( 0) :    -0.126541 a.u.    -3.443 eV
 114( 0) :    -0.104161 a.u.    -2.834 eV
 115( 0) :    -0.060920 a.u.    -1.658 eV
 116( 0) :    -0.060331 a.u.    -1.642 eV
 117( 0) :    -0.050442 a.u.    -1.373 eV
 118( 0) :    -0.040659 a.u.    -1.106 eV
 119( 0) :    -0.037944 a.u.    -1.033 eV
 120( 0) :    -0.030756 a.u.    -0.837 eV
 121( 0) :    -0.029255 a.u.    -0.796 eV
 122( 0) :    -0.026975 a.u.    -0.734 eV
 123( 0) :    -0.011355 a.u.    -0.309 eV
 124( 0) :    -0.002339 a.u.    -0.064 eV
 125( 0) :     0.018553 a.u.     0.505 eV
 126( 0) :     0.019456 a.u.     0.529 eV
 127( 0) :     0.046127 a.u.     1.255 eV
 128( 0) :     0.048069 a.u.     1.308 eV
 129( 0) :     0.052760 a.u.     1.436 eV
 130( 0) :     0.055368 a.u.     1.507 eV
 131( 0) :     0.056009 a.u.     1.524 eV
 132( 0) :     0.058978 a.u.     1.605 eV
 133( 0) :     0.060887 a.u.     1.657 eV
 134( 0) :     0.063166 a.u.     1.719 eV
 135( 0) :     0.066121 a.u.     1.799 eV
 136( 0) :     0.081939 a.u.     2.230 eV
 137( 0) :     0.088945 a.u.     2.420 eV
 138( 0) :     0.090983 a.u.     2.476 eV
 139( 0) :     0.096476 a.u.     2.625 eV
 140( 0) :     0.100244 a.u.     2.728 eV
 141( 0) :     0.108331 a.u.     2.948 eV
 142( 0) :     0.133853 a.u.     3.642 eV
 143( 0) :     0.141079 a.u.     3.839 eV
 144( 0) :     0.141490 a.u.     3.850 eV
 145( 0) :     0.143350 a.u.     3.901 eV
 146( 0) :     0.153310 a.u.     4.172 eV
 147( 0) :     0.155844 a.u.     4.241 eV
 148( 0) :     0.160254 a.u.     4.361 eV
 149( 0) :     0.175639 a.u.     4.779 eV
 150( 0) :     0.176197 a.u.     4.795 eV
 151( 0) :     0.186666 a.u.     5.079 eV
 152( 0) :     0.187176 a.u.     5.093 eV
 153( 0) :     0.198130 a.u.     5.391 eV
 154( 0) :     0.219068 a.u.     5.961 eV
 155( 0) :     0.220931 a.u.     6.012 eV
 156( 0) :     0.223249 a.u.     6.075 eV
 157( 0) :     0.227084 a.u.     6.179 eV
 158( 0) :     0.237042 a.u.     6.450 eV
 159( 0) :     0.241152 a.u.     6.562 eV
 160( 0) :     0.248715 a.u.     6.768 eV
 161( 0) :     0.253507 a.u.     6.898 eV
 162( 0) :     0.254218 a.u.     6.918 eV
 163( 0) :     0.259347 a.u.     7.057 eV
 164( 0) :     0.259395 a.u.     7.059 eV
 165( 0) :     0.267298 a.u.     7.274 eV
 166( 0) :     0.267951 a.u.     7.291 eV
 167( 0) :     0.281710 a.u.     7.666 eV
 168( 0) :     0.285072 a.u.     7.757 eV
 169( 0) :     0.288838 a.u.     7.860 eV
 170( 0) :     0.292248 a.u.     7.952 eV
 171( 0) :     0.306794 a.u.     8.348 eV
 172( 0) :     0.310056 a.u.     8.437 eV
 173( 0) :     0.311416 a.u.     8.474 eV
 174( 0) :     0.312680 a.u.     8.508 eV
 175( 0) :     0.328579 a.u.     8.941 eV
 176( 0) :     0.329195 a.u.     8.958 eV
 177( 0) :     0.336731 a.u.     9.163 eV
 178( 0) :     0.343407 a.u.     9.345 eV
 179( 0) :     0.344153 a.u.     9.365 eV
 180( 0) :     0.344637 a.u.     9.378 eV
 181( 0) :     0.345062 a.u.     9.390 eV
 182( 0) :     0.348179 a.u.     9.474 eV
 183( 0) :     0.349458 a.u.     9.509 eV
 184( 0) :     0.373379 a.u.    10.160 eV
 185( 0) :     0.373555 a.u.    10.165 eV
 186( 0) :     0.387471 a.u.    10.544 eV
 187( 0) :     0.391007 a.u.    10.640 eV
 188( 0) :     0.392576 a.u.    10.683 eV
 189( 0) :     0.400923 a.u.    10.910 eV
 190( 0) :     0.411468 a.u.    11.197 eV
 191( 0) :     0.417101 a.u.    11.350 eV
 192( 0) :     0.418189 a.u.    11.380 eV
 193( 0) :     0.425955 a.u.    11.591 eV
 194( 0) :     0.439908 a.u.    11.970 eV
 195( 0) :     0.440128 a.u.    11.976 eV
 196( 0) :     0.450104 a.u.    12.248 eV
 197( 0) :     0.451484 a.u.    12.285 eV
 198( 0) :     0.452717 a.u.    12.319 eV
 199( 0) :     0.457697 a.u.    12.455 eV
 200( 0) :     0.458944 a.u.    12.489 eV
 201( 0) :     0.472230 a.u.    12.850 eV
 202( 0) :     0.492564 a.u.    13.403 eV
 203( 0) :     0.496909 a.u.    13.522 eV
 204( 0) :     0.499905 a.u.    13.603 eV
 205( 0) :     0.505202 a.u.    13.747 eV
 206( 0) :     0.505411 a.u.    13.753 eV
 207( 0) :     0.509460 a.u.    13.863 eV
 208( 0) :     0.516400 a.u.    14.052 eV
 209( 0) :     0.519310 a.u.    14.131 eV
 210( 0) :     0.524777 a.u.    14.280 eV
 211( 0) :     0.525818 a.u.    14.308 eV
 212( 0) :     0.531475 a.u.    14.462 eV
 213( 0) :     0.551609 a.u.    15.010 eV
 214( 0) :     0.605952 a.u.    16.489 eV
 215( 0) :     0.608915 a.u.    16.569 eV
 216( 0) :     0.630157 a.u.    17.147 eV
 217( 0) :     0.660817 a.u.    17.982 eV
 218( 0) :     0.662265 a.u.    18.021 eV
 219( 0) :     0.678028 a.u.    18.450 eV
 220( 0) :     0.679691 a.u.    18.495 eV
 221( 0) :     0.693576 a.u.    18.873 eV
 222( 0) :     0.703230 a.u.    19.136 eV
 223( 0) :     0.710303 a.u.    19.328 eV
 224( 0) :     0.721479 a.u.    19.632 eV
 225( 0) :     0.727118 a.u.    19.786 eV
 226( 0) :     0.738479 a.u.    20.095 eV
 227( 0) :     0.756776 a.u.    20.593 eV
 228( 0) :     0.757804 a.u.    20.621 eV
 229( 0) :     0.766159 a.u.    20.848 eV
 230( 0) :     0.775946 a.u.    21.115 eV
 231( 0) :     0.818361 a.u.    22.269 eV
 232( 0) :     0.826757 a.u.    22.497 eV
 233( 0) :     0.841865 a.u.    22.908 eV
 234( 0) :     0.849446 a.u.    23.115 eV
 235( 0) :     0.899725 a.u.    24.483 eV
 236( 0) :     0.913626 a.u.    24.861 eV
 237( 0) :     0.921396 a.u.    25.072 eV
 238( 0) :     0.931759 a.u.    25.354 eV
 239( 0) :     0.934050 a.u.    25.417 eV
 240( 0) :     0.942888 a.u.    25.657 eV
 241( 0) :     0.951726 a.u.    25.898 eV
 242( 0) :     0.957932 a.u.    26.067 eV
 243( 0) :     0.979333 a.u.    26.649 eV
 244( 0) :     0.983978 a.u.    26.775 eV
 245( 0) :     1.020117 a.u.    27.759 eV
 246( 0) :     1.088951 a.u.    29.632 eV
 247( 0) :     1.115018 a.u.    30.341 eV
 248( 0) :     1.158723 a.u.    31.530 eV
 249( 0) :     1.214013 a.u.    33.035 eV
 250( 0) :     1.222160 a.u.    33.257 eV
 251( 0) :     1.257389 a.u.    34.215 eV
 252( 0) :     1.263386 a.u.    34.378 eV
 253( 0) :     1.273161 a.u.    34.644 eV
 254( 0) :     1.281212 a.u.    34.864 eV
 255( 0) :     1.294776 a.u.    35.233 eV
 256( 0) :     1.305528 a.u.    35.525 eV
 257( 0) :     1.309673 a.u.    35.638 eV
 258( 0) :     1.323975 a.u.    36.027 eV
 259( 0) :     1.332985 a.u.    36.272 eV
 260( 0) :     1.335245 a.u.    36.334 eV
 261( 0) :     1.344622 a.u.    36.589 eV
 262( 0) :     1.371225 a.u.    37.313 eV
 263( 0) :     1.386781 a.u.    37.736 eV
 264( 0) :     1.391733 a.u.    37.871 eV
 265( 0) :     1.394654 a.u.    37.950 eV
 266( 0) :     1.397016 a.u.    38.015 eV
 267( 0) :     1.398453 a.u.    38.054 eV
 268( 0) :     1.407835 a.u.    38.309 eV
 269( 0) :     1.411948 a.u.    38.421 eV
 270( 0) :     1.414386 a.u.    38.487 eV
 271( 0) :     1.431189 a.u.    38.945 eV
 272( 0) :     1.439432 a.u.    39.169 eV
 273( 0) :     1.444951 a.u.    39.319 eV
 274( 0) :     1.447715 a.u.    39.394 eV
 275( 0) :     1.449011 a.u.    39.430 eV
 276( 0) :     1.457822 a.u.    39.669 eV
 277( 0) :     1.458086 a.u.    39.677 eV
 278( 0) :     1.462039 a.u.    39.784 eV
 279( 0) :     1.467373 a.u.    39.929 eV
 280( 0) :     1.470530 a.u.    40.015 eV
 281( 0) :     1.477118 a.u.    40.194 eV
 282( 0) :     1.477268 a.u.    40.199 eV
 283( 0) :     1.480853 a.u.    40.296 eV
 284( 0) :     1.482313 a.u.    40.336 eV
 285( 0) :     1.485443 a.u.    40.421 eV
 286( 0) :     1.486940 a.u.    40.462 eV
 287( 0) :     1.488033 a.u.    40.491 eV
 288( 0) :     1.489592 a.u.    40.534 eV
 289( 0) :     1.491692 a.u.    40.591 eV
 290( 0) :     1.492907 a.u.    40.624 eV
 291( 0) :     1.495553 a.u.    40.696 eV
 292( 0) :     1.496517 a.u.    40.722 eV
 293( 0) :     1.501372 a.u.    40.854 eV
 294( 0) :     1.502012 a.u.    40.872 eV
 295( 0) :     1.503500 a.u.    40.912 eV
 296( 0) :     1.504195 a.u.    40.931 eV
 297( 0) :     1.505553 a.u.    40.968 eV
 298( 0) :     1.506593 a.u.    40.996 eV
 299( 0) :     1.510823 a.u.    41.112 eV
 300( 0) :     1.511187 a.u.    41.121 eV
 301( 0) :     1.511650 a.u.    41.134 eV
 302( 0) :     1.514097 a.u.    41.201 eV
 303( 0) :     1.516461 a.u.    41.265 eV
 304( 0) :     1.517088 a.u.    41.282 eV
 305( 0) :     1.519142 a.u.    41.338 eV
 306( 0) :     1.521534 a.u.    41.403 eV
 307( 0) :     1.522079 a.u.    41.418 eV
 308( 0) :     1.523367 a.u.    41.453 eV
 309( 0) :     1.524343 a.u.    41.479 eV
 310( 0) :     1.526283 a.u.    41.532 eV
 311( 0) :     1.528804 a.u.    41.601 eV
 312( 0) :     1.532062 a.u.    41.690 eV
 313( 0) :     1.534252 a.u.    41.749 eV
 314( 0) :     1.535561 a.u.    41.785 eV
 315( 0) :     1.537712 a.u.    41.843 eV
 316( 0) :     1.538273 a.u.    41.859 eV
 317( 0) :     1.543891 a.u.    42.011 eV
 318( 0) :     1.546576 a.u.    42.084 eV
 319( 0) :     1.547183 a.u.    42.101 eV
 320( 0) :     1.549812 a.u.    42.173 eV
 321( 0) :     1.551965 a.u.    42.231 eV
 322( 0) :     1.554670 a.u.    42.305 eV
 323( 0) :     1.556076 a.u.    42.343 eV
 324( 0) :     1.559281 a.u.    42.430 eV
 325( 0) :     1.561368 a.u.    42.487 eV
 326( 0) :     1.562851 a.u.    42.527 eV
 327( 0) :     1.564529 a.u.    42.573 eV
 328( 0) :     1.573001 a.u.    42.804 eV
 329( 0) :     1.573990 a.u.    42.830 eV
 330( 0) :     1.578369 a.u.    42.950 eV
 331( 0) :     1.585141 a.u.    43.134 eV
 332( 0) :     1.586616 a.u.    43.174 eV
 333( 0) :     1.590555 a.u.    43.281 eV
 334( 0) :     1.591385 a.u.    43.304 eV
 335( 0) :     1.592559 a.u.    43.336 eV
 336( 0) :     1.598776 a.u.    43.505 eV
 337( 0) :     1.602297 a.u.    43.601 eV
 338( 0) :     1.603150 a.u.    43.624 eV
 339( 0) :     1.607070 a.u.    43.731 eV
 340( 0) :     1.611672 a.u.    43.856 eV
 341( 0) :     1.613068 a.u.    43.894 eV
 342( 0) :     1.614882 a.u.    43.943 eV
 343( 0) :     1.616788 a.u.    43.995 eV
 344( 0) :     1.622732 a.u.    44.157 eV
 345( 0) :     1.629690 a.u.    44.346 eV
 346( 0) :     1.632081 a.u.    44.411 eV
 347( 0) :     1.658857 a.u.    45.140 eV
 348( 0) :     1.659866 a.u.    45.167 eV
 349( 0) :     1.667334 a.u.    45.370 eV
 350( 0) :     1.690187 a.u.    45.992 eV
 351( 0) :     1.692051 a.u.    46.043 eV
 352( 0) :     1.704728 a.u.    46.388 eV
 353( 0) :     1.734504 a.u.    47.198 eV
 354( 0) :     1.739881 a.u.    47.345 eV
 355( 0) :     1.746635 a.u.    47.528 eV
 356( 0) :     1.757537 a.u.    47.825 eV
 357( 0) :     1.774741 a.u.    48.293 eV
 358( 0) :     1.777205 a.u.    48.360 eV
 359( 0) :     1.793048 a.u.    48.791 eV
 360( 0) :     1.793983 a.u.    48.817 eV
 361( 0) :     1.800363 a.u.    48.990 eV
 362( 0) :     1.824208 a.u.    49.639 eV
 363( 0) :     1.837121 a.u.    49.991 eV
 364( 0) :     1.838099 a.u.    50.017 eV
 365( 0) :     1.899632 a.u.    51.692 eV
 366( 0) :     1.940195 a.u.    52.795 eV
 367( 0) :     1.954587 a.u.    53.187 eV
 368( 0) :     2.006928 a.u.    54.611 eV
 369( 0) :     2.097036 a.u.    57.063 eV
 370( 0) :     2.220258 a.u.    60.416 eV
 371( 0) :     2.233611 a.u.    60.780 eV
 372( 0) :     2.238787 a.u.    60.920 eV
 373( 0) :     2.323495 a.u.    63.226 eV
 374( 0) :     2.324057 a.u.    63.241 eV
 375( 0) :     2.381356 a.u.    64.800 eV
 376( 0) :     2.422135 a.u.    65.910 eV
 377( 0) :     2.424751 a.u.    65.981 eV
 378( 0) :     2.461044 a.u.    66.968 eV
 379( 0) :     2.470397 a.u.    67.223 eV
 380( 0) :     2.478168 a.u.    67.434 eV
 381( 0) :     2.576964 a.u.    70.123 eV
 382( 0) :     3.179825 a.u.    86.527 eV
 383( 0) :     3.538689 a.u.    96.293 eV
 384( 0) :     3.573751 a.u.    97.247 eV
 385( 0) :     3.626073 a.u.    98.670 eV
 386( 0) :     3.674216 a.u.    99.981 eV
 387( 0) :     3.706171 a.u.   100.850 eV
 388( 0) :     3.911284 a.u.   106.431 eV
 389( 0) :     3.911604 a.u.   106.440 eV
 390( 0) :     3.917067 a.u.   106.589 eV
 391( 0) :     3.921901 a.u.   106.720 eV
 392( 0) :     3.933340 a.u.   107.032 eV
 393( 0) :     3.937373 a.u.   107.141 eV
 394( 0) :     3.948227 a.u.   107.437 eV
 395( 0) :    23.748228 a.u.   646.222 eV
 396( 0) :    23.863663 a.u.   649.363 eV
 397( 0) :    23.908180 a.u.   650.575 eV
 398( 0) :    24.104184 a.u.   655.908 eV
 399( 0) :    24.377510 a.u.   663.346 eV
 400( 0) :    24.392346 a.u.   663.749 eV
 401( 0) :    24.491304 a.u.   666.442 eV
 402( 0) :    24.840096 a.u.   675.933 eV
 403( 0) :    24.957841 a.u.   679.137 eV
 404( 0) :    24.984758 a.u.   679.870 eV
 405( 0) :    25.329572 a.u.   689.253 eV
 406( 0) :    25.352472 a.u.   689.876 eV
 407( 0) :    25.710411 a.u.   699.616 eV
 408( 0) :    25.807617 a.u.   702.261 eV
 409( 0) :    25.919443 a.u.   705.304 eV
 410( 0) :    26.243256 a.u.   714.115 eV
 411( 0) :    26.297441 a.u.   715.590 eV
 412( 0) :    26.461272 a.u.   720.048 eV
 413( 0) :    26.498563 a.u.   721.063 eV
 414( 0) :    26.529277 a.u.   721.898 eV
 415( 0) :    26.898720 a.u.   731.951 eV
 416( 0) :    27.060933 a.u.   736.365 eV
 417( 0) :    27.382063 a.u.   745.104 eV
 418( 0) :    27.412262 a.u.   745.926 eV
 419( 0) :    27.929686 a.u.   760.005 eV
 420( 0) :    28.065423 a.u.   763.699 eV
 421( 0) :    28.277261 a.u.   769.463 eV
 422( 0) :    28.437518 a.u.   773.824 eV
 423( 0) :    28.577314 a.u.   777.628 eV
 424( 0) :    30.053029 a.u.   817.784 eV
 425( 0) :    43.820318 a.u.  1192.411 eV
 426( 0) :    43.956591 a.u.  1196.120 eV
 427( 0) :    44.009988 a.u.  1197.573 eV
 428( 0) :    44.012822 a.u.  1197.650 eV
 429( 0) :    44.085946 a.u.  1199.640 eV
 430( 0) :    44.101602 a.u.  1200.066 eV
 431( 0) :    44.105430 a.u.  1200.170 eV
 432( 0) :    44.144110 a.u.  1201.222 eV
 433( 0) :    44.149407 a.u.  1201.366 eV
 434( 0) :    44.151783 a.u.  1201.431 eV
 435( 0) :   205.060905 a.u.  5579.991 eV
 436( 0) :   205.113951 a.u.  5581.434 eV
 437( 0) :   205.135594 a.u.  5582.023 eV
 438( 0) :   205.136520 a.u.  5582.049 eV
 439( 0) :   205.168442 a.u.  5582.917 eV
 440( 0) :   205.178597 a.u.  5583.193 eV
 441( 0) :   205.180963 a.u.  5583.258 eV
 442( 0) :   205.193739 a.u.  5583.605 eV
 443( 0) :   205.196149 a.u.  5583.671 eV
 444( 0) :   205.196999 a.u.  5583.694 eV
-------
TIMINGS
-------

Total SCF time: 0 days 0 hours 4 min 29 sec 

Total time                  ....     269.009 sec
Sum of individual times     ....     259.534 sec  ( 96.5%)

Fock matrix formation       ....     255.221 sec  ( 94.9%)
  Split-RI-J                ....      93.699 sec  ( 36.7% of F)
  XC integration            ....     161.405 sec  ( 63.2% of F)
    Basis function eval.    ....      25.323 sec  ( 15.7% of XC)
    Density eval.           ....      61.344 sec  ( 38.0% of XC)
    XC-Functional eval.     ....       3.042 sec  (  1.9% of XC)
    XC-Potential eval.      ....      65.544 sec  ( 40.6% of XC)
Diagonalization             ....       1.107 sec  (  0.4%)
Density matrix formation    ....       0.279 sec  (  0.1%)
Population analysis         ....       0.328 sec  (  0.1%)
Initial guess               ....       0.080 sec  (  0.0%)
Orbital Transformation      ....       0.702 sec  (  0.3%)
Orbital Orthonormalization  ....       0.066 sec  (  0.0%)
DIIS solution               ....       0.000 sec  (  0.0%)
Grid generation             ....       1.814 sec  (  0.7%)

Maximum memory used throughout the entire SCF-calculation: 361.3 MB

-------------------------   --------------------
FINAL SINGLE POINT ENERGY     -2621.727867290416
-------------------------   --------------------

                                *** OPTIMIZATION RUN DONE ***

                            ***************************************
                            *     ORCA property calculations      *
                            ***************************************

                                    ---------------------
                                    Active property flags
                                    ---------------------
   (+) Dipole Moment


------------------------------------------------------------------------------
                       ORCA ELECTRIC PROPERTIES CALCULATION
------------------------------------------------------------------------------

Dipole Moment Calculation                       ... on
Quadrupole Moment Calculation                   ... off
Polarizability Calculation                      ... off
GBWName                                         ... pbe.gbw
Electron density                                ... pbe.scfp
The origin for moment calculation is the CENTER OF MASS  = (12.061976, 15.684250 14.924612)

-------------
DIPOLE MOMENT
-------------
                                X             Y             Z
Electronic contribution:     -4.95130       7.91437      -1.32616
Nuclear contribution   :      4.97221      -7.95834       1.27730
                        -----------------------------------------
Total Dipole Moment    :      0.02091      -0.04396      -0.04886
                        -----------------------------------------
Magnitude (a.u.)       :      0.06897
Magnitude (Debye)      :      0.17531



--------------------
Rotational spectrum 
--------------------
 
Rotational constants in cm-1:     0.002297     0.001381     0.001375 
Rotational constants in MHz :    68.852344    41.391466    41.235010 

 Dipole components along the rotational axes: 
x,y,z [a.u.] :     0.035487     0.014329    -0.057379 
x,y,z [Debye]:     0.090202     0.036421    -0.145846 

 

Timings for individual modules:

Sum of individual times         ...    12654.604 sec (= 210.910 min)
GTO integral calculation        ...      162.899 sec (=   2.715 min)   1.3 %
SCF iterations                  ...    11065.711 sec (= 184.429 min)  87.4 %
SCF Gradient evaluation         ...     1422.677 sec (=  23.711 min)  11.2 %
Geometry relaxation             ...        3.317 sec (=   0.055 min)   0.0 %
                             ****ORCA TERMINATED NORMALLY****
TOTAL RUN TIME: 0 days 3 hours 30 minutes 57 seconds 337 msec
