
                                 *****************
                                 * O   R   C   A *
                                 *****************

                                            #,                                       
                                            ###                                      
                                            ####                                     
                                            #####                                    
                                            ######                                   
                                           ########,                                 
                                     ,,################,,,,,                         
                               ,,#################################,,                 
                          ,,##########################################,,             
                       ,#########################################, ''#####,          
                    ,#############################################,,   '####,        
                  ,##################################################,,,,####,       
                ,###########''''           ''''###############################       
              ,#####''   ,,,,##########,,,,          '''####'''          '####       
            ,##' ,,,,###########################,,,                        '##       
           ' ,,###''''                  '''############,,,                           
         ,,##''                                '''############,,,,        ,,,,,,###''
      ,#''                                            '''#######################'''  
     '                                                          ''''####''''         
             ,#######,   #######,   ,#######,      ##                                
            ,#'     '#,  ##    ##  ,#'     '#,    #''#        ######   ,####,        
            ##       ##  ##   ,#'  ##            #'  '#       #        #'  '#        
            ##       ##  #######   ##           ,######,      #####,   #    #        
            '#,     ,#'  ##    ##  '#,     ,#' ,#      #,         ##   #,  ,#        
             '#######'   ##     ##  '#######'  #'      '#     #####' # '####'        



                  #######################################################
                  #                        -***-                        #
                  #          Department of theory and spectroscopy      #
                  #    Directorship and core code : Frank Neese         #
                  #        Max Planck Institute fuer Kohlenforschung    #
                  #                Kaiser Wilhelm Platz 1               #
                  #                 D-45470 Muelheim/Ruhr               #
                  #                      Germany                        #
                  #                                                     #
                  #                  All rights reserved                #
                  #                        -***-                        #
                  #######################################################


                         Program Version 5.0.3 -  RELEASE  -


 With contributions from (in alphabetic order):
   Daniel Aravena         : Magnetic Suceptibility
   Michael Atanasov       : Ab Initio Ligand Field Theory (pilot matlab implementation)
   Alexander A. Auer      : GIAO ZORA, VPT2 properties, NMR spectrum
   Ute Becker             : Parallelization
   Giovanni Bistoni       : ED, misc. LED, open-shell LED, HFLD
   Martin Brehm           : Molecular dynamics
   Dmytro Bykov           : SCF Hessian
   Vijay G. Chilkuri      : MRCI spin determinant printing, contributions to CSF-ICE
   Dipayan Datta          : RHF DLPNO-CCSD density
   Achintya Kumar Dutta   : EOM-CC, STEOM-CC
   Dmitry Ganyushin       : Spin-Orbit,Spin-Spin,Magnetic field MRCI
   Miquel Garcia          : C-PCM and meta-GGA Hessian, CC/C-PCM, Gaussian charge scheme
   Yang Guo               : DLPNO-NEVPT2, F12-NEVPT2, CIM, IAO-localization
   Andreas Hansen         : Spin unrestricted coupled pair/coupled cluster methods
   Benjamin Helmich-Paris : MC-RPA, TRAH-SCF, COSX integrals
   Lee Huntington         : MR-EOM, pCC
   Robert Izsak           : Overlap fitted RIJCOSX, COSX-SCS-MP3, EOM
   Marcus Kettner         : VPT2
   Christian Kollmar      : KDIIS, OOCD, Brueckner-CCSD(T), CCSD density, CASPT2, CASPT2-K
   Simone Kossmann        : Meta GGA functionals, TD-DFT gradient, OOMP2, MP2 Hessian
   Martin Krupicka        : Initial AUTO-CI
   Lucas Lang             : DCDCAS
   Marvin Lechner         : AUTO-CI (C++ implementation), FIC-MRCC
   Dagmar Lenk            : GEPOL surface, SMD
   Dimitrios Liakos       : Extrapolation schemes; Compound Job, initial MDCI parallelization
   Dimitrios Manganas     : Further ROCIS development; embedding schemes
   Dimitrios Pantazis     : SARC Basis sets
   Anastasios Papadopoulos: AUTO-CI, single reference methods and gradients
   Taras Petrenko         : DFT Hessian,TD-DFT gradient, ASA, ECA, R-Raman, ABS, FL, XAS/XES, NRVS
   Peter Pinski           : DLPNO-MP2, DLPNO-MP2 Gradient
   Christoph Reimann      : Effective Core Potentials
   Marius Retegan         : Local ZFS, SOC
   Christoph Riplinger    : Optimizer, TS searches, QM/MM, DLPNO-CCSD(T), (RO)-DLPNO pert. Triples
   Tobias Risthaus        : Range-separated hybrids, TD-DFT gradient, RPA, STAB
   Michael Roemelt        : Original ROCIS implementation
   Masaaki Saitow         : Open-shell DLPNO-CCSD energy and density
   Barbara Sandhoefer     : DKH picture change effects
   Avijit Sen             : IP-ROCIS
   Kantharuban Sivalingam : CASSCF convergence, NEVPT2, FIC-MRCI
   Bernardo de Souza      : ESD, SOC TD-DFT
   Georgi Stoychev        : AutoAux, RI-MP2 NMR, DLPNO-MP2 response
   Willem Van den Heuvel  : Paramagnetic NMR
   Boris Wezisla          : Elementary symmetry handling
   Frank Wennmohs         : Technical directorship


 We gratefully acknowledge several colleagues who have allowed us to
 interface, adapt or use parts of their codes:
   Stefan Grimme, W. Hujo, H. Kruse, P. Pracht,  : VdW corrections, initial TS optimization,
                  C. Bannwarth, S. Ehlert          DFT functionals, gCP, sTDA/sTD-DF
   Ed Valeev, F. Pavosevic, A. Kumar             : LibInt (2-el integral package), F12 methods
   Garnet Chan, S. Sharma, J. Yang, R. Olivares  : DMRG
   Ulf Ekstrom                                   : XCFun DFT Library
   Mihaly Kallay                                 : mrcc  (arbitrary order and MRCC methods)
   Jiri Pittner, Ondrej Demel                    : Mk-CCSD
   Frank Weinhold                                : gennbo (NPA and NBO analysis)
   Christopher J. Cramer and Donald G. Truhlar   : smd solvation model
   Lars Goerigk                                  : TD-DFT with DH, B97 family of functionals
   V. Asgeirsson, H. Jonsson                     : NEB implementation
   FAccTs GmbH                                   : IRC, NEB, NEB-TS, DLPNO-Multilevel, CI-OPT
                                                   MM, QMMM, 2- and 3-layer-ONIOM, Crystal-QMMM,
                                                   LR-CPCM, SF, NACMEs, symmetry and pop. for TD-DFT,
                                                   nearIR, NL-DFT gradient (VV10), updates on ESD,
                                                   ML-optimized integration grids
   S Lehtola, MJT Oliveira, MAL Marques          : LibXC Library
   Liviu Ungur et al                             : ANISO software


 Your calculation uses the libint2 library for the computation of 2-el integrals
 For citations please refer to: http://libint.valeyev.net

 Your ORCA version has been built with support for libXC version: 5.1.0
 For citations please refer to: https://tddft.org/programs/libxc/

 This ORCA versions uses:
   CBLAS   interface :  Fast vector & matrix operations
   LAPACKE interface :  Fast linear algebra routines
   SCALAPACK package :  Parallel linear algebra routines
   Shared memory     :  Shared parallel matrices
   BLAS/LAPACK       :  OpenBLAS 0.3.15  USE64BITINT DYNAMIC_ARCH NO_AFFINITY Haswell SINGLE_THREADED
        Core in use  :  Haswell
   Copyright (c) 2011-2014, The OpenBLAS Project




***************************************
The coordinates will be read from file: pbe.xyz
***************************************


================================================================================

cite the ECPs for Au [Def2-ECP] as follows:
Ce-Yb(ecp-28): M. Dolg, H. Stoll, H.Preuss, J. Chem. Phys., 1989, 90, 1730-1734.
Y-Cd(ecp-28), Hf-Hg(ecp-46): D. Andrae,U. Haeussermann, M. Dolg, H. Stoll, H. Preuss, Theor. Chim. Acta, 1990, 77, 123-141.
In-Sb(ecp-28), Tl-Bi(ecp-46): B. Metz, H. Stoll, M. Dolg, J. Chem. Phys., 2000, 113, 2563-2569.
Te-Xe(ecp-28), Po-Rn(ecp-46): K. A. Peterson, D. Figgen, E. Goll, H. Stoll, M. Dolg, J. Chem. Phys., 2003, 119, 11113-11123.
Rb(ecp-28), Cs(ecp-46): T. Leininger, A. Nicklass, W. Kuechle, H. Stoll, M. Dolg, A. Bergner, Chem. Phys. Lett., 1996, 255, 274-280.
Sr(ecp-28), Ba(ecp-46): M. Kaupp, P. V. Schleyer, H. Stoll and H. Preuss, J. Chem. Phys., 1991, 94, 1360-1366.
La(ecp-46): M. Dolg, H. Stoll, A. Savin, H. Preuss, Theor. Chim. Acta, 1989, 75, 173-194.
Lu(ecp-28): X. Cao, M. Dolg, J. Chem. Phys., 2001, 115, 7348-7355.

ECP parameters for Au [Def2-ECP] have been obtained from:
TURBOMOLE (7.0.2)

----- Orbital basis set information -----
Your calculation utilizes the basis: def2-TZVP
   F. Weigend and R. Ahlrichs, Phys. Chem. Chem. Phys. 7, 3297 (2005).

----- AuxJ basis set information -----
Your calculation utilizes the auxiliary basis: def2/J
   F. Weigend, Phys. Chem. Chem. Phys. 8, 1057 (2006).

----- AuxC basis set information -----
Your calculation utilizes the auxiliary basis: def2-TZVP/C
  H-La, Hf-Rn : A. Hellweg, C. Hattig, S. Hofener and W. Klopper, Theor. Chem. Acc. 117, 587 (2007).
        Ce-Lu : J. Chmela and M. E. Harding, Mol. Phys. (2018).

================================================================================
                                        WARNINGS
                       Please study these warnings very carefully!
================================================================================


WARNING: your system is open-shell and RHF/RKS was chosen
  ===> : WILL SWITCH to UHF/UKS


WARNING: No MP2 level density has been requested!
         To caclulate MP2 level properties use
         %mp2 Density relaxed end
         or
         %mp2 Density unrelaxed end
         Otherwise for double-hybrid DFT only the energy is correct!

WARNING: The frozen-core approximation is turned on by default for 
         the MP2 part of double-hybrid DFT.

INFO   : the flag for use of the SHARK integral package has been found!



***************************************
The coordinates will be read from file: pbe.xyz
***************************************


================================================================================

cite the ECPs for Au [Def2-ECP] as follows:
Ce-Yb(ecp-28): M. Dolg, H. Stoll, H.Preuss, J. Chem. Phys., 1989, 90, 1730-1734.
Y-Cd(ecp-28), Hf-Hg(ecp-46): D. Andrae,U. Haeussermann, M. Dolg, H. Stoll, H. Preuss, Theor. Chim. Acta, 1990, 77, 123-141.
In-Sb(ecp-28), Tl-Bi(ecp-46): B. Metz, H. Stoll, M. Dolg, J. Chem. Phys., 2000, 113, 2563-2569.
Te-Xe(ecp-28), Po-Rn(ecp-46): K. A. Peterson, D. Figgen, E. Goll, H. Stoll, M. Dolg, J. Chem. Phys., 2003, 119, 11113-11123.
Rb(ecp-28), Cs(ecp-46): T. Leininger, A. Nicklass, W. Kuechle, H. Stoll, M. Dolg, A. Bergner, Chem. Phys. Lett., 1996, 255, 274-280.
Sr(ecp-28), Ba(ecp-46): M. Kaupp, P. V. Schleyer, H. Stoll and H. Preuss, J. Chem. Phys., 1991, 94, 1360-1366.
La(ecp-46): M. Dolg, H. Stoll, A. Savin, H. Preuss, Theor. Chim. Acta, 1989, 75, 173-194.
Lu(ecp-28): X. Cao, M. Dolg, J. Chem. Phys., 2001, 115, 7348-7355.

ECP parameters for Au [Def2-ECP] have been obtained from:
TURBOMOLE (7.0.2)

----- Orbital basis set information -----
Your calculation utilizes the basis: def2-TZVP
   F. Weigend and R. Ahlrichs, Phys. Chem. Chem. Phys. 7, 3297 (2005).

----- AuxJ basis set information -----
Your calculation utilizes the auxiliary basis: def2/J
   F. Weigend, Phys. Chem. Chem. Phys. 8, 1057 (2006).

----- AuxC basis set information -----
Your calculation utilizes the auxiliary basis: def2-TZVP/C
  H-La, Hf-Rn : A. Hellweg, C. Hattig, S. Hofener and W. Klopper, Theor. Chem. Acc. 117, 587 (2007).
        Ce-Lu : J. Chmela and M. E. Harding, Mol. Phys. (2018).

================================================================================
                                        WARNINGS
                       Please study these warnings very carefully!
================================================================================


WARNING: No MP2 level density has been requested!
         To caclulate MP2 level properties use
         %mp2 Density relaxed end
         or
         %mp2 Density unrelaxed end
         Otherwise for double-hybrid DFT only the energy is correct!

WARNING: The frozen-core approximation is turned on by default for 
         the MP2 part of double-hybrid DFT.

INFO   : the flag for use of the SHARK integral package has been found!

================================================================================
                                       INPUT FILE
================================================================================
NAME = b2plyp.inp
|  1> !RI-B2PLYP def2-TZVP def2-TZVP/C
|  2> !RIJCOSX
|  3> %pal nprocs 6 end 
|  4> 
|  5> *xyzfile 0 5 pbe.xyz
|  6> 
|  7> $new_job
|  8> 
|  9> !RI-B2PLYP def2-TZVP def2-TZVP/C
| 10> !RIJCOSX
| 11> %pal nprocs 6 end 
| 12> 
| 13> *xyzfile 0 3 pbe.xyz
| 14> 
| 15> 
| 16> 
| 17> 
| 18> 
| 19>                          ****END OF INPUT****
================================================================================


                 $$$$$$$$$$$$$$$$$$$$$$$$$$$$$$$$$$$$$$$$$$$$$$ 
                 $ THERE ARE  2 JOBS TO BE PROCESSED THIS RUN $
                 $$$$$$$$$$$$$$$$$$$$$$$$$$$$$$$$$$$$$$$$$$$$$$ 




                 $$$$$$$$$$$$$$$$  JOB NUMBER  1 $$$$$$$$$$$$$$


                       ****************************
                       * Single Point Calculation *
                       ****************************

---------------------------------
CARTESIAN COORDINATES (ANGSTROEM)
---------------------------------
  Au     4.640727    7.342586    5.916960
  Au     6.266442    9.607293    5.773482
  Au     5.953980    9.884465    8.532732
  Au     8.861896    6.757327    9.333998
  Au     6.345916    7.497728   10.012192
  Au     5.336401    5.522484    7.977943
  Au     3.985990    7.907525    8.564409
  Au    10.697463    7.757989    7.448589
  Au     8.650563    9.421772    8.259063
  Au     8.761671    8.474263    5.580897
  Au    10.668465    5.016784    8.047842
  Au     9.735458    5.866052    5.532473
  Au     7.922767    4.907160    7.462670
  Au     7.035945    6.272128    5.095006
  Fe     6.891541    7.585634    7.426178

----------------------------
CARTESIAN COORDINATES (A.U.)
----------------------------
  NO LB      ZA    FRAG     MASS         X           Y           Z
   0 Au   19.0000*   0   196.966    8.769703   13.875476   11.181435
   1 Au   19.0000*   0   196.966   11.841859   18.155152   10.910300
   2 Au   19.0000*   0   196.966   11.251392   18.678932   16.124527
   3 Au   19.0000*   0   196.966   16.746556   12.769497   17.638700
   4 Au   19.0000*   0   196.966   11.992044   14.168653   18.920301
   5 Au   19.0000*   0   196.966   10.084337   10.435983   15.076128
   6 Au   19.0000*   0   196.966    7.532429   14.943056   16.184388
   7 Au   19.0000*   0   196.966   20.215275   14.660475   14.075794
   8 Au   19.0000*   0   196.966   16.347195   17.804568   15.607367
   9 Au   19.0000*   0   196.966   16.557159   16.014037   10.546367
  10 Au   19.0000*   0   196.966   20.160476    9.480347   15.208217
  11 Au   19.0000*   0   196.966   18.397349   11.085231   10.454858
  12 Au   19.0000*   0   196.966   14.971860    9.273189   14.102403
  13 Au   19.0000*   0   196.966   13.296008   11.852604    9.628165
  14 Fe   26.0000    0    55.850   13.023124   14.334770   14.033444
* core charge reduced due to ECP

--------------------------------
INTERNAL COORDINATES (ANGSTROEM)
--------------------------------
 Au     0   0   0     0.000000000000     0.00000000     0.00000000
 Au     1   0   0     2.791493089333     0.00000000     0.00000000
 Au     2   1   0     2.790684030172    87.96851143     0.00000000
 Au     3   2   1     4.344766105055    92.05850216    78.31072320
 Au     4   3   2     2.708928977016    39.45084543   230.20761326
 Au     1   2   3     2.836262103204   114.52735825   312.35603336
 Au     1   2   3     2.785107171564    91.21493782     9.45176837
 Au     4   3   2     2.815207889200    93.27025343    45.28929798
 Au     3   2   1     2.749643298996    77.00145136   116.32103711
 Au     2   1   3     2.747182782475   101.41829576   102.07696998
 Au     8   4   3     2.806092194919    60.19897029   208.14223362
 Au    10   2   1     2.784487837981   134.84465917   359.60229294
 Au     6   1   2     2.708028280160   103.99328669   303.09660017
 Au     1   2   3     2.749282990613    78.06136095   244.26907204
 Fe     6   1   2     2.641872222412    59.43392795   352.15721327

---------------------------
INTERNAL COORDINATES (A.U.)
---------------------------
 Au     0   0   0     0.000000000000     0.00000000     0.00000000
 Au     1   0   0     5.275157443573     0.00000000     0.00000000
 Au     2   1   0     5.273628543333    87.96851143     0.00000000
 Au     3   2   1     8.210418054497    92.05850216    78.31072320
 Au     4   3   2     5.119133882804    39.45084543   230.20761326
 Au     1   2   3     5.359758619075   114.52735825   312.35603336
 Au     1   2   3     5.263089807876    91.21493782     9.45176837
 Au     4   3   2     5.319971920642    93.27025343    45.28929798
 Au     3   2   1     5.196072801075    77.00145136   116.32103711
 Au     2   1   3     5.191423098702   101.41829576   102.07696998
 Au     8   4   3     5.302745754930    60.19897029   208.14223362
 Au    10   2   1     5.261919437020   134.84465917   359.60229294
 Au     6   1   2     5.117431812416   103.99328669   303.09660017
 Au     1   2   3     5.195391916906    78.06136095   244.26907204
 Fe     6   1   2     4.992414981172    59.43392795   352.15721327

---------------------
BASIS SET INFORMATION
---------------------
There are 2 groups of distinct atoms

 Group   1 Type Au  : 8s7p6d1f contracted to 6s4p3d1f pattern {311111/4111/411/1}
 Group   2 Type Fe  : 17s11p7d1f contracted to 6s4p4d1f pattern {842111/6311/4111/1}

Atom   0Au   basis set group =>   1
Atom   1Au   basis set group =>   1
Atom   2Au   basis set group =>   1
Atom   3Au   basis set group =>   1
Atom   4Au   basis set group =>   1
Atom   5Au   basis set group =>   1
Atom   6Au   basis set group =>   1
Atom   7Au   basis set group =>   1
Atom   8Au   basis set group =>   1
Atom   9Au   basis set group =>   1
Atom  10Au   basis set group =>   1
Atom  11Au   basis set group =>   1
Atom  12Au   basis set group =>   1
Atom  13Au   basis set group =>   1
Atom  14Fe   basis set group =>   2
---------------------------------
AUXILIARY/J BASIS SET INFORMATION
---------------------------------
There are 2 groups of distinct atoms

 Group   1 Type Au  : 11s5p5d3f3g contracted to 8s5p5d2f3g pattern {41111111/11111/11111/21/111}
 Group   2 Type Fe  : 19s5p5d3f3g contracted to 8s5p5d2f3g pattern {121111111/11111/11111/21/111}

Atom   0Au   basis set group =>   1
Atom   1Au   basis set group =>   1
Atom   2Au   basis set group =>   1
Atom   3Au   basis set group =>   1
Atom   4Au   basis set group =>   1
Atom   5Au   basis set group =>   1
Atom   6Au   basis set group =>   1
Atom   7Au   basis set group =>   1
Atom   8Au   basis set group =>   1
Atom   9Au   basis set group =>   1
Atom  10Au   basis set group =>   1
Atom  11Au   basis set group =>   1
Atom  12Au   basis set group =>   1
Atom  13Au   basis set group =>   1
Atom  14Fe   basis set group =>   2
---------------------------------
AUXILIARY/C BASIS SET INFORMATION
---------------------------------
There are 2 groups of distinct atoms

 Group   1 Type Au  : 8s8p7d5f3g2h contracted to 8s8p7d5f3g2h pattern {11111111/11111111/1111111/11111/111/11}
 Group   2 Type Fe  : 11s9p8d6f5g2h contracted to 9s8p8d6f5g2h pattern {311111111/21111111/11111111/111111/11111/11}

Atom   0Au   basis set group =>   1
Atom   1Au   basis set group =>   1
Atom   2Au   basis set group =>   1
Atom   3Au   basis set group =>   1
Atom   4Au   basis set group =>   1
Atom   5Au   basis set group =>   1
Atom   6Au   basis set group =>   1
Atom   7Au   basis set group =>   1
Atom   8Au   basis set group =>   1
Atom   9Au   basis set group =>   1
Atom  10Au   basis set group =>   1
Atom  11Au   basis set group =>   1
Atom  12Au   basis set group =>   1
Atom  13Au   basis set group =>   1
Atom  14Fe   basis set group =>   2
-------------------------
ECP PARAMETER INFORMATION
-------------------------

 Group 1, Type Au ECP Def2-ECP (replacing 60 core electrons, lmax=3)

Atom   0Au   ECP group =>   1
Atom   1Au   ECP group =>   1
Atom   2Au   ECP group =>   1
Atom   3Au   ECP group =>   1
Atom   4Au   ECP group =>   1
Atom   5Au   ECP group =>   1
Atom   6Au   ECP group =>   1
Atom   7Au   ECP group =>   1
Atom   8Au   ECP group =>   1
Atom   9Au   ECP group =>   1
Atom  10Au   ECP group =>   1
Atom  11Au   ECP group =>   1
Atom  12Au   ECP group =>   1
Atom  13Au   ECP group =>   1



           ************************************************************
           *        Program running with 6 parallel MPI-processes     *
           *              working on a common directory               *
           ************************************************************
------------------------------------------------------------------------------
                           ORCA GTO INTEGRAL CALCULATION
                           -- RI-GTO INTEGRALS CHOSEN --
------------------------------------------------------------------------------
------------------------------------------------------------------------------
                   ___                                                        
                  /   \      - P O W E R E D   B Y -                         
                 /     \                                                     
                 |  |  |   _    _      __       _____    __    __             
                 |  |  |  | |  | |    /  \     |  _  \  |  |  /  |          
                  \  \/   | |  | |   /    \    | | | |  |  | /  /          
                 / \  \   | |__| |  /  /\  \   | |_| |  |  |/  /          
                |  |  |   |  __  | /  /__\  \  |    /   |      \           
                |  |  |   | |  | | |   __   |  |    \   |  |\   \          
                \     /   | |  | | |  |  |  |  | |\  \  |  | \   \       
                 \___/    |_|  |_| |__|  |__|  |_| \__\ |__|  \__/        
                                                                              
                      - O R C A' S   B I G   F R I E N D -                    
                                      &                                       
                       - I N T E G R A L  F E E D E R -                       
                                                                              
 v1 FN, 2020, v2 2021                                                         
------------------------------------------------------------------------------


Reading SHARK input file b2plyp.SHARKINP.tmp ... ok
----------------------
SHARK INTEGRAL PACKAGE
----------------------

Number of atoms                             ...     15
Number of basis functions                   ...    605
Number of shells                            ...    211
Maximum angular momentum                    ...      3
Integral batch strategy                     ... SHARK/LIBINT Hybrid
RI-J (if used) integral strategy            ... SPLIT-RIJ (Revised 2003 algorithm where possible)
Printlevel                                  ...      1
Contraction scheme used                     ... SEGMENTED contraction
Coulomb Range Separation                    ... NOT USED
Exchange Range Separation                   ... NOT USED
Finite Nucleus Model                        ... NOT USED
Auxiliary Coulomb fitting basis             ... AVAILABLE
   # of basis functions in Aux-J            ...   1335
   # of shells in Aux-J                     ...    345
   Maximum angular momentum in Aux-J        ...      4
Auxiliary J/K fitting basis                 ... NOT available
Auxiliary Correlation fitting basis         ... AVAILABLE
   # of basis functions in Aux-C            ...   2296
   # of shells in Aux-C                     ...    500
   Maximum angular momentum in Aux-C        ...      5
Auxiliary 'external' fitting basis          ... NOT available
Integral threshold                          ...     1.000000e-10
Primitive cut-off                           ...     1.000000e-11
Primitive pair pre-selection threshold      ...     1.000000e-11

Calculating pre-screening integrals         ... done (  0.2 sec) Dimension = 211
Organizing shell pair data                  ... done (  0.7 sec)
Shell pair information
Total number of shell pairs                 ...     22366
Shell pairs after pre-screening             ...     17710
Total number of primitive shell pairs       ...     59609
Primitive shell pairs kept                  ...     34061
          la=0 lb=0:   2797 shell pairs
          la=1 lb=0:   4039 shell pairs
          la=1 lb=1:   1529 shell pairs
          la=2 lb=0:   3492 shell pairs
          la=2 lb=1:   2489 shell pairs
          la=2 lb=2:   1023 shell pairs
          la=3 lb=0:    921 shell pairs
          la=3 lb=1:    710 shell pairs
          la=3 lb=2:    610 shell pairs
          la=3 lb=3:    100 shell pairs

Calculating one electron integrals          ... done (  0.1 sec)
Calculating ECP integrals                   ... done ( 16.4 sec)
Calculating RI/J V-Matrix + Cholesky decomp.... done (  3.4 sec)
Calculating RI/C V-Matrix + Cholesky decomp.... done (  5.2 sec)
Calculating Nuclear repulsion               ... done (  0.0 sec) ENN=   5691.855612413186 Eh

SHARK setup successfully completed in  27.2 seconds

Maximum memory used throughout the entire GTOINT-calculation: 49.3 MB


           ************************************************************
           *        Program running with 6 parallel MPI-processes     *
           *              working on a common directory               *
           ************************************************************
-------------------------------------------------------------------------------
                                 ORCA SCF
-------------------------------------------------------------------------------

------------
SCF SETTINGS
------------
Hamiltonian:
 Density Functional     Method          .... DFT(GTOs)
 Exchange Functional    Exchange        .... B88
   X-Alpha parameter    XAlpha          ....  0.666667
   Becke's b parameter  XBeta           ....  0.004200
 Correlation Functional Correlation     .... LYP
 LDA part of GGA corr.  LDAOpt          .... VWN-3
 Gradients option       PostSCFGGA      .... off
 Hybrid DFT is turned on
   Fraction HF Exchange ScalHFX         ....  0.530000
   Scaling of DF-GGA-X  ScalDFX         ....  0.470000
   Scaling of DF-GGA-C  ScalDFC         ....  0.730000
   Scaling of DF-LDA-C  ScalLDAC        ....  0.730000
   Perturbative correction              ....  0.270000
   Density functional embedding theory  .... OFF
   NL short-range parameter             ....  7.800000
 RI-approximation to the Coulomb term is turned on
   Number of AuxJ basis functions       .... 1335
   RIJ-COSX (HFX calculated with COS-X)).... on


General Settings:
 Integral files         IntName         .... b2plyp
 Hartree-Fock type      HFTyp           .... UHF
 Total Charge           Charge          ....    0
 Multiplicity           Mult            ....    5
 Number of Electrons    NEL             ....  292
 Basis Dimension        Dim             ....  605
 Nuclear Repulsion      ENuc            ....   5691.8556124132 Eh

Convergence Acceleration:
 DIIS                   CNVDIIS         .... on
   Start iteration      DIISMaxIt       ....    12
   Startup error        DIISStart       ....  0.200000
   # of expansion vecs  DIISMaxEq       ....     5
   Bias factor          DIISBfac        ....   1.050
   Max. coefficient     DIISMaxC        ....  10.000
 Trust-Rad. Augm. Hess. CNVTRAH         .... auto
   Auto Start mean grad. ratio tolernc. ....  1.125000
   Auto Start start iteration           ....    20
   Auto Start num. interpolation iter.  ....    10
   Max. Number of Micro iterations      ....    16
   Max. Number of Macro iterations      .... Maxiter - #DIIS iter
   Number of Davidson start vectors     ....     2
   Converg. threshold I  (grad. norm)   ....   5.000e-05
   Converg. threshold II (energy diff.) ....   1.000e-06
   Grad. Scal. Fac. for Micro threshold ....   0.100
   Minimum threshold for Micro iter.    ....   0.010
   NR start threshold (gradient norm)   ....   0.001
   Initial trust radius                 ....   0.400
   Minimum AH scaling param. (alpha)    ....   1.000
   Maximum AH scaling param. (alpha)    .... 1000.000
   Orbital update algorithm             .... Taylor
   White noise on init. David. guess    .... on
   Maximum white noise                  ....   0.010
   Quad. conv. algorithm                .... NR
 SOSCF                  CNVSOSCF        .... off
 Level Shifting         CNVShift        .... on
   Level shift para.    LevelShift      ....    0.2500
   Turn off err/grad.   ShiftErr        ....    0.0010
 Zerner damping         CNVZerner       .... off
 Static damping         CNVDamp         .... on
   Fraction old density DampFac         ....    0.7000
   Max. Damping (<1)    DampMax         ....    0.9800
   Min. Damping (>=0)   DampMin         ....    0.0000
   Turn off err/grad.   DampErr         ....    0.1000
 Fernandez-Rico         CNVRico         .... off

SCF Procedure:
 Maximum # iterations   MaxIter         ....   125
 SCF integral mode      SCFMode         .... Direct
   Integral package                     .... SHARK and LIBINT hybrid scheme
 Reset frequency        DirectResetFreq ....    20
 Integral Threshold     Thresh          ....  1.000e-10 Eh
 Primitive CutOff       TCut            ....  1.000e-11 Eh

Convergence Tolerance:
 Convergence Check Mode ConvCheckMode   .... Total+1el-Energy
 Convergence forced     ConvForced      .... 0
 Energy Change          TolE            ....  1.000e-06 Eh
 1-El. energy change                    ....  1.000e-03 Eh
 DIIS Error             TolErr          ....  1.000e-06


Diagonalization of the overlap matrix:
Smallest eigenvalue                        ... 4.503e-04
Time for diagonalization                   ...    0.128 sec
Threshold for overlap eigenvalues          ... 1.000e-08
Number of eigenvalues below threshold      ... 0
Time for construction of square roots      ...    0.469 sec
Total time needed                          ...    0.984 sec

Time for model grid setup =    3.672 sec

------------------------------
INITIAL GUESS: MODEL POTENTIAL
------------------------------
Loading Hartree-Fock densities                     ... done
  calling /media/Programs/ORCA501/orca b2plyp_atom79.inp > b2plyp_atom79.out in order to generate an atomic fitting density for atom 0 (Au with ECP) on-the-fly... 
    atom 0 (Au), assumed electronic state with S=2: 1s2 2s2 2p6 3s2 3p6 4s2 3d10 4p6 5s2 4d10 5p6 6s1 4f14 5d10           ... done
Calculating cut-offs                               ... done
Initializing the effective Hamiltonian             ... done
Setting up the integral package (SHARK)            ... done
Starting the Coulomb interaction                   ... done (   1.3 sec)
Reading the grid                                   ... done
Mapping shells                                     ... done
Starting the XC term evaluation                    ... done (   0.9 sec)
  promolecular density results
     # of electrons  =   1132.015190256
     EX              =  -5197.630575579
     EC              =    -23.013459875
     EX+EC           =  -5220.644035454
Transforming the Hamiltonian                       ... done (   0.1 sec)
Diagonalizing the Hamiltonian                      ... done (   0.3 sec)
Back transforming the eigenvectors                 ... done (   0.0 sec)
Now organizing SCF variables                       ... done
                      ------------------
                      INITIAL GUESS DONE (   7.5 sec)
                      ------------------
-------------------
DFT GRID GENERATION
-------------------

General Integration Accuracy     IntAcc      ... 4.388
Radial Grid Type                 RadialGrid  ... OptM3 with GC (2021)
Angular Grid (max. ang.)         AngularGrid ... 4 (Lebedev-302)
Angular grid pruning method      GridPruning ... 4 (adaptive)
Weight generation scheme         WeightScheme... Becke
Basis function cutoff            BFCut       ... 1.0000e-10
Integration weight cutoff        WCut        ... 1.0000e-14
Angular grids for H and He will be reduced by one unit
Partially contracted basis set               ... off
Rotationally invariant grid construction     ... off

Total number of grid points                  ...   165814
Total number of batches                      ...     2599
Average number of points per batch           ...       63
Average number of grid points per atom       ...    11054
Time for grid setup =    3.158 sec

--------------------
COSX GRID GENERATION
--------------------

GRIDX 1
-------
General Integration Accuracy     IntAcc      ... 3.816
Radial Grid Type                 RadialGrid  ... OptM3 with GC (2021)
Angular Grid (max. ang.)         AngularGrid ... 1 (Lebedev-50)
Angular grid pruning method      GridPruning ... 4 (adaptive)
Weight generation scheme         WeightScheme... Becke
Basis function cutoff            BFCut       ... 1.0000e-10
Integration weight cutoff        WCut        ... 1.0000e-14
Angular grids for H and He will be reduced by one unit
Partially contracted basis set               ... on
Rotationally invariant grid construction     ... off

Total number of grid points                  ...    17377
Total number of batches                      ...      278
Average number of points per batch           ...       62
Average number of grid points per atom       ...     1158
UseSFitting                                  ... on

GRIDX 2
-------
General Integration Accuracy     IntAcc      ... 4.020
Radial Grid Type                 RadialGrid  ... OptM3 with GC (2021)
Angular Grid (max. ang.)         AngularGrid ... 2 (Lebedev-110)
Angular grid pruning method      GridPruning ... 4 (adaptive)
Weight generation scheme         WeightScheme... Becke
Basis function cutoff            BFCut       ... 1.0000e-10
Integration weight cutoff        WCut        ... 1.0000e-14
Angular grids for H and He will be reduced by one unit
Partially contracted basis set               ... on
Rotationally invariant grid construction     ... off

Total number of grid points                  ...    52669
Total number of batches                      ...      832
Average number of points per batch           ...       63
Average number of grid points per atom       ...     3511
UseSFitting                                  ... on

GRIDX 3
-------
General Integration Accuracy     IntAcc      ... 4.338
Radial Grid Type                 RadialGrid  ... OptM3 with GC (2021)
Angular Grid (max. ang.)         AngularGrid ... 3 (Lebedev-194)
Angular grid pruning method      GridPruning ... 4 (adaptive)
Weight generation scheme         WeightScheme... Becke
Basis function cutoff            BFCut       ... 1.0000e-10
Integration weight cutoff        WCut        ... 1.0000e-14
Angular grids for H and He will be reduced by one unit
Partially contracted basis set               ... on
Rotationally invariant grid construction     ... off

Total number of grid points                  ...    95800
Total number of batches                      ...     1505
Average number of points per batch           ...       63
Average number of grid points per atom       ...     6387
UseSFitting                                  ... on

Time for X-Grid setup             =    7.416 sec

--------------
SCF ITERATIONS
--------------
ITER       Energy         Delta-E        Max-DP      RMS-DP      [F,P]     Damp
               ***  Starting incremental Fock matrix formation  ***
  0  -3155.5374628007   0.000000000000 0.31213134  0.00217476  0.5585221 0.7000
  1  -3157.3754144342  -1.837951633513 0.10934172  0.00103088  0.1950567 0.7000
                               ***Turning on DIIS***
  2  -3157.8250469972  -0.449632562965 0.09418649  0.00077841  0.1366197 0.7000
  3  -3158.2165978165  -0.391550819265 0.15433073  0.00174645  0.0959305 0.0000
  4  -3159.0771368176  -0.860539001108 0.04509745  0.00018541  0.1276043 0.7000
  5  -3159.1198285551  -0.042691737514 0.03149259  0.00017502  0.1180202 0.7000
  6  -3159.1663252670  -0.046496711940 0.01638510  0.00014973  0.1010212 0.7000
  7  -3159.2101611249  -0.043835857904 0.06629669  0.00057986  0.0807392 0.0000
  8  -3159.3295687233  -0.119407598364 0.07071546  0.00024231  0.0775137 0.0000
  9  -3159.3648901724  -0.035321449148 0.02048516  0.00017862  0.0365121 0.0000
 10  -3159.3857628747  -0.020872702254 0.03245690  0.00024731  0.0268520 0.0000
 11  -3159.4078538012  -0.022090926495 0.01506994  0.00016188  0.0126422 0.0000
 12  -3159.4177934122  -0.009939610999 0.01043913  0.00012590  0.0094336 0.0000
 13  -3159.4233828663  -0.005589454121 0.01050684  0.00011125  0.0062252 0.0000
 14  -3159.4271739346  -0.003791068292 0.00879802  0.00009052  0.0063107 0.0000
 15  -3159.4298817110  -0.002707776381 0.00945039  0.00008937  0.0052062 0.0000
 16  -3159.4322015495  -0.002319838574 0.00833593  0.00008235  0.0053550 0.0000
 17  -3159.4340197746  -0.001818225091 0.00995928  0.00009774  0.0035469 0.0000
 18  -3159.4357044973  -0.001684722669 0.00707919  0.00006439  0.0024068 0.0000
 19  -3159.4364258004  -0.000721303100 0.00546204  0.00004221  0.0018081 0.0000
               *** Restarting incremental Fock matrix formation ***
                                   *** Resetting DIIS ***
 20  -3159.4393209551  -0.002895154693 0.00918187  0.00016058  0.0009809 0.0000
               *** Restarting incremental Fock matrix formation ***
                                   *** Resetting DIIS ***
 21  -3159.4368044330   0.002516522083 0.00566442  0.00009899  0.0013757 0.0000
 22  -3159.4369526770  -0.000148243992 0.00170263  0.00002982  0.0014396 0.0000
 23  -3159.4370141250  -0.000061447940 0.00246060  0.00002563  0.0006027 0.0000
 24  -3159.4370380971  -0.000023972152 0.00164911  0.00001079  0.0003317 0.0000
 25  -3159.4370485899  -0.000010492842 0.00132983  0.00000954  0.0004580 0.0000
 26  -3159.4370559366  -0.000007346702 0.00087350  0.00000568  0.0002245 0.0000
 27  -3159.4370583977  -0.000002461101 0.00041379  0.00000335  0.0001537 0.0000
 28  -3159.4370591019  -0.000000704140 0.00017098  0.00000157  0.0001311 0.0000
 29  -3159.4370597227  -0.000000620823 0.00013561  0.00000115  0.0001337 0.0000
 30  -3159.4370601669  -0.000000444143 0.00011180  0.00000091  0.0001315 0.0000
 31  -3159.4370603685  -0.000000201609 0.00011221  0.00000087  0.0001323 0.0000
 32  -3159.4370607396  -0.000000371132 0.00007832  0.00000064  0.0001313 0.0000
 33  -3159.4370608305  -0.000000090859 0.00014972  0.00000114  0.0001314 0.0000
                 **** Energy Check signals convergence ****

               *****************************************************
               *                     SUCCESS                       *
               *           SCF CONVERGED AFTER  34 CYCLES          *
               *****************************************************

Old exchange energy                            =   -117.354996468 Eh
New exchange energy                            =   -117.354915750 Eh
Exchange energy change after final integration =      0.000080718 Eh
Total energy after final integration           =  -3159.436980595 Eh
Final COS-X integration done in                =    36.596 sec

----------------
TOTAL SCF ENERGY
----------------

Total Energy       :        -3159.43698060 Eh          -85972.65101 eV

Components:
Nuclear Repulsion  :         5691.85561241 Eh          154883.26533 eV
Electronic Energy  :        -8851.29259301 Eh         -240855.91633 eV
One Electron Energy:       -16464.21060381 Eh         -448013.94712 eV
Two Electron Energy:         7612.91801080 Eh          207158.03078 eV
Max COSX asymmetry :            0.00000903 Eh               0.00025 eV

Virial components:
Potential Energy   :        -5065.03318799 Eh         -137826.56001 eV
Kinetic Energy     :         1905.59620739 Eh           51853.90900 eV
Virial Ratio       :            2.65797821


DFT components:
N(Alpha)           :      147.999959968608 electrons
N(Beta)            :      143.999953431610 electrons
N(Total)           :      291.999913400218 electrons
E(X)               :     -105.724229298346 Eh       
E(C)               :       -8.060256094625 Eh       
E(XC)              :     -113.784485392970 Eh       
DFET-embed. en.    :        0.000000000000 Eh       

---------------
SCF CONVERGENCE
---------------

  Last Energy change         ...   -4.8252e-07  Tolerance :   1.0000e-06
  Last MAX-Density change    ...    0.0000e+00  Tolerance :   1.0000e-05
  Last RMS-Density change    ...    0.0000e+00  Tolerance :   1.0000e-06
  Last DIIS Error            ...    1.3037e-04  Tolerance :   1.0000e-06

             **** THE GBW FILE WAS UPDATED (b2plyp.gbw) ****
             **** DENSITY b2plyp.scfp WAS UPDATED ****
             **** ENERGY FILE WAS UPDATED (b2plyp.en.tmp) ****
----------------------
UHF SPIN CONTAMINATION
----------------------

Warning: in a DFT calculation there is little theoretical justification to 
         calculate <S**2> as in Hartree-Fock theory. We will do it anyways
         but you should keep in mind that the values have only limited relevance

Expectation value of <S**2>     :     6.045209
Ideal value S*(S+1) for S=2.0   :     6.000000
Deviation                       :     0.045209

             **** THE GBW FILE WAS UPDATED (b2plyp.gbw) ****
             **** DENSITY b2plyp.scfp WAS UPDATED ****
----------------
ORBITAL ENERGIES
----------------
                 SPIN UP ORBITALS
  NO   OCC          E(Eh)            E(eV) 
   0   1.0000    -258.351618     -7030.1049 
   1   1.0000     -30.913833      -841.2082 
   2   1.0000     -26.632042      -724.6947 
   3   1.0000     -26.602767      -723.8981 
   4   1.0000     -26.600780      -723.8440 
   5   1.0000      -4.411531      -120.0439 
   6   1.0000      -4.405793      -119.8877 
   7   1.0000      -4.405038      -119.8672 
   8   1.0000      -4.403529      -119.8261 
   9   1.0000      -4.401282      -119.7650 
  10   1.0000      -4.400897      -119.7545 
  11   1.0000      -4.392892      -119.5367 
  12   1.0000      -4.392573      -119.5280 
  13   1.0000      -4.392298      -119.5205 
  14   1.0000      -4.391890      -119.5094 
  15   1.0000      -4.391747      -119.5055 
  16   1.0000      -4.390888      -119.4821 
  17   1.0000      -4.390610      -119.4746 
  18   1.0000      -4.389451      -119.4430 
  19   1.0000      -3.926767      -106.8528 
  20   1.0000      -2.677117       -72.8481 
  21   1.0000      -2.616266       -71.1922 
  22   1.0000      -2.612369       -71.0862 
  23   1.0000      -2.531093       -68.8745 
  24   1.0000      -2.530141       -68.8486 
  25   1.0000      -2.528535       -68.8049 
  26   1.0000      -2.525834       -68.7314 
  27   1.0000      -2.525168       -68.7133 
  28   1.0000      -2.525040       -68.7098 
  29   1.0000      -2.524267       -68.6888 
  30   1.0000      -2.524086       -68.6839 
  31   1.0000      -2.520819       -68.5950 
  32   1.0000      -2.520647       -68.5903 
  33   1.0000      -2.519610       -68.5621 
  34   1.0000      -2.519394       -68.5562 
  35   1.0000      -2.518937       -68.5438 
  36   1.0000      -2.518545       -68.5331 
  37   1.0000      -2.517761       -68.5118 
  38   1.0000      -2.517337       -68.5002 
  39   1.0000      -2.515724       -68.4563 
  40   1.0000      -2.515222       -68.4427 
  41   1.0000      -2.515044       -68.4378 
  42   1.0000      -2.514408       -68.4205 
  43   1.0000      -2.512456       -68.3674 
  44   1.0000      -2.511328       -68.3367 
  45   1.0000      -2.511133       -68.3314 
  46   1.0000      -2.510362       -68.3104 
  47   1.0000      -2.510292       -68.3085 
  48   1.0000      -2.509690       -68.2921 
  49   1.0000      -2.509356       -68.2831 
  50   1.0000      -2.509224       -68.2795 
  51   1.0000      -2.509179       -68.2782 
  52   1.0000      -2.508345       -68.2555 
  53   1.0000      -2.508252       -68.2530 
  54   1.0000      -2.507476       -68.2319 
  55   1.0000      -2.507241       -68.2255 
  56   1.0000      -2.506240       -68.1983 
  57   1.0000      -2.506109       -68.1947 
  58   1.0000      -2.506017       -68.1922 
  59   1.0000      -2.505666       -68.1827 
  60   1.0000      -2.505394       -68.1752 
  61   1.0000      -2.505324       -68.1733 
  62   1.0000      -2.504615       -68.1541 
  63   1.0000      -2.504502       -68.1510 
  64   1.0000      -2.504234       -68.1437 
  65   1.0000      -0.571114       -15.5408 
  66   1.0000      -0.567660       -15.4468 
  67   1.0000      -0.567141       -15.4327 
  68   1.0000      -0.547820       -14.9069 
  69   1.0000      -0.516657       -14.0589 
  70   1.0000      -0.514036       -13.9876 
  71   1.0000      -0.472574       -12.8594 
  72   1.0000      -0.465306       -12.6616 
  73   1.0000      -0.464146       -12.6300 
  74   1.0000      -0.462495       -12.5851 
  75   1.0000      -0.458900       -12.4873 
  76   1.0000      -0.458084       -12.4651 
  77   1.0000      -0.457417       -12.4470 
  78   1.0000      -0.455440       -12.3931 
  79   1.0000      -0.452454       -12.3119 
  80   1.0000      -0.452239       -12.3060 
  81   1.0000      -0.450000       -12.2451 
  82   1.0000      -0.449898       -12.2423 
  83   1.0000      -0.446766       -12.1571 
  84   1.0000      -0.445221       -12.1151 
  85   1.0000      -0.445183       -12.1140 
  86   1.0000      -0.442065       -12.0292 
  87   1.0000      -0.440346       -11.9824 
  88   1.0000      -0.436719       -11.8837 
  89   1.0000      -0.436426       -11.8758 
  90   1.0000      -0.434568       -11.8252 
  91   1.0000      -0.430471       -11.7137 
  92   1.0000      -0.429246       -11.6804 
  93   1.0000      -0.423883       -11.5344 
  94   1.0000      -0.422678       -11.5017 
  95   1.0000      -0.419862       -11.4250 
  96   1.0000      -0.416996       -11.3470 
  97   1.0000      -0.416838       -11.3427 
  98   1.0000      -0.412840       -11.2339 
  99   1.0000      -0.410275       -11.1641 
 100   1.0000      -0.406188       -11.0529 
 101   1.0000      -0.403626       -10.9832 
 102   1.0000      -0.401070       -10.9137 
 103   1.0000      -0.397716       -10.8224 
 104   1.0000      -0.396784       -10.7970 
 105   1.0000      -0.394068       -10.7231 
 106   1.0000      -0.392365       -10.6768 
 107   1.0000      -0.391311       -10.6481 
 108   1.0000      -0.387846       -10.5538 
 109   1.0000      -0.385350       -10.4859 
 110   1.0000      -0.383633       -10.4392 
 111   1.0000      -0.378584       -10.3018 
 112   1.0000      -0.377739       -10.2788 
 113   1.0000      -0.374161       -10.1814 
 114   1.0000      -0.373024       -10.1505 
 115   1.0000      -0.372577       -10.1383 
 116   1.0000      -0.371132       -10.0990 
 117   1.0000      -0.367342        -9.9959 
 118   1.0000      -0.367059        -9.9882 
 119   1.0000      -0.366187        -9.9645 
 120   1.0000      -0.364644        -9.9225 
 121   1.0000      -0.364124        -9.9083 
 122   1.0000      -0.361559        -9.8385 
 123   1.0000      -0.359771        -9.7899 
 124   1.0000      -0.356261        -9.6944 
 125   1.0000      -0.355037        -9.6610 
 126   1.0000      -0.353672        -9.6239 
 127   1.0000      -0.353165        -9.6101 
 128   1.0000      -0.351629        -9.5683 
 129   1.0000      -0.349332        -9.5058 
 130   1.0000      -0.347590        -9.4584 
 131   1.0000      -0.347247        -9.4491 
 132   1.0000      -0.340837        -9.2746 
 133   1.0000      -0.339453        -9.2370 
 134   1.0000      -0.338071        -9.1994 
 135   1.0000      -0.337281        -9.1779 
 136   1.0000      -0.334038        -9.0896 
 137   1.0000      -0.332496        -9.0477 
 138   1.0000      -0.330051        -8.9811 
 139   1.0000      -0.329631        -8.9697 
 140   1.0000      -0.328317        -8.9340 
 141   1.0000      -0.313974        -8.5437 
 142   1.0000      -0.303570        -8.2606 
 143   1.0000      -0.302046        -8.2191 
 144   1.0000      -0.245698        -6.6858 
 145   1.0000      -0.228487        -6.2174 
 146   1.0000      -0.226540        -6.1645 
 147   1.0000      -0.193598        -5.2681 
 148   0.0000      -0.117625        -3.2007 
 149   0.0000      -0.080676        -2.1953 
 150   0.0000      -0.073955        -2.0124 
 151   0.0000      -0.072050        -1.9606 
 152   0.0000      -0.070546        -1.9197 
 153   0.0000      -0.049417        -1.3447 
 154   0.0000      -0.042233        -1.1492 
 155   0.0000      -0.015884        -0.4322 
 156   0.0000      -0.002011        -0.0547 
 157   0.0000      -0.000929        -0.0253 
 158   0.0000       0.004605         0.1253 
 159   0.0000       0.005284         0.1438 
 160   0.0000       0.010441         0.2841 
 161   0.0000       0.021627         0.5885 
 162   0.0000       0.029327         0.7980 
 163   0.0000       0.046889         1.2759 
 164   0.0000       0.047532         1.2934 
 165   0.0000       0.058836         1.6010 
 166   0.0000       0.068709         1.8697 
 167   0.0000       0.070961         1.9310 
 168   0.0000       0.076007         2.0683 
 169   0.0000       0.082483         2.2445 
 170   0.0000       0.085718         2.3325 
 171   0.0000       0.085980         2.3396 
 172   0.0000       0.087455         2.3798 
 173   0.0000       0.091136         2.4799 
 174   0.0000       0.100318         2.7298 
 175   0.0000       0.103041         2.8039 
 176   0.0000       0.106581         2.9002 
 177   0.0000       0.109363         2.9759 
 178   0.0000       0.114890         3.1263 
 179   0.0000       0.115006         3.1295 
 180   0.0000       0.119052         3.2396 
 181   0.0000       0.127533         3.4704 
 182   0.0000       0.130157         3.5418 
 183   0.0000       0.136046         3.7020 
 184   0.0000       0.141885         3.8609 
 185   0.0000       0.151785         4.1303 
 186   0.0000       0.153220         4.1693 
 187   0.0000       0.161744         4.4013 
 188   0.0000       0.162279         4.4158 
 189   0.0000       0.165230         4.4961 
 190   0.0000       0.168740         4.5917 
 191   0.0000       0.173356         4.7173 
 192   0.0000       0.180663         4.9161 
 193   0.0000       0.186241         5.0679 
 194   0.0000       0.199801         5.4369 
 195   0.0000       0.202681         5.5152 
 196   0.0000       0.203545         5.5387 
 197   0.0000       0.207974         5.6593 
 198   0.0000       0.213626         5.8131 
 199   0.0000       0.224531         6.1098 
 200   0.0000       0.228817         6.2264 
 201   0.0000       0.231881         6.3098 
 202   0.0000       0.233390         6.3509 
 203   0.0000       0.245051         6.6682 
 204   0.0000       0.253189         6.8896 
 205   0.0000       0.263352         7.1662 
 206   0.0000       0.268671         7.3109 
 207   0.0000       0.272094         7.4041 
 208   0.0000       0.288410         7.8480 
 209   0.0000       0.290605         7.9078 
 210   0.0000       0.294341         8.0094 
 211   0.0000       0.299845         8.1592 
 212   0.0000       0.300528         8.1778 
 213   0.0000       0.320447         8.7198 
 214   0.0000       0.324355         8.8261 
 215   0.0000       0.330039         8.9808 
 216   0.0000       0.331604         9.0234 
 217   0.0000       0.337945         9.1960 
 218   0.0000       0.338938         9.2230 
 219   0.0000       0.344552         9.3757 
 220   0.0000       0.350891         9.5482 
 221   0.0000       0.360979         9.8227 
 222   0.0000       0.363562         9.8930 
 223   0.0000       0.365654         9.9500 
 224   0.0000       0.368479        10.0268 
 225   0.0000       0.370499        10.0818 
 226   0.0000       0.377890        10.2829 
 227   0.0000       0.379996        10.3402 
 228   0.0000       0.380371        10.3504 
 229   0.0000       0.386882        10.5276 
 230   0.0000       0.395398        10.7593 
 231   0.0000       0.398085        10.8324 
 232   0.0000       0.405383        11.0310 
 233   0.0000       0.407315        11.0836 
 234   0.0000       0.418615        11.3911 
 235   0.0000       0.420646        11.4463 
 236   0.0000       0.423748        11.5308 
 237   0.0000       0.424546        11.5525 
 238   0.0000       0.426986        11.6189 
 239   0.0000       0.443425        12.0662 
 240   0.0000       0.449774        12.2390 
 241   0.0000       0.453161        12.3311 
 242   0.0000       0.453770        12.3477 
 243   0.0000       0.458385        12.4733 
 244   0.0000       0.459866        12.5136 
 245   0.0000       0.460151        12.5214 
 246   0.0000       0.464549        12.6410 
 247   0.0000       0.470721        12.8090 
 248   0.0000       0.475942        12.9510 
 249   0.0000       0.484979        13.1969 
 250   0.0000       0.490627        13.3506 
 251   0.0000       0.496780        13.5181 
 252   0.0000       0.499100        13.5812 
 253   0.0000       0.507341        13.8055 
 254   0.0000       0.511120        13.9083 
 255   0.0000       0.515551        14.0289 
 256   0.0000       0.526348        14.3227 
 257   0.0000       0.529123        14.3982 
 258   0.0000       0.533730        14.5235 
 259   0.0000       0.537225        14.6186 
 260   0.0000       0.544600        14.8193 
 261   0.0000       0.548986        14.9387 
 262   0.0000       0.556935        15.1550 
 263   0.0000       0.559314        15.2197 
 264   0.0000       0.561021        15.2662 
 265   0.0000       0.565339        15.3837 
 266   0.0000       0.568316        15.4647 
 267   0.0000       0.571780        15.5589 
 268   0.0000       0.578930        15.7535 
 269   0.0000       0.580348        15.7921 
 270   0.0000       0.585955        15.9446 
 271   0.0000       0.590057        16.0563 
 272   0.0000       0.591944        16.1076 
 273   0.0000       0.593475        16.1493 
 274   0.0000       0.604361        16.4455 
 275   0.0000       0.606653        16.5079 
 276   0.0000       0.609225        16.5779 
 277   0.0000       0.611196        16.6315 
 278   0.0000       0.614563        16.7231 
 279   0.0000       0.621055        16.8998 
 280   0.0000       0.623333        16.9618 
 281   0.0000       0.625925        17.0323 
 282   0.0000       0.629762        17.1367 
 283   0.0000       0.636156        17.3107 
 284   0.0000       0.637840        17.3565 
 285   0.0000       0.644364        17.5340 
 286   0.0000       0.660576        17.9752 
 287   0.0000       0.669065        18.2062 
 288   0.0000       0.683741        18.6055 
 289   0.0000       0.695107        18.9148 
 290   0.0000       0.768594        20.9145 
 291   0.0000       0.787921        21.4404 
 292   0.0000       0.801841        21.8192 
 293   0.0000       0.803939        21.8763 
 294   0.0000       0.815620        22.1942 
 295   0.0000       0.831658        22.6306 
 296   0.0000       0.845769        23.0145 
 297   0.0000       0.848428        23.0869 
 298   0.0000       0.855540        23.2804 
 299   0.0000       0.873609        23.7721 
 300   0.0000       0.878521        23.9058 
 301   0.0000       0.880432        23.9578 
 302   0.0000       0.892649        24.2902 
 303   0.0000       0.897121        24.4119 
 304   0.0000       0.907743        24.7009 
 305   0.0000       0.909005        24.7353 
 306   0.0000       0.920263        25.0416 
 307   0.0000       0.926604        25.2142 
 308   0.0000       0.929419        25.2908 
 309   0.0000       0.941046        25.6072 
 310   0.0000       0.945298        25.7229 
 311   0.0000       0.947206        25.7748 
 312   0.0000       0.956749        26.0345 
 313   0.0000       0.965544        26.2738 
 314   0.0000       0.993771        27.0419 
 315   0.0000       1.007401        27.4128 
 316   0.0000       1.021833        27.8055 
 317   0.0000       1.023035        27.8382 
 318   0.0000       1.026480        27.9319 
 319   0.0000       1.041984        28.3538 
 320   0.0000       1.046271        28.4705 
 321   0.0000       1.053796        28.6752 
 322   0.0000       1.058190        28.7948 
 323   0.0000       1.063057        28.9273 
 324   0.0000       1.070839        29.1390 
 325   0.0000       1.096741        29.8438 
 326   0.0000       1.097829        29.8735 
 327   0.0000       1.118173        30.4270 
 328   0.0000       1.130555        30.7640 
 329   0.0000       1.154649        31.4196 
 330   0.0000       1.159398        31.5488 
 331   0.0000       1.215794        33.0834 
 332   0.0000       1.240449        33.7543 
 333   0.0000       1.244963        33.8772 
 334   0.0000       1.283861        34.9356 
 335   0.0000       1.337633        36.3988 
 336   0.0000       1.389452        37.8089 
 337   0.0000       1.391084        37.8533 
 338   0.0000       1.394203        37.9382 
 339   0.0000       1.422131        38.6982 
 340   0.0000       1.423877        38.7457 
 341   0.0000       1.436248        39.0823 
 342   0.0000       1.441325        39.2204 
 343   0.0000       1.446843        39.3706 
 344   0.0000       1.448756        39.4227 
 345   0.0000       1.479684        40.2643 
 346   0.0000       1.485848        40.4320 
 347   0.0000       1.492800        40.6212 
 348   0.0000       1.505675        40.9715 
 349   0.0000       1.511329        41.1254 
 350   0.0000       1.512529        41.1580 
 351   0.0000       1.519686        41.3528 
 352   0.0000       1.525692        41.5162 
 353   0.0000       1.541425        41.9443 
 354   0.0000       1.550042        42.1788 
 355   0.0000       1.554722        42.3061 
 356   0.0000       1.555431        42.3254 
 357   0.0000       1.564532        42.5731 
 358   0.0000       1.570808        42.7439 
 359   0.0000       1.573668        42.8217 
 360   0.0000       1.584032        43.1037 
 361   0.0000       1.587379        43.1948 
 362   0.0000       1.595692        43.4210 
 363   0.0000       1.596631        43.4465 
 364   0.0000       1.599936        43.5365 
 365   0.0000       1.605032        43.6751 
 366   0.0000       1.606401        43.7124 
 367   0.0000       1.609510        43.7970 
 368   0.0000       1.614765        43.9400 
 369   0.0000       1.618564        44.0434 
 370   0.0000       1.621922        44.1347 
 371   0.0000       1.626696        44.2646 
 372   0.0000       1.627903        44.2975 
 373   0.0000       1.631684        44.4004 
 374   0.0000       1.633517        44.4502 
 375   0.0000       1.635336        44.4998 
 376   0.0000       1.647121        44.8204 
 377   0.0000       1.652204        44.9588 
 378   0.0000       1.652934        44.9786 
 379   0.0000       1.654739        45.0277 
 380   0.0000       1.655841        45.0577 
 381   0.0000       1.659317        45.1523 
 382   0.0000       1.663901        45.2771 
 383   0.0000       1.665963        45.3332 
 384   0.0000       1.670147        45.4470 
 385   0.0000       1.671193        45.4755 
 386   0.0000       1.674469        45.5646 
 387   0.0000       1.674869        45.5755 
 388   0.0000       1.678053        45.6621 
 389   0.0000       1.679576        45.7036 
 390   0.0000       1.682145        45.7735 
 391   0.0000       1.683827        45.8193 
 392   0.0000       1.684795        45.8456 
 393   0.0000       1.685231        45.8575 
 394   0.0000       1.687847        45.9286 
 395   0.0000       1.689922        45.9851 
 396   0.0000       1.691624        46.0314 
 397   0.0000       1.692170        46.0463 
 398   0.0000       1.694763        46.1168 
 399   0.0000       1.695221        46.1293 
 400   0.0000       1.697324        46.1865 
 401   0.0000       1.698617        46.2217 
 402   0.0000       1.701045        46.2878 
 403   0.0000       1.701938        46.3121 
 404   0.0000       1.702428        46.3254 
 405   0.0000       1.703186        46.3460 
 406   0.0000       1.705152        46.3995 
 407   0.0000       1.706214        46.4285 
 408   0.0000       1.708659        46.4950 
 409   0.0000       1.709548        46.5192 
 410   0.0000       1.712422        46.5974 
 411   0.0000       1.713529        46.6275 
 412   0.0000       1.714030        46.6411 
 413   0.0000       1.714590        46.6564 
 414   0.0000       1.714807        46.6623 
 415   0.0000       1.716235        46.7011 
 416   0.0000       1.718730        46.7690 
 417   0.0000       1.719164        46.7808 
 418   0.0000       1.723599        46.9015 
 419   0.0000       1.725507        46.9534 
 420   0.0000       1.725827        46.9622 
 421   0.0000       1.726152        46.9710 
 422   0.0000       1.726690        46.9856 
 423   0.0000       1.731336        47.1121 
 424   0.0000       1.732280        47.1377 
 425   0.0000       1.735534        47.2263 
 426   0.0000       1.736801        47.2608 
 427   0.0000       1.738621        47.3103 
 428   0.0000       1.741214        47.3808 
 429   0.0000       1.742692        47.4211 
 430   0.0000       1.745334        47.4930 
 431   0.0000       1.745755        47.5044 
 432   0.0000       1.749771        47.6137 
 433   0.0000       1.750988        47.6468 
 434   0.0000       1.753963        47.7278 
 435   0.0000       1.755970        47.7824 
 436   0.0000       1.757198        47.8158 
 437   0.0000       1.757251        47.8172 
 438   0.0000       1.761522        47.9334 
 439   0.0000       1.763218        47.9796 
 440   0.0000       1.764273        48.0083 
 441   0.0000       1.766540        48.0700 
 442   0.0000       1.772207        48.2242 
 443   0.0000       1.773307        48.2541 
 444   0.0000       1.775858        48.3235 
 445   0.0000       1.781640        48.4809 
 446   0.0000       1.783835        48.5406 
 447   0.0000       1.785055        48.5738 
 448   0.0000       1.787019        48.6273 
 449   0.0000       1.787463        48.6393 
 450   0.0000       1.792402        48.7737 
 451   0.0000       1.793202        48.7955 
 452   0.0000       1.796572        48.8872 
 453   0.0000       1.797157        48.9031 
 454   0.0000       1.798353        48.9357 
 455   0.0000       1.800457        48.9929 
 456   0.0000       1.807756        49.1915 
 457   0.0000       1.810614        49.2693 
 458   0.0000       1.811877        49.3037 
 459   0.0000       1.815572        49.4042 
 460   0.0000       1.821010        49.5522 
 461   0.0000       1.824715        49.6530 
 462   0.0000       1.828746        49.7627 
 463   0.0000       1.829749        49.7900 
 464   0.0000       1.832527        49.8656 
 465   0.0000       1.834230        49.9119 
 466   0.0000       1.837182        49.9923 
 467   0.0000       1.843638        50.1679 
 468   0.0000       1.846619        50.2491 
 469   0.0000       1.850148        50.3451 
 470   0.0000       1.870029        50.8861 
 471   0.0000       1.878935        51.1284 
 472   0.0000       1.894080        51.5405 
 473   0.0000       1.897411        51.6312 
 474   0.0000       1.909914        51.9714 
 475   0.0000       1.911746        52.0212 
 476   0.0000       1.923132        52.3311 
 477   0.0000       1.926272        52.4165 
 478   0.0000       1.933928        52.6249 
 479   0.0000       1.951950        53.1153 
 480   0.0000       1.957113        53.2557 
 481   0.0000       1.968058        53.5536 
 482   0.0000       1.976960        53.7958 
 483   0.0000       1.989528        54.1378 
 484   0.0000       1.997647        54.3587 
 485   0.0000       2.001595        54.4662 
 486   0.0000       2.006022        54.5866 
 487   0.0000       2.014655        54.8215 
 488   0.0000       2.016894        54.8825 
 489   0.0000       2.018595        54.9288 
 490   0.0000       2.021966        55.0205 
 491   0.0000       2.026427        55.1419 
 492   0.0000       2.045567        55.6627 
 493   0.0000       2.047465        55.7144 
 494   0.0000       2.063811        56.1592 
 495   0.0000       2.073458        56.4217 
 496   0.0000       2.084701        56.7276 
 497   0.0000       2.096109        57.0380 
 498   0.0000       2.116121        57.5826 
 499   0.0000       2.130874        57.9840 
 500   0.0000       2.139720        58.2247 
 501   0.0000       2.148082        58.4523 
 502   0.0000       2.173777        59.1515 
 503   0.0000       2.186633        59.5013 
 504   0.0000       2.245150        61.0936 
 505   0.0000       2.408273        65.5324 
 506   0.0000       2.487148        67.6787 
 507   0.0000       2.529046        68.8189 
 508   0.0000       2.547037        69.3084 
 509   0.0000       2.553989        69.4976 
 510   0.0000       2.633981        71.6743 
 511   0.0000       2.671860        72.7050 
 512   0.0000       2.675259        72.7975 
 513   0.0000       2.680972        72.9530 
 514   0.0000       2.700739        73.4908 
 515   0.0000       2.702763        73.5459 
 516   0.0000       2.737492        74.4910 
 517   0.0000       2.756068        74.9964 
 518   0.0000       2.769621        75.3652 
 519   0.0000       2.788211        75.8711 
 520   0.0000       2.802603        76.2627 
 521   0.0000       2.841672        77.3258 
 522   0.0000       3.560397        96.8833 
 523   0.0000       3.801578       103.4462 
 524   0.0000       3.887246       105.7774 
 525   0.0000       3.890960       105.8784 
 526   0.0000       3.953882       107.5906 
 527   0.0000       4.002031       108.9008 
 528   0.0000       4.091278       111.3293 
 529   0.0000       4.099532       111.5539 
 530   0.0000       4.102403       111.6321 
 531   0.0000       4.108418       111.7957 
 532   0.0000       4.128141       112.3324 
 533   0.0000       4.154164       113.0405 
 534   0.0000       4.159315       113.1807 
 535   0.0000      23.908054       650.5712 
 536   0.0000      23.961085       652.0143 
 537   0.0000      24.088124       655.4712 
 538   0.0000      24.314212       661.6233 
 539   0.0000      24.398292       663.9113 
 540   0.0000      24.588709       669.0928 
 541   0.0000      24.685102       671.7158 
 542   0.0000      25.073349       682.2805 
 543   0.0000      25.186225       685.3520 
 544   0.0000      25.332143       689.3227 
 545   0.0000      25.459498       692.7882 
 546   0.0000      25.604524       696.7345 
 547   0.0000      25.611821       696.9331 
 548   0.0000      25.701506       699.3735 
 549   0.0000      25.740418       700.4324 
 550   0.0000      25.864311       703.8037 
 551   0.0000      25.912388       705.1119 
 552   0.0000      26.068515       709.3604 
 553   0.0000      26.160525       711.8641 
 554   0.0000      26.218594       713.4442 
 555   0.0000      26.387706       718.0460 
 556   0.0000      26.407881       718.5950 
 557   0.0000      26.544611       722.3156 
 558   0.0000      26.711126       726.8467 
 559   0.0000      26.769449       728.4337 
 560   0.0000      26.779255       728.7006 
 561   0.0000      26.898614       731.9485 
 562   0.0000      27.024226       735.3666 
 563   0.0000      27.095093       737.2950 
 564   0.0000      27.169715       739.3255 
 565   0.0000      27.217175       740.6170 
 566   0.0000      27.378467       745.0060 
 567   0.0000      27.517511       748.7895 
 568   0.0000      27.671160       752.9706 
 569   0.0000      27.796483       756.3807 
 570   0.0000      27.903695       759.2981 
 571   0.0000      27.963018       760.9124 
 572   0.0000      28.254692       768.8493 
 573   0.0000      28.750071       782.3292 
 574   0.0000      29.260836       796.2278 
 575   0.0000      29.288522       796.9812 
 576   0.0000      30.037145       817.3523 
 577   0.0000      44.121397      1200.6043 
 578   0.0000      44.199522      1202.7301 
 579   0.0000      44.274073      1204.7588 
 580   0.0000      44.276464      1204.8238 
 581   0.0000      44.305864      1205.6239 
 582   0.0000      44.311122      1205.7669 
 583   0.0000      44.339457      1206.5380 
 584   0.0000      44.355168      1206.9655 
 585   0.0000      44.370188      1207.3742 
 586   0.0000      44.399706      1208.1774 
 587   0.0000      44.406160      1208.3531 
 588   0.0000      44.420391      1208.7403 
 589   0.0000      44.484629      1210.4883 
 590   0.0000      44.499807      1210.9013 
 591   0.0000     202.676427      5515.1059 
 592   0.0000     202.709586      5516.0083 
 593   0.0000     202.738346      5516.7909 
 594   0.0000     202.738973      5516.8079 
 595   0.0000     202.755358      5517.2538 
 596   0.0000     202.757608      5517.3150 
 597   0.0000     202.771518      5517.6935 
 598   0.0000     202.773947      5517.7596 
 599   0.0000     202.781105      5517.9544 
 600   0.0000     202.790357      5518.2061 
 601   0.0000     202.796939      5518.3853 
 602   0.0000     202.800727      5518.4883 
 603   0.0000     202.823207      5519.1001 
 604   0.0000     202.838465      5519.5153 

                 SPIN DOWN ORBITALS
  NO   OCC          E(Eh)            E(eV) 
   0   1.0000    -258.349598     -7030.0500 
   1   1.0000     -30.819075      -838.6297 
   2   1.0000     -26.530752      -721.9385 
   3   1.0000     -26.522991      -721.7273 
   4   1.0000     -26.522276      -721.7078 
   5   1.0000      -4.411097      -120.0320 
   6   1.0000      -4.405245      -119.8728 
   7   1.0000      -4.404480      -119.8520 
   8   1.0000      -4.403270      -119.8191 
   9   1.0000      -4.400756      -119.7506 
  10   1.0000      -4.400372      -119.7402 
  11   1.0000      -4.392071      -119.5143 
  12   1.0000      -4.391846      -119.5082 
  13   1.0000      -4.391722      -119.5048 
  14   1.0000      -4.391460      -119.4977 
  15   1.0000      -4.391074      -119.4872 
  16   1.0000      -4.390746      -119.4783 
  17   1.0000      -4.390479      -119.4710 
  18   1.0000      -4.389182      -119.4357 
  19   1.0000      -3.678170      -100.0881 
  20   1.0000      -2.530310       -68.8532 
  21   1.0000      -2.529264       -68.8248 
  22   1.0000      -2.528330       -68.7994 
  23   1.0000      -2.524853       -68.7047 
  24   1.0000      -2.524194       -68.6868 
  25   1.0000      -2.524081       -68.6837 
  26   1.0000      -2.523319       -68.6630 
  27   1.0000      -2.523230       -68.6606 
  28   1.0000      -2.520296       -68.5807 
  29   1.0000      -2.520030       -68.5735 
  30   1.0000      -2.519385       -68.5559 
  31   1.0000      -2.518571       -68.5338 
  32   1.0000      -2.518502       -68.5319 
  33   1.0000      -2.518078       -68.5204 
  34   1.0000      -2.517240       -68.4976 
  35   1.0000      -2.516838       -68.4866 
  36   1.0000      -2.515386       -68.4471 
  37   1.0000      -2.514836       -68.4322 
  38   1.0000      -2.514193       -68.4147 
  39   1.0000      -2.513309       -68.3906 
  40   1.0000      -2.511547       -68.3427 
  41   1.0000      -2.510973       -68.3270 
  42   1.0000      -2.509987       -68.3002 
  43   1.0000      -2.509727       -68.2931 
  44   1.0000      -2.509540       -68.2881 
  45   1.0000      -2.509079       -68.2755 
  46   1.0000      -2.509014       -68.2737 
  47   1.0000      -2.508942       -68.2718 
  48   1.0000      -2.508446       -68.2583 
  49   1.0000      -2.508305       -68.2544 
  50   1.0000      -2.507898       -68.2434 
  51   1.0000      -2.507051       -68.2203 
  52   1.0000      -2.506779       -68.2129 
  53   1.0000      -2.505986       -68.1914 
  54   1.0000      -2.505882       -68.1885 
  55   1.0000      -2.505692       -68.1834 
  56   1.0000      -2.505276       -68.1720 
  57   1.0000      -2.504950       -68.1631 
  58   1.0000      -2.504774       -68.1584 
  59   1.0000      -2.504280       -68.1449 
  60   1.0000      -2.504251       -68.1441 
  61   1.0000      -2.503901       -68.1346 
  62   1.0000      -2.356123       -64.1134 
  63   1.0000      -2.355386       -64.0933 
  64   1.0000      -2.343120       -63.7595 
  65   1.0000      -0.509891       -13.8749 
  66   1.0000      -0.473047       -12.8723 
  67   1.0000      -0.468675       -12.7533 
  68   1.0000      -0.466658       -12.6984 
  69   1.0000      -0.465078       -12.6554 
  70   1.0000      -0.464709       -12.6454 
  71   1.0000      -0.461911       -12.5692 
  72   1.0000      -0.461405       -12.5555 
  73   1.0000      -0.457275       -12.4431 
  74   1.0000      -0.456562       -12.4237 
  75   1.0000      -0.454043       -12.3552 
  76   1.0000      -0.453143       -12.3306 
  77   1.0000      -0.452784       -12.3209 
  78   1.0000      -0.451893       -12.2966 
  79   1.0000      -0.449819       -12.2402 
  80   1.0000      -0.447218       -12.1694 
  81   1.0000      -0.445811       -12.1311 
  82   1.0000      -0.445381       -12.1194 
  83   1.0000      -0.443933       -12.0800 
  84   1.0000      -0.439458       -11.9583 
  85   1.0000      -0.437849       -11.9145 
  86   1.0000      -0.435888       -11.8611 
  87   1.0000      -0.430469       -11.7137 
  88   1.0000      -0.428265       -11.6537 
  89   1.0000      -0.424558       -11.5528 
  90   1.0000      -0.419087       -11.4039 
  91   1.0000      -0.417537       -11.3618 
  92   1.0000      -0.417075       -11.3492 
  93   1.0000      -0.412817       -11.2333 
  94   1.0000      -0.410603       -11.1731 
  95   1.0000      -0.406779       -11.0690 
  96   1.0000      -0.405933       -11.0460 
  97   1.0000      -0.403471       -10.9790 
  98   1.0000      -0.401952       -10.9377 
  99   1.0000      -0.401203       -10.9173 
 100   1.0000      -0.398471       -10.8430 
 101   1.0000      -0.398116       -10.8333 
 102   1.0000      -0.393667       -10.7122 
 103   1.0000      -0.391063       -10.6414 
 104   1.0000      -0.391038       -10.6407 
 105   1.0000      -0.386756       -10.5242 
 106   1.0000      -0.385656       -10.4942 
 107   1.0000      -0.378720       -10.3055 
 108   1.0000      -0.378191       -10.2911 
 109   1.0000      -0.373771       -10.1708 
 110   1.0000      -0.372810       -10.1447 
 111   1.0000      -0.372266       -10.1299 
 112   1.0000      -0.371779       -10.1166 
 113   1.0000      -0.370581       -10.0840 
 114   1.0000      -0.365687        -9.9509 
 115   1.0000      -0.364650        -9.9226 
 116   1.0000      -0.364009        -9.9052 
 117   1.0000      -0.361775        -9.8444 
 118   1.0000      -0.359109        -9.7719 
 119   1.0000      -0.356349        -9.6967 
 120   1.0000      -0.355466        -9.6727 
 121   1.0000      -0.354394        -9.6435 
 122   1.0000      -0.353209        -9.6113 
 123   1.0000      -0.350853        -9.5472 
 124   1.0000      -0.348631        -9.4867 
 125   1.0000      -0.347094        -9.4449 
 126   1.0000      -0.346913        -9.4400 
 127   1.0000      -0.340560        -9.2671 
 128   1.0000      -0.339827        -9.2472 
 129   1.0000      -0.338279        -9.2050 
 130   1.0000      -0.337472        -9.1831 
 131   1.0000      -0.333712        -9.0808 
 132   1.0000      -0.332330        -9.0432 
 133   1.0000      -0.330025        -8.9804 
 134   1.0000      -0.329046        -8.9538 
 135   1.0000      -0.327895        -8.9225 
 136   1.0000      -0.322462        -8.7746 
 137   1.0000      -0.313110        -8.5202 
 138   1.0000      -0.303567        -8.2605 
 139   1.0000      -0.302293        -8.2258 
 140   1.0000      -0.246218        -6.6999 
 141   1.0000      -0.232872        -6.3368 
 142   1.0000      -0.232755        -6.3336 
 143   1.0000      -0.204897        -5.5755 
 144   0.0000      -0.113378        -3.0852 
 145   0.0000      -0.085043        -2.3141 
 146   0.0000      -0.074263        -2.0208 
 147   0.0000      -0.073164        -1.9909 
 148   0.0000      -0.064990        -1.7685 
 149   0.0000      -0.047265        -1.2862 
 150   0.0000      -0.041066        -1.1175 
 151   0.0000      -0.013835        -0.3765 
 152   0.0000      -0.010990        -0.2990 
 153   0.0000      -0.009974        -0.2714 
 154   0.0000      -0.002954        -0.0804 
 155   0.0000      -0.002444        -0.0665 
 156   0.0000       0.001568         0.0427 
 157   0.0000       0.002237         0.0609 
 158   0.0000       0.008845         0.2407 
 159   0.0000       0.015275         0.4156 
 160   0.0000       0.020514         0.5582 
 161   0.0000       0.038225         1.0402 
 162   0.0000       0.038903         1.0586 
 163   0.0000       0.050008         1.3608 
 164   0.0000       0.060858         1.6560 
 165   0.0000       0.062607         1.7036 
 166   0.0000       0.077327         2.1042 
 167   0.0000       0.078357         2.1322 
 168   0.0000       0.079161         2.1541 
 169   0.0000       0.083741         2.2787 
 170   0.0000       0.087095         2.3700 
 171   0.0000       0.091733         2.4962 
 172   0.0000       0.096052         2.6137 
 173   0.0000       0.096431         2.6240 
 174   0.0000       0.103575         2.8184 
 175   0.0000       0.106448         2.8966 
 176   0.0000       0.107848         2.9347 
 177   0.0000       0.110513         3.0072 
 178   0.0000       0.115539         3.1440 
 179   0.0000       0.115754         3.1498 
 180   0.0000       0.120636         3.2827 
 181   0.0000       0.130247         3.5442 
 182   0.0000       0.132036         3.5929 
 183   0.0000       0.137637         3.7453 
 184   0.0000       0.142528         3.8784 
 185   0.0000       0.152474         4.1490 
 186   0.0000       0.153533         4.1778 
 187   0.0000       0.163159         4.4398 
 188   0.0000       0.164936         4.4881 
 189   0.0000       0.167268         4.5516 
 190   0.0000       0.170908         4.6506 
 191   0.0000       0.173687         4.7263 
 192   0.0000       0.182697         4.9714 
 193   0.0000       0.190581         5.1860 
 194   0.0000       0.203365         5.5339 
 195   0.0000       0.204680         5.5696 
 196   0.0000       0.205519         5.5925 
 197   0.0000       0.209698         5.7062 
 198   0.0000       0.218973         5.9586 
 199   0.0000       0.230342         6.2679 
 200   0.0000       0.233654         6.3581 
 201   0.0000       0.245695         6.6857 
 202   0.0000       0.246294         6.7020 
 203   0.0000       0.253310         6.8929 
 204   0.0000       0.266916         7.2632 
 205   0.0000       0.271147         7.3783 
 206   0.0000       0.276133         7.5139 
 207   0.0000       0.286786         7.8038 
 208   0.0000       0.289324         7.8729 
 209   0.0000       0.294503         8.0138 
 210   0.0000       0.296367         8.0646 
 211   0.0000       0.302516         8.2319 
 212   0.0000       0.304855         8.2955 
 213   0.0000       0.320939         8.7332 
 214   0.0000       0.325544         8.8585 
 215   0.0000       0.331187         9.0121 
 216   0.0000       0.332499         9.0477 
 217   0.0000       0.339019         9.2252 
[...]
  4 Aus       :    -0.089809  s :    -0.089809
      pz      :    -0.014186  p :    -0.075325
      px      :    -0.022923
      py      :    -0.038216
      dz2     :     0.010663  d :     0.000630
      dxz     :     0.003063
      dyz     :    -0.002764
      dx2y2   :    -0.008224
      dxy     :    -0.002108
      f0      :     0.000089  f :     0.000044
      f+1     :     0.000017
      f-1     :     0.000010
      f+2     :    -0.000050
      f-2     :    -0.000011
      f+3     :    -0.000006
      f-3     :    -0.000006
  5 Aus       :    -0.091137  s :    -0.091137
      pz      :    -0.043219  p :    -0.074680
      px      :    -0.002599
      py      :    -0.028863
      dz2     :    -0.003925  d :     0.001034
      dxz     :    -0.002392
      dyz     :    -0.001546
      dx2y2   :     0.002690
      dxy     :     0.006207
      f0      :    -0.000001  f :     0.000050
      f+1     :    -0.000006
      f-1     :    -0.000025
      f+2     :    -0.000008
      f-2     :     0.000006
      f+3     :     0.000072
      f-3     :     0.000012
  6 Aus       :     0.002689  s :     0.002689
      pz      :    -0.002162  p :    -0.003547
      px      :     0.001847
      py      :    -0.003231
      dz2     :    -0.000981  d :    -0.009843
      dxz     :    -0.000748
      dyz     :    -0.004458
      dx2y2   :    -0.000259
      dxy     :    -0.003398
      f0      :    -0.000002  f :    -0.000047
      f+1     :    -0.000001
      f-1     :    -0.000014
      f+2     :    -0.000005
      f-2     :    -0.000010
      f+3     :    -0.000004
      f-3     :    -0.000009
  7 Aus       :     0.024842  s :     0.024842
      pz      :    -0.002989  p :    -0.004698
      px      :     0.001076
      py      :    -0.002785
      dz2     :    -0.001411  d :    -0.008933
      dxz     :    -0.005128
      dyz     :    -0.000742
      dx2y2   :     0.000534
      dxy     :    -0.002187
      f0      :    -0.000001  f :    -0.000023
      f+1     :    -0.000001
      f-1     :    -0.000001
      f+2     :    -0.000001
      f-2     :    -0.000010
      f+3     :    -0.000004
      f-3     :    -0.000004
  8 Aus       :    -0.091488  s :    -0.091488
      pz      :    -0.048908  p :    -0.072170
      px      :     0.004716
      py      :    -0.027978
      dz2     :    -0.009824  d :    -0.005580
      dxz     :     0.003185
      dyz     :    -0.003568
      dx2y2   :    -0.002375
      dxy     :     0.007001
      f0      :    -0.000034  f :     0.000010
      f+1     :    -0.000013
      f-1     :    -0.000005
      f+2     :    -0.000018
      f-2     :     0.000051
      f+3     :     0.000040
      f-3     :    -0.000010
  9 Aus       :    -0.080042  s :    -0.080042
      pz      :    -0.020018  p :    -0.046708
      px      :     0.002320
      py      :    -0.029011
      dz2     :    -0.001551  d :    -0.004691
      dxz     :     0.005378
      dyz     :    -0.001947
      dx2y2   :    -0.001719
      dxy     :    -0.004851
      f0      :    -0.000022  f :    -0.000057
      f+1     :     0.000030
      f-1     :    -0.000044
      f+2     :    -0.000003
      f-2     :     0.000012
      f+3     :    -0.000022
      f-3     :    -0.000008
 10 Aus       :     0.014455  s :     0.014455
      pz      :     0.001564  p :     0.003259
      px      :    -0.000032
      py      :     0.001726
      dz2     :     0.001240  d :    -0.001171
      dxz     :    -0.002426
      dyz     :     0.000573
      dx2y2   :    -0.000794
      dxy     :     0.000236
      f0      :    -0.000002  f :    -0.000022
      f+1     :    -0.000006
      f-1     :    -0.000003
      f+2     :    -0.000015
      f-2     :     0.000000
      f+3     :    -0.000000
      f-3     :     0.000004
 11 Aus       :     0.025430  s :     0.025430
      pz      :     0.000187  p :    -0.004767
      px      :    -0.001986
      py      :    -0.002968
      dz2     :    -0.000146  d :    -0.008828
      dxz     :    -0.000995
      dyz     :     0.001036
      dx2y2   :    -0.003139
      dxy     :    -0.005583
      f0      :    -0.000013  f :    -0.000023
      f+1     :     0.000003
      f-1     :    -0.000001
      f+2     :     0.000004
      f-2     :    -0.000001
      f+3     :    -0.000011
      f-3     :    -0.000004
 12 Aus       :    -0.063192  s :    -0.063192
      pz      :    -0.027608  p :    -0.055849
      px      :    -0.017110
      py      :    -0.011131
      dz2     :    -0.006674  d :    -0.014520
      dxz     :    -0.003711
      dyz     :    -0.002357
      dx2y2   :    -0.003532
      dxy     :     0.001753
      f0      :    -0.000004  f :    -0.000105
      f+1     :    -0.000014
      f-1     :    -0.000037
      f+2     :    -0.000026
      f-2     :    -0.000018
      f+3     :     0.000020
      f-3     :    -0.000027
 13 Aus       :    -0.091561  s :    -0.091561
      pz      :    -0.016870  p :    -0.071962
      px      :    -0.014380
      py      :    -0.040712
      dz2     :     0.002841  d :    -0.005864
      dxz     :     0.001067
      dyz     :     0.000354
      dx2y2   :    -0.004777
      dxy     :    -0.005349
      f0      :     0.000024  f :     0.000005
      f+1     :     0.000001
      f-1     :     0.000007
      f+2     :     0.000010
      f-2     :    -0.000017
      f+3     :    -0.000018
      f-3     :    -0.000003
 14 Fes       :     0.017361  s :     0.017361
      pz      :     0.011015  p :     0.027207
      px      :     0.004838
      py      :     0.011354
      dz2     :     0.590102  d :     3.397450
      dxz     :     0.885486
      dyz     :     0.800675
      dx2y2   :     0.634275
      dxy     :     0.486912
      f0      :    -0.000017  f :    -0.000070
      f+1     :     0.000002
      f-1     :    -0.000006
      f+2     :    -0.000008
      f-2     :    -0.000013
      f+3     :    -0.000031
      f-3     :     0.000003


                      *****************************
                      * MAYER POPULATION ANALYSIS *
                      *****************************

  NA   - Mulliken gross atomic population
  ZA   - Total nuclear charge
  QA   - Mulliken gross atomic charge
  VA   - Mayer's total valence
  BVA  - Mayer's bonded valence
  FA   - Mayer's free valence

  ATOM       NA         ZA         QA         VA         BVA        FA
  0 Au    18.7969    19.0000     0.2031     1.4173     1.3986     0.0186
  1 Au    18.7808    19.0000     0.2192     1.3654     1.3376     0.0278
  2 Au    18.7985    19.0000     0.2015     1.4202     1.4012     0.0190
  3 Au    19.1141    19.0000    -0.1141     1.8601     1.8232     0.0369
  4 Au    18.7686    19.0000     0.2314     1.4746     1.4386     0.0360
  5 Au    18.7615    19.0000     0.2385     1.4717     1.4347     0.0370
  6 Au    18.7693    19.0000     0.2307     1.3357     1.3350     0.0008
  7 Au    18.8318    19.0000     0.1682     1.4783     1.4747     0.0036
  8 Au    18.8853    19.0000     0.1147     1.6155     1.5682     0.0473
  9 Au    18.9858    19.0000     0.0142     1.6364     1.5878     0.0486
 10 Au    18.6640    19.0000     0.3360     1.2466     1.2456     0.0010
 11 Au    18.8237    19.0000     0.1763     1.4720     1.4682     0.0037
 12 Au    19.1316    19.0000    -0.1316     1.8813     1.8460     0.0353
 13 Au    18.8889    19.0000     0.1111     1.6168     1.5692     0.0476
 14 Fe    27.9992    26.0000    -1.9992     8.3259     4.8552     3.4707

  Mayer bond orders larger than 0.100000
B(  0-Au,  1-Au) :   0.1731 B(  0-Au,  5-Au) :   0.1513 B(  0-Au,  6-Au) :   0.2033 
B(  0-Au, 13-Au) :   0.2510 B(  0-Au, 14-Fe) :   0.3845 B(  1-Au,  2-Au) :   0.1726 
B(  1-Au,  9-Au) :   0.2594 B(  1-Au, 14-Fe) :   0.4964 B(  2-Au,  4-Au) :   0.1531 
B(  2-Au,  6-Au) :   0.2020 B(  2-Au,  8-Au) :   0.2514 B(  2-Au, 14-Fe) :   0.3870 
B(  3-Au,  4-Au) :   0.3096 B(  3-Au,  7-Au) :   0.2474 B(  3-Au,  8-Au) :   0.1497 
B(  3-Au, 10-Au) :   0.3306 B(  3-Au, 12-Au) :   0.2286 B(  3-Au, 14-Fe) :   0.3808 
B(  4-Au,  6-Au) :   0.2299 B(  4-Au, 14-Fe) :   0.4754 B(  5-Au,  6-Au) :   0.2281 
B(  5-Au, 12-Au) :   0.3125 B(  5-Au, 14-Fe) :   0.4753 B(  6-Au, 14-Fe) :   0.2357 
B(  7-Au,  8-Au) :   0.3377 B(  7-Au,  9-Au) :   0.2481 B(  7-Au, 10-Au) :   0.1798 
B(  7-Au, 11-Au) :   0.1852 B(  7-Au, 14-Fe) :   0.1028 B(  8-Au,  9-Au) :   0.1437 
B(  8-Au, 14-Fe) :   0.5084 B(  9-Au, 11-Au) :   0.2489 B(  9-Au, 13-Au) :   0.1458 
B(  9-Au, 14-Fe) :   0.3976 B( 10-Au, 11-Au) :   0.1765 B( 10-Au, 12-Au) :   0.3409 
B( 11-Au, 12-Au) :   0.2492 B( 11-Au, 13-Au) :   0.3373 B( 12-Au, 13-Au) :   0.1528 
B( 12-Au, 14-Fe) :   0.3812 B( 13-Au, 14-Fe) :   0.5059 

-------
TIMINGS
-------

Total SCF time: 0 days 0 hours 44 min 8 sec 

Total time                  ....    2648.092 sec
Sum of individual times     ....    2450.710 sec  ( 92.5%)

Fock matrix formation       ....    1771.928 sec  ( 66.9%)
  Split-RI-J                ....     306.810 sec  ( 17.3% of F)
  Chain of spheres X        ....    1177.109 sec  ( 66.4% of F)
  XC integration            ....     248.442 sec  ( 14.0% of F)
    Basis function eval.    ....      16.886 sec  (  6.8% of XC)
    Density eval.           ....      68.694 sec  ( 27.6% of XC)
    XC-Functional eval.     ....       1.350 sec  (  0.5% of XC)
    XC-Potential eval.      ....      81.788 sec  ( 32.9% of XC)
Diagonalization             ....      67.151 sec  (  2.5%)
Density matrix formation    ....      84.913 sec  (  3.2%)
Population analysis         ....       1.278 sec  (  0.0%)
Initial guess               ....       0.643 sec  (  0.0%)
Orbital Transformation      ....     431.271 sec  ( 16.3%)
Orbital Orthonormalization  ....       0.411 sec  (  0.0%)
DIIS solution               ....      86.607 sec  (  3.3%)
Grid generation             ....       5.554 sec  (  0.2%)

Maximum memory used throughout the entire SCF-calculation: 147.3 MB


           ************************************************************
           *        Program running with 6 parallel MPI-processes     *
           *              working on a common directory               *
           ************************************************************

------------------------------------------------------------------------------
                                ORCA  MP2 
------------------------------------------------------------------------------

Freezing NCore=10 chemical core electrons

   <<< Use J-auxbasis for calculation of Separable RI-J derivative contributions (Dim=1335) >>> 


-------------
RI-MP2 ENERGY
-------------
Dimension of the basis                    ...  605
Memory devoted to MP2                     ...  256 MB   
Data format for buffers                   ... DOUBLE
Compression type for matrix containers    ... UNCOMPRESSED
Overall scaling of the MP2 energy         ...   2.700e-01
Calculating two index integrals           ... done (    0.155 sec)
Cholesky decomposition of V**-1           ... done (    4.912 sec)

-----------------
RI-TRANSFORMATION (AUX index driven)
-----------------

Dimension of the orbital-basis         ... 605
Dimension of the aux-basis             ... 2296
Transformation of internal/external MOs...    5- 146 to  147- 604
Number Format for Storage              ... Double (8 Byte)
Integral mode                          ... Direct

First Phase: integral generation and transformation of MO indices
  Aux angular momentum 0               ... done (    0.388 sec)
  Aux angular momentum 1               ... done (    0.941 sec)
  Aux angular momentum 2               ... done (    1.396 sec)
  Aux angular momentum 3               ... done (    1.364 sec)
  Aux angular momentum 4               ... done (    1.009 sec)
  Aux angular momentum 5               ... done (    0.909 sec)
Closing buffer VIA ( 1.11 GB; CompressionRatio= 1.00)
  Phase 1 completed in     6.261 sec
Second Phase: sorting and transformation of aux index

IA-Transformation
Memory available                       ... 164 MB 
Max. # MO pairs treated in a batch     ... 19    
# of internal orbitals                 ... 142
# batches for internal orbitals        ... 2
Closing buffer IAV ( 1.11 GB; CompressionRatio= 1.00)
(ia|v) transformation done in     5.386 sec

  Phase 2 completed in     5.745 sec
RI-Integral transformation completed in    12.006 sec

-----------------
RI-TRANSFORMATION (AUX index driven)
-----------------

Dimension of the orbital-basis         ... 605
Dimension of the aux-basis             ... 2296
Transformation of internal/external MOs...    5- 144 to  145- 604
Number Format for Storage              ... Double (8 Byte)
Integral mode                          ... Direct

First Phase: integral generation and transformation of MO indices
  Aux angular momentum 0               ... done (    0.248 sec)
  Aux angular momentum 1               ... done (    0.581 sec)
  Aux angular momentum 2               ... done (    0.842 sec)
  Aux angular momentum 3               ... done (    0.946 sec)
  Aux angular momentum 4               ... done (    0.835 sec)
  Aux angular momentum 5               ... done (    0.642 sec)
Closing buffer VIA ( 1.10 GB; CompressionRatio= 1.00)
  Phase 1 completed in     6.392 sec
Second Phase: sorting and transformation of aux index

IA-Transformation
Memory available                       ... 164 MB 
Max. # MO pairs treated in a batch     ... 19    
# of internal orbitals                 ... 140
# batches for internal orbitals        ... 2
Closing buffer IAV ( 1.10 GB; CompressionRatio= 1.00)
(ia|v) transformation done in     4.932 sec

  Phase 2 completed in     5.207 sec
RI-Integral transformation completed in    11.663 sec
Opening buffers                              ... done

Starting loop over batches of integrals:

Operator 0  - window                       ... (  5-146)x(147-604)
Operator 0  - Memory available             ...   256 MB
Operator 0  - Memory needed per MO         ...   8.0 MB
Operator 0  - Number of orbitals per batch ... 22
Operator 0  - Number of batches            ... 2

OPERATOR  0   PASS   0:  MOs     5 ...   26 +   27 ...   48 +   49 ...   70 +   71 ...   92
                            +   93 ...  114 +  115 ...  136
  Reading integrals       ... ok
  Internal MO   7
  Internal MO  10
  Internal MO  13
  Internal MO  16
  Internal MO  19
  Internal MO  22
  Internal MO  25
OPERATOR  0   PASS   1:  MOs   137 ...  138 +  139 ...  140 +  141 ...  142 +  143 ...  144
                            +  145 ...  145 +  146 ...  146
  Reading integrals       ... ok

Operator 1  - window                       ... (  5-144)x(145-604)
Operator 1  - Memory available             ...   256 MB
Operator 1  - Memory needed per MO         ...   8.1 MB
Operator 1  - Number of orbitals per batch ... 22
Operator 1  - Number of batches            ... 2

OPERATOR  1   PASS   0:  MOs     5 ...   26 +   27 ...   48 +   49 ...   70 +   71 ...   92
                            +   93 ...  114 +  115 ...  136
  Reading integrals       ... ok
  Internal MO   7
  Internal MO  10
  Internal MO  13
  Internal MO  16
  Internal MO  19
  Internal MO  22
  Internal MO  25
OPERATOR  1   PASS   1:  MOs   137 ...  138 +  139 ...  140 +  141 ...  141 +  142 ...  142
                            +  143 ...  143 +  144 ...  144
  Reading integrals       ... ok
Time spent in pair loops =   436.582 sec
Deleting buffer (Ka|jb)[aa] ...done
Deleting buffer (Ka|jb)[ba] ...done
Deleting buffer (Ka|jb)[ab] ...done
Deleting buffer (Ka|jb)[bb] ...done

Correlation energy components}
 E2 and T2 for alpha/alpha pairs :     -0.425604709 Eh      0.000000000
 E2 and T2 for beta/beta   pairs :     -0.424024505 Eh      0.000000000
 E2 and T2 for alpha/beta  pairs :     -1.441750199 Eh      0.000000000


-----------------------------------------------
 RI-MP2 CORRELATION ENERGY:     -2.291379413 Eh
-----------------------------------------------


-------
TIMINGS
-------

Total time                :  472.424 sec
Integral trafo            :   23.708 sec (  5.0%)
I/O of integrals          :    0.295 sec (  0.1%)
K(i,j) Operators          :  249.643 sec ( 52.8%)
T(i,j) pair energies      :    6.535 sec (  1.4%)
V-calculation             :    0.155 sec (  0.0%)
V**(-1/2)                 :    4.912 sec (  1.0%)
Gamma(ia|P)               :    0.000 sec (  0.0%)
Gamma-Trafo               :    0.000 sec (  0.0%)
D(virtual)                :    0.000 sec (  0.0%)
D(internal)               :    0.000 sec (  0.0%)
W(virtual)                :    0.000 sec (  0.0%)
W(internal)               :    0.000 sec (  0.0%)
L(virtual)                :    0.000 sec (  0.0%)
L(internal)               :    0.000 sec (  0.0%)
G(D)                      :    0.000 sec (  0.0%)
G(Z)                      :    0.000 sec (  0.0%)
Z-Vector Solution         :    0.000 sec (  0.0%)
3-Index Derivative        :    0.000 sec (  0.0%)
2-Index Derivative        :    0.000 sec (  0.0%)
Separable Gradient (RIJ)  :    0.000 sec (  0.0%)
Separable Gradient (COSX) :    0.000 sec (  0.0%)


---------------------------------------
MP2 TOTAL ENERGY:    -3161.738694022 Eh
---------------------------------------

Maximum memory used throughout the entire MP2-calculation: 299.7 MB

-------------------------   --------------------
FINAL SINGLE POINT ENERGY     -3161.738694022493
-------------------------   --------------------


                            ***************************************
                            *     ORCA property calculations      *
                            ***************************************


  WARNING: The energy has been calculated at the MP2 level but the densities
           used in the property calculations are still SCF densities
           MP2 response densities have not been calculated 
           use %mp2 Density relaxed end
           or  %mp2 Density unrelaxed end

                                    ---------------------
                                    Active property flags
                                    ---------------------
   (+) Dipole Moment


------------------------------------------------------------------------------
                       ORCA ELECTRIC PROPERTIES CALCULATION
------------------------------------------------------------------------------

Dipole Moment Calculation                       ... on
Quadrupole Moment Calculation                   ... off
Polarizability Calculation                      ... off
GBWName                                         ... b2plyp_job2.gbw
Electron density                                ... b2plyp_job2.scfp
The origin for moment calculation is the CENTER OF MASS  = (14.132085, 13.810420 13.976787)

-------------
DIPOLE MOMENT
-------------
                                X             Y             Z
Electronic contribution:     22.65202     -10.74373      -1.12984
Nuclear contribution   :    -22.85850      10.80819       1.16784
                        -----------------------------------------
Total Dipole Moment    :     -0.20648       0.06446       0.03799
                        -----------------------------------------
Magnitude (a.u.)       :      0.21962
Magnitude (Debye)      :      0.55823



--------------------
Rotational spectrum 
--------------------
 
Rotational constants in cm-1:     0.001368     0.000879     0.000879 
Rotational constants in MHz :    41.014798    26.356590    26.340709 

 Dipole components along the rotational axes: 
x,y,z [a.u.] :    -0.218476    -0.008132     0.020857 
x,y,z [Debye]:    -0.555323    -0.020669     0.053014 

 

Timings for individual modules:

Sum of individual times         ...     3147.176 sec (=  52.453 min)
GTO integral calculation        ...       24.413 sec (=   0.407 min)   0.8 %
SCF iterations                  ...     2648.882 sec (=  44.148 min)  84.2 %
MP2 module                      ...      473.881 sec (=   7.898 min)  15.1 %



                             ****ORCA TERMINATED NORMALLY****
TOTAL RUN TIME: 0 days 1 hours 20 minutes 35 seconds 121 msec
