
                                 *****************
                                 * O   R   C   A *
                                 *****************

                                            #,                                       
                                            ###                                      
                                            ####                                     
                                            #####                                    
                                            ######                                   
                                           ########,                                 
                                     ,,################,,,,,                         
                               ,,#################################,,                 
                          ,,##########################################,,             
                       ,#########################################, ''#####,          
                    ,#############################################,,   '####,        
                  ,##################################################,,,,####,       
                ,###########''''           ''''###############################       
              ,#####''   ,,,,##########,,,,          '''####'''          '####       
            ,##' ,,,,###########################,,,                        '##       
           ' ,,###''''                  '''############,,,                           
         ,,##''                                '''############,,,,        ,,,,,,###''
      ,#''                                            '''#######################'''  
     '                                                          ''''####''''         
             ,#######,   #######,   ,#######,      ##                                
            ,#'     '#,  ##    ##  ,#'     '#,    #''#        ######   ,####,        
            ##       ##  ##   ,#'  ##            #'  '#       #        #'  '#        
            ##       ##  #######   ##           ,######,      #####,   #    #        
            '#,     ,#'  ##    ##  '#,     ,#' ,#      #,         ##   #,  ,#        
             '#######'   ##     ##  '#######'  #'      '#     #####' # '####'        



                  #######################################################
                  #                        -***-                        #
                  #          Department of theory and spectroscopy      #
                  #    Directorship and core code : Frank Neese         #
                  #        Max Planck Institute fuer Kohlenforschung    #
                  #                Kaiser Wilhelm Platz 1               #
                  #                 D-45470 Muelheim/Ruhr               #
                  #                      Germany                        #
                  #                                                     #
                  #                  All rights reserved                #
                  #                        -***-                        #
                  #######################################################


                         Program Version 5.0.3 -  RELEASE  -


 With contributions from (in alphabetic order):
   Daniel Aravena         : Magnetic Suceptibility
   Michael Atanasov       : Ab Initio Ligand Field Theory (pilot matlab implementation)
   Alexander A. Auer      : GIAO ZORA, VPT2 properties, NMR spectrum
   Ute Becker             : Parallelization
   Giovanni Bistoni       : ED, misc. LED, open-shell LED, HFLD
   Martin Brehm           : Molecular dynamics
   Dmytro Bykov           : SCF Hessian
   Vijay G. Chilkuri      : MRCI spin determinant printing, contributions to CSF-ICE
   Dipayan Datta          : RHF DLPNO-CCSD density
   Achintya Kumar Dutta   : EOM-CC, STEOM-CC
   Dmitry Ganyushin       : Spin-Orbit,Spin-Spin,Magnetic field MRCI
   Miquel Garcia          : C-PCM and meta-GGA Hessian, CC/C-PCM, Gaussian charge scheme
   Yang Guo               : DLPNO-NEVPT2, F12-NEVPT2, CIM, IAO-localization
   Andreas Hansen         : Spin unrestricted coupled pair/coupled cluster methods
   Benjamin Helmich-Paris : MC-RPA, TRAH-SCF, COSX integrals
   Lee Huntington         : MR-EOM, pCC
   Robert Izsak           : Overlap fitted RIJCOSX, COSX-SCS-MP3, EOM
   Marcus Kettner         : VPT2
   Christian Kollmar      : KDIIS, OOCD, Brueckner-CCSD(T), CCSD density, CASPT2, CASPT2-K
   Simone Kossmann        : Meta GGA functionals, TD-DFT gradient, OOMP2, MP2 Hessian
   Martin Krupicka        : Initial AUTO-CI
   Lucas Lang             : DCDCAS
   Marvin Lechner         : AUTO-CI (C++ implementation), FIC-MRCC
   Dagmar Lenk            : GEPOL surface, SMD
   Dimitrios Liakos       : Extrapolation schemes; Compound Job, initial MDCI parallelization
   Dimitrios Manganas     : Further ROCIS development; embedding schemes
   Dimitrios Pantazis     : SARC Basis sets
   Anastasios Papadopoulos: AUTO-CI, single reference methods and gradients
   Taras Petrenko         : DFT Hessian,TD-DFT gradient, ASA, ECA, R-Raman, ABS, FL, XAS/XES, NRVS
   Peter Pinski           : DLPNO-MP2, DLPNO-MP2 Gradient
   Christoph Reimann      : Effective Core Potentials
   Marius Retegan         : Local ZFS, SOC
   Christoph Riplinger    : Optimizer, TS searches, QM/MM, DLPNO-CCSD(T), (RO)-DLPNO pert. Triples
   Tobias Risthaus        : Range-separated hybrids, TD-DFT gradient, RPA, STAB
   Michael Roemelt        : Original ROCIS implementation
   Masaaki Saitow         : Open-shell DLPNO-CCSD energy and density
   Barbara Sandhoefer     : DKH picture change effects
   Avijit Sen             : IP-ROCIS
   Kantharuban Sivalingam : CASSCF convergence, NEVPT2, FIC-MRCI
   Bernardo de Souza      : ESD, SOC TD-DFT
   Georgi Stoychev        : AutoAux, RI-MP2 NMR, DLPNO-MP2 response
   Willem Van den Heuvel  : Paramagnetic NMR
   Boris Wezisla          : Elementary symmetry handling
   Frank Wennmohs         : Technical directorship


 We gratefully acknowledge several colleagues who have allowed us to
 interface, adapt or use parts of their codes:
   Stefan Grimme, W. Hujo, H. Kruse, P. Pracht,  : VdW corrections, initial TS optimization,
                  C. Bannwarth, S. Ehlert          DFT functionals, gCP, sTDA/sTD-DF
   Ed Valeev, F. Pavosevic, A. Kumar             : LibInt (2-el integral package), F12 methods
   Garnet Chan, S. Sharma, J. Yang, R. Olivares  : DMRG
   Ulf Ekstrom                                   : XCFun DFT Library
   Mihaly Kallay                                 : mrcc  (arbitrary order and MRCC methods)
   Jiri Pittner, Ondrej Demel                    : Mk-CCSD
   Frank Weinhold                                : gennbo (NPA and NBO analysis)
   Christopher J. Cramer and Donald G. Truhlar   : smd solvation model
   Lars Goerigk                                  : TD-DFT with DH, B97 family of functionals
   V. Asgeirsson, H. Jonsson                     : NEB implementation
   FAccTs GmbH                                   : IRC, NEB, NEB-TS, DLPNO-Multilevel, CI-OPT
                                                   MM, QMMM, 2- and 3-layer-ONIOM, Crystal-QMMM,
                                                   LR-CPCM, SF, NACMEs, symmetry and pop. for TD-DFT,
                                                   nearIR, NL-DFT gradient (VV10), updates on ESD,
                                                   ML-optimized integration grids
   S Lehtola, MJT Oliveira, MAL Marques          : LibXC Library
   Liviu Ungur et al                             : ANISO software


 Your calculation uses the libint2 library for the computation of 2-el integrals
 For citations please refer to: http://libint.valeyev.net

 Your ORCA version has been built with support for libXC version: 5.1.0
 For citations please refer to: https://tddft.org/programs/libxc/

 This ORCA versions uses:
   CBLAS   interface :  Fast vector & matrix operations
   LAPACKE interface :  Fast linear algebra routines
   SCALAPACK package :  Parallel linear algebra routines
   Shared memory     :  Shared parallel matrices
   BLAS/LAPACK       :  OpenBLAS 0.3.15  USE64BITINT DYNAMIC_ARCH NO_AFFINITY Sandybridge SINGLE_THREADED
        Core in use  :  Sandybridge
   Copyright (c) 2011-2014, The OpenBLAS Project




***************************************
The coordinates will be read from file: pbe.xyz
***************************************


================================================================================

cite the ECPs for Au [Def2-ECP] as follows:
Ce-Yb(ecp-28): M. Dolg, H. Stoll, H.Preuss, J. Chem. Phys., 1989, 90, 1730-1734.
Y-Cd(ecp-28), Hf-Hg(ecp-46): D. Andrae,U. Haeussermann, M. Dolg, H. Stoll, H. Preuss, Theor. Chim. Acta, 1990, 77, 123-141.
In-Sb(ecp-28), Tl-Bi(ecp-46): B. Metz, H. Stoll, M. Dolg, J. Chem. Phys., 2000, 113, 2563-2569.
Te-Xe(ecp-28), Po-Rn(ecp-46): K. A. Peterson, D. Figgen, E. Goll, H. Stoll, M. Dolg, J. Chem. Phys., 2003, 119, 11113-11123.
Rb(ecp-28), Cs(ecp-46): T. Leininger, A. Nicklass, W. Kuechle, H. Stoll, M. Dolg, A. Bergner, Chem. Phys. Lett., 1996, 255, 274-280.
Sr(ecp-28), Ba(ecp-46): M. Kaupp, P. V. Schleyer, H. Stoll and H. Preuss, J. Chem. Phys., 1991, 94, 1360-1366.
La(ecp-46): M. Dolg, H. Stoll, A. Savin, H. Preuss, Theor. Chim. Acta, 1989, 75, 173-194.
Lu(ecp-28): X. Cao, M. Dolg, J. Chem. Phys., 2001, 115, 7348-7355.

ECP parameters for Au [Def2-ECP] have been obtained from:
TURBOMOLE (7.0.2)

----- Orbital basis set information -----
Your calculation utilizes the basis: def2-TZVP
   F. Weigend and R. Ahlrichs, Phys. Chem. Chem. Phys. 7, 3297 (2005).

----- AuxJ basis set information -----
Your calculation utilizes the auxiliary basis: def2/J
   F. Weigend, Phys. Chem. Chem. Phys. 8, 1057 (2006).

================================================================================
                                        WARNINGS
                       Please study these warnings very carefully!
================================================================================

Using LibXC functional ID 497 : Re-regularized SCAN exchange by Furness et al
[ 1]  J. W. Furness, A. D. Kaplan, J. Ning, J. P. Perdew, and J. Sun, J. Phys. Chem. Lett. 11, 8208 (2020)
[ 2]  J. W. Furness, A. D. Kaplan, J. Ning, J. P. Perdew, and J. Sun, J. Phys. Chem. Lett. 11, 9248 (2020)
Using LibXC functional ID 498 : Re-regularized SCAN correlation by Furness et al
[ 1]  J. W. Furness, A. D. Kaplan, J. Ning, J. P. Perdew, and J. Sun, J. Phys. Chem. Lett. 11, 8208 (2020)
[ 2]  J. W. Furness, A. D. Kaplan, J. Ning, J. P. Perdew, and J. Sun, J. Phys. Chem. Lett. 11, 9248 (2020)
Using LibXC functional ID 497 : Re-regularized SCAN exchange by Furness et al
[ 1]  J. W. Furness, A. D. Kaplan, J. Ning, J. P. Perdew, and J. Sun, J. Phys. Chem. Lett. 11, 8208 (2020)
[ 2]  J. W. Furness, A. D. Kaplan, J. Ning, J. P. Perdew, and J. Sun, J. Phys. Chem. Lett. 11, 9248 (2020)
Using LibXC functional ID 498 : Re-regularized SCAN correlation by Furness et al
[ 1]  J. W. Furness, A. D. Kaplan, J. Ning, J. P. Perdew, and J. Sun, J. Phys. Chem. Lett. 11, 8208 (2020)
[ 2]  J. W. Furness, A. D. Kaplan, J. Ning, J. P. Perdew, and J. Sun, J. Phys. Chem. Lett. 11, 9248 (2020)

WARNING: your system is open-shell and RHF/RKS was chosen
  ===> : WILL SWITCH to UHF/UKS


INFO   : the flag for use of the SHARK integral package has been found!



***************************************
The coordinates will be read from file: pbe.xyz
***************************************


================================================================================

cite the ECPs for Au [Def2-ECP] as follows:
Ce-Yb(ecp-28): M. Dolg, H. Stoll, H.Preuss, J. Chem. Phys., 1989, 90, 1730-1734.
Y-Cd(ecp-28), Hf-Hg(ecp-46): D. Andrae,U. Haeussermann, M. Dolg, H. Stoll, H. Preuss, Theor. Chim. Acta, 1990, 77, 123-141.
In-Sb(ecp-28), Tl-Bi(ecp-46): B. Metz, H. Stoll, M. Dolg, J. Chem. Phys., 2000, 113, 2563-2569.
Te-Xe(ecp-28), Po-Rn(ecp-46): K. A. Peterson, D. Figgen, E. Goll, H. Stoll, M. Dolg, J. Chem. Phys., 2003, 119, 11113-11123.
Rb(ecp-28), Cs(ecp-46): T. Leininger, A. Nicklass, W. Kuechle, H. Stoll, M. Dolg, A. Bergner, Chem. Phys. Lett., 1996, 255, 274-280.
Sr(ecp-28), Ba(ecp-46): M. Kaupp, P. V. Schleyer, H. Stoll and H. Preuss, J. Chem. Phys., 1991, 94, 1360-1366.
La(ecp-46): M. Dolg, H. Stoll, A. Savin, H. Preuss, Theor. Chim. Acta, 1989, 75, 173-194.
Lu(ecp-28): X. Cao, M. Dolg, J. Chem. Phys., 2001, 115, 7348-7355.

ECP parameters for Au [Def2-ECP] have been obtained from:
TURBOMOLE (7.0.2)

----- Orbital basis set information -----
Your calculation utilizes the basis: def2-TZVP
   F. Weigend and R. Ahlrichs, Phys. Chem. Chem. Phys. 7, 3297 (2005).

----- AuxJ basis set information -----
Your calculation utilizes the auxiliary basis: def2/J
   F. Weigend, Phys. Chem. Chem. Phys. 8, 1057 (2006).

================================================================================
                                        WARNINGS
                       Please study these warnings very carefully!
================================================================================

Using LibXC functional ID 497 : Re-regularized SCAN exchange by Furness et al
[ 1]  J. W. Furness, A. D. Kaplan, J. Ning, J. P. Perdew, and J. Sun, J. Phys. Chem. Lett. 11, 8208 (2020)
[ 2]  J. W. Furness, A. D. Kaplan, J. Ning, J. P. Perdew, and J. Sun, J. Phys. Chem. Lett. 11, 9248 (2020)
Using LibXC functional ID 498 : Re-regularized SCAN correlation by Furness et al
[ 1]  J. W. Furness, A. D. Kaplan, J. Ning, J. P. Perdew, and J. Sun, J. Phys. Chem. Lett. 11, 8208 (2020)
[ 2]  J. W. Furness, A. D. Kaplan, J. Ning, J. P. Perdew, and J. Sun, J. Phys. Chem. Lett. 11, 9248 (2020)
Using LibXC functional ID 497 : Re-regularized SCAN exchange by Furness et al
[ 1]  J. W. Furness, A. D. Kaplan, J. Ning, J. P. Perdew, and J. Sun, J. Phys. Chem. Lett. 11, 8208 (2020)
[ 2]  J. W. Furness, A. D. Kaplan, J. Ning, J. P. Perdew, and J. Sun, J. Phys. Chem. Lett. 11, 9248 (2020)
Using LibXC functional ID 498 : Re-regularized SCAN correlation by Furness et al
[ 1]  J. W. Furness, A. D. Kaplan, J. Ning, J. P. Perdew, and J. Sun, J. Phys. Chem. Lett. 11, 8208 (2020)
[ 2]  J. W. Furness, A. D. Kaplan, J. Ning, J. P. Perdew, and J. Sun, J. Phys. Chem. Lett. 11, 9248 (2020)

INFO   : the flag for use of the SHARK integral package has been found!

================================================================================
                                       INPUT FILE
================================================================================
NAME = scan.inp
|  1> !R2SCAN def2-TZVP VERYSLOWCONV
|  2> 
|  3> %pal nprocs 16 end 
|  4> 
|  5> %scf 
|  6>   AutoTRAHIter 200
|  7>   maxiter 400
|  8> end
|  9> 
| 10> *xyzfile 0 5 pbe.xyz
| 11> 
| 12> $new_job
| 13> 
| 14> !R2SCAN def2-TZVP VERYSLOWCONV
| 15> 
| 16> 
| 17> %pal nprocs 16 end 
| 18> 
| 19> %scf
| 20>   AutoTRAHIter 200
| 21>   maxiter 400
| 22> end
| 23> 
| 24> *xyzfile 0 3 pbe.xyz
| 25> 
| 26> 
| 27> 
| 28> 
| 29> 
| 30>                          ****END OF INPUT****
================================================================================


                 $$$$$$$$$$$$$$$$$$$$$$$$$$$$$$$$$$$$$$$$$$$$$$ 
                 $ THERE ARE  2 JOBS TO BE PROCESSED THIS RUN $
                 $$$$$$$$$$$$$$$$$$$$$$$$$$$$$$$$$$$$$$$$$$$$$$ 




                 $$$$$$$$$$$$$$$$  JOB NUMBER  1 $$$$$$$$$$$$$$


                       ****************************
                       * Single Point Calculation *
                       ****************************

---------------------------------
CARTESIAN COORDINATES (ANGSTROEM)
---------------------------------
  Au     5.363638    7.787579    7.358004
  Au     9.435636    7.204740    9.722100
  Au     9.969017    9.549850    8.399644
  Au     6.752671    6.366778    9.443693
  Au     7.920673   11.415708    8.522004
  Au     5.325143   10.289193    8.469801
  Au     7.372687    9.012968    9.801413
  Au    10.814738    7.205170    7.259268
  Au     9.523106   11.157768    6.205496
  Au     6.993696    9.883674    6.218313
  Au     9.090036    5.863297    5.584176
  Au     6.816282    7.435537    4.943594
  Au     9.385445    8.619782    5.194517
  Au     6.685882    5.364454    6.880328
  Fe     8.096661    7.693351    7.422886

----------------------------
CARTESIAN COORDINATES (A.U.)
----------------------------
  NO LB      ZA    FRAG     MASS         X           Y           Z
   0 Au   19.0000*   0   196.966   10.135807   14.716392   13.904612
   1 Au   19.0000*   0   196.966   17.830769   13.614985   18.372107
   2 Au   19.0000*   0   196.966   18.838713   18.046601   15.873027
   3 Au   19.0000*   0   196.966   12.760698   12.031468   17.845993
   4 Au   19.0000*   0   196.966   14.967903   21.572562   16.104253
   5 Au   19.0000*   0   196.966   10.063063   19.443757   16.005605
   6 Au   19.0000*   0   196.966   13.932359   17.032041   18.521987
   7 Au   19.0000*   0   196.966   20.436893   13.615798   13.718028
   8 Au   19.0000*   0   196.966   17.996062   21.085126   11.726687
   9 Au   19.0000*   0   196.966   13.216170   18.677437   11.750908
  10 Au   19.0000*   0   196.966   17.177678   11.080026   10.552564
  11 Au   19.0000*   0   196.966   12.880906   14.051129    9.342039
  12 Au   19.0000*   0   196.966   17.735920   16.289028    9.816214
  13 Au   19.0000*   0   196.966   12.634486   10.137350   13.001935
  14 Fe   26.0000    0    55.850   15.300472   14.538327   14.027223
* core charge reduced due to ECP

--------------------------------
INTERNAL COORDINATES (ANGSTROEM)
--------------------------------
 Au     0   0   0     0.000000000000     0.00000000     0.00000000
 Au     1   0   0     4.744451940198     0.00000000     0.00000000
 Au     2   1   0     2.744618111789    79.73130497     0.00000000
 Au     2   1   3     2.824534221693    34.11456640   167.21335065
 Au     3   2   1     2.773465774944   114.20744822    46.17620729
 Au     1   2   3     2.737818109168    85.52447825   307.43000302
 Au     4   2   1     2.741295663492    59.06388232   306.33901806
 Au     3   2   1     2.741026465818    61.93548450   264.79837763
 Au     3   2   1     2.756542287751   148.26580337   331.65601641
 Au     6   1   2     2.831556843116    62.48104771    79.36383318
 Au     8   3   2     2.753388960802   118.47157487    88.46887044
 Au    10   6   1     2.765819245977   117.09279204     6.41277760
 Au     9   3   2     2.735397872778    76.17924718   325.57501315
 Au     4   2   1     2.753171750974   102.87484248    62.13411525
 Fe     2   1   3     2.705176516595    29.48185857   310.18648392

---------------------------
INTERNAL COORDINATES (A.U.)
---------------------------
 Au     0   0   0     0.000000000000     0.00000000     0.00000000
 Au     1   0   0     8.965714822526     0.00000000     0.00000000
 Au     2   1   0     5.186576573481    79.73130497     0.00000000
 Au     2   1   3     5.337596134888    34.11456640   167.21335065
 Au     3   2   1     5.241090756448   114.20744822    46.17620729
 Au     1   2   3     5.173726430817    85.52447825   307.43000302
 Au     4   2   1     5.180298056106    59.06388232   306.33901806
 Au     3   2   1     5.179789346226    61.93548450   264.79837763
 Au     3   2   1     5.209110000422   148.26580337   331.65601641
 Au     6   1   2     5.350866966119    62.48104771    79.36383318
 Au     8   3   2     5.203151076078   118.47157487    88.46887044
 Au    10   6   1     5.226640910824   117.09279204     6.41277760
 Au     9   3   2     5.169152846861    76.17924718   325.57501315
 Au     4   2   1     5.202740608989   102.87484248    62.13411525
 Fe     2   1   3     5.112042760280    29.48185857   310.18648392

---------------------
BASIS SET INFORMATION
---------------------
There are 2 groups of distinct atoms

 Group   1 Type Au  : 8s7p6d1f contracted to 6s4p3d1f pattern {311111/4111/411/1}
 Group   2 Type Fe  : 17s11p7d1f contracted to 6s4p4d1f pattern {842111/6311/4111/1}

Atom   0Au   basis set group =>   1
Atom   1Au   basis set group =>   1
Atom   2Au   basis set group =>   1
Atom   3Au   basis set group =>   1
Atom   4Au   basis set group =>   1
Atom   5Au   basis set group =>   1
Atom   6Au   basis set group =>   1
Atom   7Au   basis set group =>   1
Atom   8Au   basis set group =>   1
Atom   9Au   basis set group =>   1
Atom  10Au   basis set group =>   1
Atom  11Au   basis set group =>   1
Atom  12Au   basis set group =>   1
Atom  13Au   basis set group =>   1
Atom  14Fe   basis set group =>   2
---------------------------------
AUXILIARY/J BASIS SET INFORMATION
---------------------------------
There are 2 groups of distinct atoms

 Group   1 Type Au  : 11s5p5d3f3g contracted to 8s5p5d2f3g pattern {41111111/11111/11111/21/111}
 Group   2 Type Fe  : 19s5p5d3f3g contracted to 8s5p5d2f3g pattern {121111111/11111/11111/21/111}

Atom   0Au   basis set group =>   1
Atom   1Au   basis set group =>   1
Atom   2Au   basis set group =>   1
Atom   3Au   basis set group =>   1
Atom   4Au   basis set group =>   1
Atom   5Au   basis set group =>   1
Atom   6Au   basis set group =>   1
Atom   7Au   basis set group =>   1
Atom   8Au   basis set group =>   1
Atom   9Au   basis set group =>   1
Atom  10Au   basis set group =>   1
Atom  11Au   basis set group =>   1
Atom  12Au   basis set group =>   1
Atom  13Au   basis set group =>   1
Atom  14Fe   basis set group =>   2
-------------------------
ECP PARAMETER INFORMATION
-------------------------

 Group 1, Type Au ECP Def2-ECP (replacing 60 core electrons, lmax=3)

Atom   0Au   ECP group =>   1
Atom   1Au   ECP group =>   1
Atom   2Au   ECP group =>   1
Atom   3Au   ECP group =>   1
Atom   4Au   ECP group =>   1
Atom   5Au   ECP group =>   1
Atom   6Au   ECP group =>   1
Atom   7Au   ECP group =>   1
Atom   8Au   ECP group =>   1
Atom   9Au   ECP group =>   1
Atom  10Au   ECP group =>   1
Atom  11Au   ECP group =>   1
Atom  12Au   ECP group =>   1
Atom  13Au   ECP group =>   1



           ************************************************************
           *        Program running with 16 parallel MPI-processes    *
           *              working on a common directory               *
           ************************************************************
------------------------------------------------------------------------------
                           ORCA GTO INTEGRAL CALCULATION
                           -- RI-GTO INTEGRALS CHOSEN --
------------------------------------------------------------------------------
------------------------------------------------------------------------------
                   ___                                                        
                  /   \      - P O W E R E D   B Y -                         
                 /     \                                                     
                 |  |  |   _    _      __       _____    __    __             
                 |  |  |  | |  | |    /  \     |  _  \  |  |  /  |          
                  \  \/   | |  | |   /    \    | | | |  |  | /  /          
                 / \  \   | |__| |  /  /\  \   | |_| |  |  |/  /          
                |  |  |   |  __  | /  /__\  \  |    /   |      \           
                |  |  |   | |  | | |   __   |  |    \   |  |\   \          
                \     /   | |  | | |  |  |  |  | |\  \  |  | \   \       
                 \___/    |_|  |_| |__|  |__|  |_| \__\ |__|  \__/        
                                                                              
                      - O R C A' S   B I G   F R I E N D -                    
                                      &                                       
                       - I N T E G R A L  F E E D E R -                       
                                                                              
 v1 FN, 2020, v2 2021                                                         
------------------------------------------------------------------------------


Reading SHARK input file scan.SHARKINP.tmp ... ok
----------------------
SHARK INTEGRAL PACKAGE
----------------------

Number of atoms                             ...     15
Number of basis functions                   ...    605
Number of shells                            ...    211
Maximum angular momentum                    ...      3
Integral batch strategy                     ... SHARK/LIBINT Hybrid
RI-J (if used) integral strategy            ... SPLIT-RIJ (Revised 2003 algorithm where possible)
Printlevel                                  ...      1
Contraction scheme used                     ... SEGMENTED contraction
Coulomb Range Separation                    ... NOT USED
Exchange Range Separation                   ... NOT USED
Finite Nucleus Model                        ... NOT USED
Auxiliary Coulomb fitting basis             ... AVAILABLE
   # of basis functions in Aux-J            ...   1335
   # of shells in Aux-J                     ...    345
   Maximum angular momentum in Aux-J        ...      4
Auxiliary J/K fitting basis                 ... NOT available
Auxiliary Correlation fitting basis         ... NOT available
Auxiliary 'external' fitting basis          ... NOT available
Integral threshold                          ...     1.000000e-10
Primitive cut-off                           ...     1.000000e-11
Primitive pair pre-selection threshold      ...     1.000000e-11

Calculating pre-screening integrals         ... done (  0.2 sec) Dimension = 211
Organizing shell pair data                  ... done (  0.8 sec)
Shell pair information
Total number of shell pairs                 ...     22366
Shell pairs after pre-screening             ...     17865
Total number of primitive shell pairs       ...     59609
Primitive shell pairs kept                  ...     34446
          la=0 lb=0:   2802 shell pairs
          la=1 lb=0:   4070 shell pairs
          la=1 lb=1:   1539 shell pairs
          la=2 lb=0:   3542 shell pairs
          la=2 lb=1:   2511 shell pairs
          la=2 lb=2:   1028 shell pairs
          la=3 lb=0:    925 shell pairs
          la=3 lb=1:    720 shell pairs
          la=3 lb=2:    628 shell pairs
          la=3 lb=3:    100 shell pairs

Calculating one electron integrals          ... done (  0.0 sec)
Calculating ECP integrals                   ... done ( 22.4 sec)
Calculating RI/J V-Matrix + Cholesky decomp.... done (  0.2 sec)
Calculating Nuclear repulsion               ... done (  0.0 sec) ENN=   5734.126106470461 Eh

SHARK setup successfully completed in  24.1 seconds

Maximum memory used throughout the entire GTOINT-calculation: 34.6 MB


           ************************************************************
           *        Program running with 16 parallel MPI-processes    *
           *              working on a common directory               *
           ************************************************************
-------------------------------------------------------------------------------
                                 ORCA SCF
-------------------------------------------------------------------------------

------------
SCF SETTINGS
------------
Hamiltonian:
 Density Functional     Method          .... DFT(GTOs)
  Functional kind                       .... Exchange
  Functional name                       .... Re-regularized SCAN exchange by Furness et al
  Functional family                     .... MGGA
  Functional refs                              
    [ 0] J. W. Furness, A. D. Kaplan, J. Ning, J. P. Perdew, and J. Sun, J. Phys. Chem. Lett. 11, 8208 (2020)
    [ 1] J. W. Furness, A. D. Kaplan, J. Ning, J. P. Perdew, and J. Sun, J. Phys. Chem. Lett. 11, 9248 (2020)
  Functional external parameters         .... 8
 Parameter  0 :         c1 parameter
 Parameter  1 :         c2 parameter
 Parameter  2 :          d parameter
 Parameter  3 :         k1 parameter
 Parameter  4 :       taur parameter
 Parameter  5 :     alphar parameter
 Parameter  6 :        eta parameter
 Parameter  7 :        dp2 parameter
  Functional kind                       .... Correlation
  Functional name                       .... Re-regularized SCAN correlation by Furness et al
  Functional family                     .... MGGA
  Functional refs                              
    [ 0] J. W. Furness, A. D. Kaplan, J. Ning, J. P. Perdew, and J. Sun, J. Phys. Chem. Lett. 11, 8208 (2020)
    [ 1] J. W. Furness, A. D. Kaplan, J. Ning, J. P. Perdew, and J. Sun, J. Phys. Chem. Lett. 11, 9248 (2020)
  Functional external parameters         .... 0
 Gradients option       PostSCFGGA      .... off
   Density functional embedding theory  .... OFF
   NL short-range parameter             .... 12.300000
 RI-approximation to the Coulomb term is turned on
   Number of AuxJ basis functions       .... 1335


General Settings:
 Integral files         IntName         .... scan
 Hartree-Fock type      HFTyp           .... UHF
 Total Charge           Charge          ....    0
 Multiplicity           Mult            ....    5
 Number of Electrons    NEL             ....  292
 Basis Dimension        Dim             ....  605
 Nuclear Repulsion      ENuc            ....   5734.1261064705 Eh

Convergence Acceleration:
 DIIS                   CNVDIIS         .... on
   Start iteration      DIISMaxIt       ....     0
   Startup error        DIISStart       ....  0.200000
   # of expansion vecs  DIISMaxEq       ....     5
   Bias factor          DIISBfac        ....   1.050
   Max. coefficient     DIISMaxC        ....  10.000
 Trust-Rad. Augm. Hess. CNVTRAH         .... auto
   Auto Start mean grad. ratio tolernc. ....  1.125000
   Auto Start start iteration           ....   200
   Auto Start num. interpolation iter.  ....    10
   Max. Number of Micro iterations      ....    16
   Max. Number of Macro iterations      .... Maxiter - #DIIS iter
   Number of Davidson start vectors     ....     2
   Converg. threshold I  (grad. norm)   ....   5.000e-05
   Converg. threshold II (energy diff.) ....   1.000e-06
   Grad. Scal. Fac. for Micro threshold ....   0.100
   Minimum threshold for Micro iter.    ....   0.010
   NR start threshold (gradient norm)   ....   0.001
   Initial trust radius                 ....   0.400
   Minimum AH scaling param. (alpha)    ....   1.000
   Maximum AH scaling param. (alpha)    .... 1000.000
   Orbital update algorithm             .... Taylor
   White noise on init. David. guess    .... on
   Maximum white noise                  ....   0.010
   Quad. conv. algorithm                .... NR
 SOSCF                  CNVSOSCF        .... off
 Level Shifting         CNVShift        .... on
   Level shift para.    LevelShift      ....    0.2500
   Turn off err/grad.   ShiftErr        ....    0.0000
 Zerner damping         CNVZerner       .... off
 Static damping         CNVDamp         .... on
   Fraction old density DampFac         ....    0.9200
   Max. Damping (<1)    DampMax         ....    0.9800
   Min. Damping (>=0)   DampMin         ....    0.0000
   Turn off err/grad.   DampErr         ....    0.0030
 Fernandez-Rico         CNVRico         .... off

SCF Procedure:
 Maximum # iterations   MaxIter         ....   400
 SCF integral mode      SCFMode         .... Direct
   Integral package                     .... SHARK and LIBINT hybrid scheme
 Reset frequency        DirectResetFreq ....    20
 Integral Threshold     Thresh          ....  1.000e-10 Eh
 Primitive CutOff       TCut            ....  1.000e-11 Eh

Convergence Tolerance:
 Convergence Check Mode ConvCheckMode   .... Total+1el-Energy
 Convergence forced     ConvForced      .... 0
 Energy Change          TolE            ....  1.000e-06 Eh
 1-El. energy change                    ....  1.000e-03 Eh
 DIIS Error             TolErr          ....  1.000e-06


Diagonalization of the overlap matrix:
Smallest eigenvalue                        ... 3.705e-04
Time for diagonalization                   ...    0.180 sec
Threshold for overlap eigenvalues          ... 1.000e-08
Number of eigenvalues below threshold      ... 0
Time for construction of square roots      ...    0.121 sec
Total time needed                          ...    0.305 sec

Time for model grid setup =    0.689 sec

------------------------------
INITIAL GUESS: MODEL POTENTIAL
------------------------------
Loading Hartree-Fock densities                     ... done
  calling /home/ehlert/src/miniconda3/envs/orca500/Programs/ORCA501/orca scan_atom79.inp > scan_atom79.out in order to generate an atomic fitting density for atom 0 (Au with ECP) on-the-fly... 
    atom 0 (Au), assumed electronic state with S=2: 1s2 2s2 2p6 3s2 3p6 4s2 3d10 4p6 5s2 4d10 5p6 6s1 4f14 5d10           ... done
Calculating cut-offs                               ... done
Initializing the effective Hamiltonian             ... done
Setting up the integral package (SHARK)            ... done
Starting the Coulomb interaction                   ... done (   0.4 sec)
Reading the grid                                   ... done
Mapping shells                                     ... done
Starting the XC term evaluation                    ... done (   0.4 sec)
  promolecular density results
     # of electrons  =   1132.014992038
     EX              =  -5175.645395764
     EC              =    -68.988508206
     EX+EC           =  -5244.633903970
Transforming the Hamiltonian                       ... done (   0.1 sec)
Diagonalizing the Hamiltonian                      ... done (   0.2 sec)
Back transforming the eigenvectors                 ... done (   0.0 sec)
Now organizing SCF variables                       ... done
                      ------------------
                      INITIAL GUESS DONE (   3.0 sec)
                      ------------------
-------------------
DFT GRID GENERATION
-------------------

General Integration Accuracy     IntAcc      ... 4.388
Radial Grid Type                 RadialGrid  ... OptM3 with GC (2021)
Angular Grid (max. ang.)         AngularGrid ... 4 (Lebedev-302)
Angular grid pruning method      GridPruning ... 4 (adaptive)
Weight generation scheme         WeightScheme... Becke
Basis function cutoff            BFCut       ... 1.0000e-10
Integration weight cutoff        WCut        ... 1.0000e-14
Angular grids for H and He will be reduced by one unit
Partially contracted basis set               ... off
Rotationally invariant grid construction     ... off

Total number of grid points                  ...   165719
Total number of batches                      ...     2598
Average number of points per batch           ...       63
Average number of grid points per atom       ...    11048
Time for grid setup =    2.527 sec

--------------
SCF ITERATIONS
--------------
ITER       Energy         Delta-E        Max-DP      RMS-DP      [F,P]     Damp
               ***  Starting incremental Fock matrix formation  ***
  0  -3161.8492461223   0.000000000000 0.13589482  0.00081768  0.5643628 0.9200
  1  -3163.2372669653  -1.388020842958 0.11201118  0.00072647  0.3611129 0.9200
                               ***Turning on DIIS***
  2  -3163.9958929913  -0.758626025963 0.08103001  0.00058890  0.2525770 0.9200
  3  -3164.3314421550  -0.335549163719 0.05454465  0.00046710  0.2318257 0.9200
  4  -3164.4335971441  -0.102154989083 0.05328136  0.00037815  0.2127335 0.9200
  5  -3164.4546257470  -0.021028602893 0.02654001  0.00028350  0.1951357 0.9200
  6  -3164.5534312584  -0.098805511409 0.03117675  0.00025366  0.1788944 0.9200
  7  -3164.6375649713  -0.084133712878 0.03099829  0.00022909  0.1644787 0.9200
  8  -3164.6839401259  -0.046375154600 0.02650723  0.00020926  0.1515664 0.9200
  9  -3164.7443248264  -0.060384700594 0.03615497  0.00023525  0.1394965 0.9200
 10  -3164.8062797894  -0.061954962975 0.01572559  0.00019259  0.1282059 0.9200
 11  -3164.8465485875  -0.040268798057 0.01768165  0.00016720  0.1178985 0.9200
 12  -3164.8987327197  -0.052184132209 0.02270269  0.00017223  0.1082917 0.9200
 13  -3164.9492554319  -0.050522712232 0.02436933  0.00015792  0.0994533 0.9200
 14  -3164.9869502861  -0.037694854170 0.01863946  0.00014506  0.0915213 0.9200
 15  -3165.0273368842  -0.040386598063 0.01442402  0.00014246  0.0841744 0.9200
 16  -3165.0681715313  -0.040834647193 0.01900677  0.00013387  0.0773817 0.9200
 17  -3165.1025309276  -0.034359396232 0.02195499  0.00012347  0.0712150 0.9200
 18  -3165.1356375919  -0.033106664373 0.02119414  0.00011904  0.0654792 0.9200
 19  -3165.1664162052  -0.030778613261 0.02028192  0.00011134  0.0601517 0.9200
               *** Restarting incremental Fock matrix formation ***
                                   *** Resetting DIIS ***
 20  -3165.1941974655  -0.027781260331 0.01217658  0.00010410  0.0553142 0.9200
 21  -3165.2214560196  -0.027258554021 0.01186149  0.00009861  0.0508096 0.9200
 22  -3165.2473756242  -0.025919604610 0.01577260  0.00009232  0.0466964 0.9200
 23  -3165.2711280632  -0.023752439015 0.01715738  0.00008731  0.0429463 0.9200
 24  -3165.2929068175  -0.021778754314 0.01637959  0.00008303  0.0395078 0.9200
 25  -3165.3133657560  -0.020458938543 0.01455620  0.00007915  0.0363476 0.9200
 26  -3165.3326498965  -0.019284140500 0.01352466  0.00007532  0.0334254 0.9200
 27  -3165.3505747247  -0.017924828155 0.01316079  0.00007085  0.0307346 0.9200
 28  -3165.3670817663  -0.016507041615 0.01253758  0.00006638  0.0282640 0.9200
 29  -3165.3823364115  -0.015254645184 0.01144959  0.00006238  0.0259988 0.9200
 30  -3165.3966437645  -0.014307352956 0.01044159  0.00005891  0.0239198 0.9200
 31  -3165.4100037515  -0.013359987089 0.00988605  0.00005517  0.0220034 0.9200
 32  -3165.4223501458  -0.012346394244 0.00927664  0.00005132  0.0202349 0.9200
 33  -3165.4337388754  -0.011388729622 0.00860882  0.00004778  0.0186066 0.9200
 34  -3165.4443037520  -0.010564876626 0.00786042  0.00004472  0.0171134 0.9200
 35  -3165.4541612613  -0.009857509217 0.00735296  0.00004193  0.0157439 0.9200
 36  -3165.4633025597  -0.009141298430 0.00696378  0.00003896  0.0144834 0.9200
 37  -3165.4717353977  -0.008432838027 0.00645273  0.00003610  0.0133204 0.9200
 38  -3165.4795177582  -0.007782360455 0.00590232  0.00003356  0.0122491 0.9200
 39  -3165.4867395265  -0.007221768370 0.00488527  0.00003119  0.0112661 0.9200
               *** Restarting incremental Fock matrix formation ***
                                   *** Resetting DIIS ***
 40  -3165.4934437921  -0.006704265573 0.00364682  0.00002848  0.0103639 0.9200
 41  -3165.4996525420  -0.006208749873 0.00371184  0.00002604  0.0095241 0.9200
 42  -3165.5053736209  -0.005721078910 0.00401843  0.00002401  0.0087530 0.9200
 43  -3165.5106394149  -0.005265794045 0.00406555  0.00002244  0.0080471 0.9200
 44  -3165.5155016189  -0.004862203937 0.00383357  0.00002112  0.0074020 0.9200
 45  -3165.5200045547  -0.004502935808 0.00342390  0.00001992  0.0068102 0.9200
 46  -3165.5241716326  -0.004167077903 0.00326892  0.00001865  0.0062643 0.9200
 47  -3165.5280119142  -0.003840281589 0.00306588  0.00001736  0.0057626 0.9200
 48  -3165.5315462911  -0.003534376936 0.00278710  0.00001615  0.0053003 0.9200
 49  -3165.5348115359  -0.003265244782 0.00249634  0.00001510  0.0048754 0.9200
 50  -3165.5378335620  -0.003022026066 0.00232979  0.00001416  0.0044849 0.9200
 51  -3165.5406227084  -0.002789146401 0.00220867  0.00001317  0.0041259 0.9200
 52  -3165.5431902230  -0.002567514633 0.00203753  0.00001222  0.0037953 0.9200
 53  -3165.5455536965  -0.002363473503 0.00182647  0.00001135  0.0034910 0.9200
 54  -3165.5477375803  -0.002183883814 0.00166114  0.00001061  0.0032113 0.9200
 55  -3165.5497555455  -0.002017965146 0.01982076  0.00012379  0.0029542 0.0000
 56  -3165.5732426221  -0.023487076631 0.00222299  0.00001503  0.0015348 0.0000
 57  -3165.5731087641   0.000133857983 0.00006315  0.00000043  0.0035050 0.9200
 58  -3165.5731167655  -0.000008001392 0.00005731  0.00000060  0.0033622 0.9200
 59  -3165.5731274646  -0.000010699134 0.00006381  0.00000070  0.0031785 0.9200
               *** Restarting incremental Fock matrix formation ***
                                   *** Resetting DIIS ***
 60  -3165.5731357670  -0.000008302342 0.00467500  0.00004249  0.0029791 0.0000
 61  -3165.5725181131   0.000617653869 0.00026684  0.00000130  0.0122127 0.9200
 62  -3165.5725743151  -0.000056201983 0.00026313  0.00000161  0.0117473 0.9200
 63  -3165.5726434099  -0.000069094805 0.00026317  0.00000166  0.0111680 0.9200
 64  -3165.5727134770  -0.000070067072 0.00024958  0.00000163  0.0105594 0.9200
 65  -3165.5727801249  -0.000066647900 0.00073573  0.00000563  0.0099516 0.9200
 66  -3165.5729520267  -0.000171901876 0.00051178  0.00000502  0.0078619 0.9200
 67  -3165.5730606979  -0.000108671117 0.00049905  0.00000422  0.0062344 0.9200
 68  -3165.5731244081  -0.000063710218 0.00044335  0.00000350  0.0049913 0.9200
 69  -3165.5731616466  -0.000037238520 0.00037333  0.00000287  0.0040284 0.9200
 70  -3165.5731837064  -0.000022059828 0.00030319  0.00000232  0.0032764 0.9200
 71  -3165.5731972449  -0.000013538516 0.00299681  0.00002333  0.0026868 0.0000
 72  -3165.5731184265   0.000078818403 0.00004500  0.00000035  0.0031094 0.9200
 73  -3165.5731252293  -0.000006802771 0.00008192  0.00000061  0.0030150 0.9200
 74  -3165.5731356782  -0.000010448924 0.00139038  0.00001015  0.0028649 0.0000
 75  -3165.5732561658  -0.000120487593 0.00088588  0.00000286  0.0005484 0.0000
 76  -3165.5732675531  -0.000011387314 0.00026014  0.00000186  0.0002511 0.0000
 77  -3165.5732756795  -0.000008126380 0.00021140  0.00000152  0.0000791 0.0000
 78  -3165.5732795920  -0.000003912535 0.00014058  0.00000110  0.0000378 0.0000
 79  -3165.5732819567  -0.000002364639 0.00071043  0.00000193  0.0000379 0.0000
               *** Restarting incremental Fock matrix formation ***
                                   *** Resetting DIIS ***
 80  -3165.5732835309  -0.000001574235 0.00010411  0.00000075  0.0000271 0.0000
                 **** Energy Check signals convergence ****

               *****************************************************
               *                     SUCCESS                       *
               *           SCF CONVERGED AFTER  81 CYCLES          *
               *****************************************************


----------------
TOTAL SCF ENERGY
----------------

Total Energy       :        -3165.57328451 Eh          -86139.62833 eV

Components:
Nuclear Repulsion  :         5734.12610647 Eh          156033.50395 eV
Electronic Energy  :        -8899.69939098 Eh         -242173.13227 eV
One Electron Energy:       -16546.59841872 Eh         -450255.83354 eV
Two Electron Energy:         7646.89902774 Eh          208082.70126 eV

Virial components:
Potential Energy   :        -5069.58710979 Eh         -137950.47852 eV
Kinetic Energy     :         1904.01382528 Eh           51810.85020 eV
Virial Ratio       :            2.66257894


DFT components:
N(Alpha)           :      147.999967488873 electrons
N(Beta)            :      143.999957192085 electrons
N(Total)           :      291.999924680958 electrons
E(X)               :     -224.536033014573 Eh       
E(C)               :      -12.147024705201 Eh       
E(XC)              :     -236.683057719773 Eh       
DFET-embed. en.    :        0.000000000000 Eh       

---------------
SCF CONVERGENCE
---------------

  Last Energy change         ...   -9.7979e-07  Tolerance :   1.0000e-06
  Last MAX-Density change    ...    8.6035e-05  Tolerance :   1.0000e-05
  Last RMS-Density change    ...    5.9278e-07  Tolerance :   1.0000e-06
  Last DIIS Error            ...    2.7806e-05  Tolerance :   1.0000e-06

             **** THE GBW FILE WAS UPDATED (scan.gbw) ****
             **** DENSITY scan.scfp WAS UPDATED ****
             **** ENERGY FILE WAS UPDATED (scan.en.tmp) ****
----------------------
UHF SPIN CONTAMINATION
----------------------

Warning: in a DFT calculation there is little theoretical justification to 
         calculate <S**2> as in Hartree-Fock theory. We will do it anyways
         but you should keep in mind that the values have only limited relevance

Expectation value of <S**2>     :     6.218780
Ideal value S*(S+1) for S=2.0   :     6.000000
Deviation                       :     0.218780

             **** THE GBW FILE WAS UPDATED (scan.gbw) ****
             **** DENSITY scan.scfp WAS UPDATED ****
----------------
ORBITAL ENERGIES
----------------
                 SPIN UP ORBITALS
  NO   OCC          E(Eh)            E(eV) 
   0   1.0000    -255.652157     -6956.6489 
   1   1.0000     -29.952114      -815.0384 
   2   1.0000     -25.786658      -701.6906 
   3   1.0000     -25.783914      -701.6160 
   4   1.0000     -25.775159      -701.3777 
   5   1.0000      -4.131141      -112.4141 
   6   1.0000      -4.125707      -112.2662 
   7   1.0000      -4.125544      -112.2617 
   8   1.0000      -4.122587      -112.1813 
   9   1.0000      -4.122565      -112.1807 
  10   1.0000      -4.120986      -112.1377 
  11   1.0000      -4.115909      -111.9996 
  12   1.0000      -4.115624      -111.9918 
  13   1.0000      -4.114038      -111.9487 
  14   1.0000      -4.113953      -111.9464 
  15   1.0000      -4.113628      -111.9375 
  16   1.0000      -4.113572      -111.9360 
  17   1.0000      -4.113455      -111.9328 
  18   1.0000      -4.113362      -111.9303 
  19   1.0000      -3.533969       -96.1642 
  20   1.0000      -2.319553       -63.1183 
  21   1.0000      -2.317279       -63.0564 
  22   1.0000      -2.316356       -63.0313 
  23   1.0000      -2.315631       -63.0115 
  24   1.0000      -2.314941       -62.9927 
  25   1.0000      -2.311773       -62.9065 
  26   1.0000      -2.311560       -62.9008 
  27   1.0000      -2.311204       -62.8911 
  28   1.0000      -2.309901       -62.8556 
  29   1.0000      -2.309588       -62.8471 
  30   1.0000      -2.309271       -62.8385 
  31   1.0000      -2.308946       -62.8296 
  32   1.0000      -2.308890       -62.8281 
  33   1.0000      -2.308016       -62.8043 
  34   1.0000      -2.307795       -62.7983 
  35   1.0000      -2.306203       -62.7550 
  36   1.0000      -2.305205       -62.7278 
  37   1.0000      -2.305075       -62.7243 
  38   1.0000      -2.304309       -62.7034 
  39   1.0000      -2.303576       -62.6835 
  40   1.0000      -2.303352       -62.6774 
  41   1.0000      -2.302964       -62.6668 
  42   1.0000      -2.302333       -62.6497 
  43   1.0000      -2.301912       -62.6382 
  44   1.0000      -2.301335       -62.6225 
  45   1.0000      -2.301252       -62.6203 
  46   1.0000      -2.300872       -62.6099 
  47   1.0000      -2.300593       -62.6023 
  48   1.0000      -2.300216       -62.5921 
  49   1.0000      -2.300162       -62.5906 
  50   1.0000      -2.300108       -62.5891 
  51   1.0000      -2.299845       -62.5820 
  52   1.0000      -2.299678       -62.5774 
  53   1.0000      -2.299218       -62.5649 
  54   1.0000      -2.298893       -62.5560 
  55   1.0000      -2.298684       -62.5504 
  56   1.0000      -2.298503       -62.5455 
  57   1.0000      -2.298311       -62.5402 
  58   1.0000      -2.298222       -62.5378 
  59   1.0000      -2.296976       -62.5039 
  60   1.0000      -2.296473       -62.4902 
  61   1.0000      -2.296325       -62.4862 
  62   1.0000      -2.296012       -62.4777 
  63   1.0000      -2.295908       -62.4748 
  64   1.0000      -2.284104       -62.1536 
  65   1.0000      -0.443790       -12.0761 
  66   1.0000      -0.401160       -10.9161 
  67   1.0000      -0.397152       -10.8071 
  68   1.0000      -0.396260       -10.7828 
  69   1.0000      -0.393920       -10.7191 
  70   1.0000      -0.390551       -10.6274 
  71   1.0000      -0.385339       -10.4856 
  72   1.0000      -0.384048       -10.4505 
  73   1.0000      -0.375717       -10.2238 
  74   1.0000      -0.374161       -10.1814 
  75   1.0000      -0.371682       -10.1140 
  76   1.0000      -0.366823        -9.9818 
  77   1.0000      -0.364918        -9.9299 
  78   1.0000      -0.363883        -9.9018 
  79   1.0000      -0.360848        -9.8192 
  80   1.0000      -0.357815        -9.7366 
  81   1.0000      -0.357409        -9.7256 
  82   1.0000      -0.355313        -9.6686 
  83   1.0000      -0.350934        -9.5494 
  84   1.0000      -0.347506        -9.4561 
  85   1.0000      -0.346416        -9.4265 
  86   1.0000      -0.345965        -9.4142 
  87   1.0000      -0.342126        -9.3097 
  88   1.0000      -0.339528        -9.2390 
  89   1.0000      -0.339251        -9.2315 
  90   1.0000      -0.337668        -9.1884 
  91   1.0000      -0.337265        -9.1774 
  92   1.0000      -0.333598        -9.0777 
  93   1.0000      -0.329266        -8.9598 
  94   1.0000      -0.327733        -8.9181 
  95   1.0000      -0.325228        -8.8499 
  96   1.0000      -0.324401        -8.8274 
  97   1.0000      -0.323687        -8.8080 
  98   1.0000      -0.318353        -8.6628 
  99   1.0000      -0.317740        -8.6461 
 100   1.0000      -0.317505        -8.6397 
 101   1.0000      -0.309459        -8.4208 
 102   1.0000      -0.308320        -8.3898 
 103   1.0000      -0.304772        -8.2933 
 104   1.0000      -0.303692        -8.2639 
 105   1.0000      -0.301811        -8.2127 
 106   1.0000      -0.296936        -8.0800 
 107   1.0000      -0.295798        -8.0491 
 108   1.0000      -0.294031        -8.0010 
 109   1.0000      -0.292362        -7.9556 
 110   1.0000      -0.289253        -7.8710 
 111   1.0000      -0.287912        -7.8345 
 112   1.0000      -0.286485        -7.7956 
 113   1.0000      -0.285760        -7.7759 
 114   1.0000      -0.283496        -7.7143 
 115   1.0000      -0.282485        -7.6868 
 116   1.0000      -0.281249        -7.6532 
 117   1.0000      -0.280315        -7.6278 
 118   1.0000      -0.279453        -7.6043 
 119   1.0000      -0.278430        -7.5765 
 120   1.0000      -0.277493        -7.5510 
 121   1.0000      -0.275515        -7.4971 
 122   1.0000      -0.274784        -7.4772 
 123   1.0000      -0.271250        -7.3811 
 124   1.0000      -0.270676        -7.3655 
 125   1.0000      -0.269542        -7.3346 
 126   1.0000      -0.269373        -7.3300 
 127   1.0000      -0.268157        -7.2969 
 128   1.0000      -0.266991        -7.2652 
 129   1.0000      -0.265271        -7.2184 
 130   1.0000      -0.263767        -7.1775 
 131   1.0000      -0.263437        -7.1685 
 132   1.0000      -0.261687        -7.1209 
 133   1.0000      -0.260792        -7.0965 
 134   1.0000      -0.259343        -7.0571 
 135   1.0000      -0.256046        -6.9674 
 136   1.0000      -0.255899        -6.9634 
 137   1.0000      -0.254297        -6.9198 
 138   1.0000      -0.253210        -6.8902 
 139   1.0000      -0.250892        -6.8271 
 140   1.0000      -0.250686        -6.8215 
 141   1.0000      -0.249463        -6.7882 
 142   1.0000      -0.247750        -6.7416 
 143   1.0000      -0.234964        -6.3937 
 144   1.0000      -0.220907        -6.0112 
 145   1.0000      -0.210674        -5.7327 
 146   1.0000      -0.197592        -5.3768 
 147   1.0000      -0.196800        -5.3552 
 148   0.0000      -0.172230        -4.6866 
 149   0.0000      -0.145836        -3.9684 
 150   0.0000      -0.132051        -3.5933 
 151   0.0000      -0.129557        -3.5254 
 152   0.0000      -0.113003        -3.0750 
 153   0.0000      -0.107245        -2.9183 
 154   0.0000      -0.102726        -2.7953 
 155   0.0000      -0.067534        -1.8377 
 156   0.0000      -0.059825        -1.6279 
 157   0.0000      -0.059152        -1.6096 
 158   0.0000      -0.058339        -1.5875 
 159   0.0000      -0.053691        -1.4610 
 160   0.0000      -0.029329        -0.7981 
 161   0.0000      -0.025654        -0.6981 
 162   0.0000      -0.019064        -0.5188 
 163   0.0000      -0.016431        -0.4471 
 164   0.0000      -0.003438        -0.0935 
 165   0.0000       0.014132         0.3845 
 166   0.0000       0.017855         0.4859 
 167   0.0000       0.029718         0.8087 
 168   0.0000       0.031665         0.8616 
 169   0.0000       0.036677         0.9980 
 170   0.0000       0.043017         1.1705 
 171   0.0000       0.046616         1.2685 
 172   0.0000       0.049739         1.3535 
 173   0.0000       0.055639         1.5140 
 174   0.0000       0.061825         1.6823 
 175   0.0000       0.071483         1.9452 
 176   0.0000       0.074079         2.0158 
 177   0.0000       0.077014         2.0956 
 178   0.0000       0.079230         2.1560 
 179   0.0000       0.081331         2.2131 
 180   0.0000       0.087593         2.3835 
 181   0.0000       0.088898         2.4190 
 182   0.0000       0.094607         2.5744 
 183   0.0000       0.099299         2.7021 
 184   0.0000       0.099666         2.7121 
 185   0.0000       0.107746         2.9319 
 186   0.0000       0.109312         2.9745 
 187   0.0000       0.119110         3.2411 
 188   0.0000       0.126602         3.4450 
 189   0.0000       0.132055         3.5934 
 190   0.0000       0.136920         3.7258 
 191   0.0000       0.141912         3.8616 
 192   0.0000       0.147197         4.0054 
 193   0.0000       0.148484         4.0404 
 194   0.0000       0.162327         4.4171 
 195   0.0000       0.164294         4.4707 
 196   0.0000       0.167641         4.5617 
 197   0.0000       0.175681         4.7805 
 198   0.0000       0.176673         4.8075 
 199   0.0000       0.179952         4.8967 
 200   0.0000       0.180854         4.9213 
 201   0.0000       0.185335         5.0432 
 202   0.0000       0.186801         5.0831 
 203   0.0000       0.188139         5.1195 
 204   0.0000       0.202981         5.5234 
 205   0.0000       0.204207         5.5568 
 206   0.0000       0.209835         5.7099 
 207   0.0000       0.218544         5.9469 
 208   0.0000       0.220877         6.0104 
 209   0.0000       0.229884         6.2555 
 210   0.0000       0.231802         6.3077 
 211   0.0000       0.237101         6.4518 
 212   0.0000       0.238022         6.4769 
 213   0.0000       0.247213         6.7270 
 214   0.0000       0.248099         6.7511 
 215   0.0000       0.253361         6.8943 
 216   0.0000       0.257787         7.0147 
 217   0.0000       0.259293         7.0557 
 218   0.0000       0.272095         7.4041 
 219   0.0000       0.277535         7.5521 
 220   0.0000       0.280141         7.6230 
 221   0.0000       0.281494         7.6598 
 222   0.0000       0.287899         7.8341 
 223   0.0000       0.300012         8.1637 
 224   0.0000       0.302192         8.2231 
 225   0.0000       0.306013         8.3270 
 226   0.0000       0.306660         8.3447 
 227   0.0000       0.313904         8.5418 
 228   0.0000       0.315896         8.5960 
 229   0.0000       0.325883         8.8677 
 230   0.0000       0.330417         8.9911 
 231   0.0000       0.332145         9.0381 
 232   0.0000       0.335371         9.1259 
 233   0.0000       0.338948         9.2233 
 234   0.0000       0.339520         9.2388 
 235   0.0000       0.348702         9.4887 
 236   0.0000       0.352001         9.5784 
 237   0.0000       0.352776         9.5995 
 238   0.0000       0.358901         9.7662 
 239   0.0000       0.362700         9.8696 
 240   0.0000       0.364912         9.9297 
 241   0.0000       0.374438        10.1890 
 242   0.0000       0.375474        10.2172 
 243   0.0000       0.381842        10.3905 
 244   0.0000       0.382129        10.3983 
 245   0.0000       0.394204        10.7268 
 246   0.0000       0.403262        10.9733 
 247   0.0000       0.407019        11.0756 
 248   0.0000       0.410338        11.1659 
 249   0.0000       0.420965        11.4550 
 250   0.0000       0.421974        11.4825 
 251   0.0000       0.431118        11.7313 
 252   0.0000       0.433128        11.7860 
 253   0.0000       0.438883        11.9426 
 254   0.0000       0.442698        12.0464 
 255   0.0000       0.449153        12.2221 
 256   0.0000       0.454978        12.3806 
 257   0.0000       0.455808        12.4032 
 258   0.0000       0.459106        12.4929 
 259   0.0000       0.465335        12.6624 
 260   0.0000       0.470480        12.8024 
 261   0.0000       0.473540        12.8857 
 262   0.0000       0.480911        13.0862 
 263   0.0000       0.488466        13.2918 
 264   0.0000       0.492395        13.3988 
 265   0.0000       0.495164        13.4741 
 266   0.0000       0.496273        13.5043 
 267   0.0000       0.501269        13.6402 
 268   0.0000       0.503198        13.6927 
 269   0.0000       0.505051        13.7431 
 270   0.0000       0.513176        13.9642 
 271   0.0000       0.515374        14.0240 
 272   0.0000       0.522242        14.2109 
 273   0.0000       0.529739        14.4149 
 274   0.0000       0.532266        14.4837 
 275   0.0000       0.535248        14.5648 
 276   0.0000       0.540014        14.6945 
 277   0.0000       0.542871        14.7723 
 278   0.0000       0.544586        14.8189 
 279   0.0000       0.544888        14.8271 
 280   0.0000       0.555711        15.1217 
 281   0.0000       0.560738        15.2584 
 282   0.0000       0.565095        15.3770 
 283   0.0000       0.566078        15.4038 
 284   0.0000       0.566624        15.4186 
 285   0.0000       0.570148        15.5145 
 286   0.0000       0.571454        15.5500 
 287   0.0000       0.582319        15.8457 
 288   0.0000       0.584411        15.9026 
 289   0.0000       0.625554        17.0222 
 290   0.0000       0.632891        17.2218 
 291   0.0000       0.670865        18.2552 
 292   0.0000       0.683247        18.5921 
 293   0.0000       0.702132        19.1060 
 294   0.0000       0.706774        19.2323 
 295   0.0000       0.721027        19.6201 
 296   0.0000       0.734530        19.9876 
 297   0.0000       0.737741        20.0750 
 298   0.0000       0.745590        20.2885 
 299   0.0000       0.745786        20.2939 
 300   0.0000       0.768219        20.9043 
 301   0.0000       0.770689        20.9715 
 302   0.0000       0.771448        20.9922 
 303   0.0000       0.781362        21.2619 
 304   0.0000       0.797777        21.7086 
 305   0.0000       0.804528        21.8923 
 306   0.0000       0.815343        22.1866 
 307   0.0000       0.828914        22.5559 
 308   0.0000       0.833398        22.6779 
 309   0.0000       0.839248        22.8371 
 310   0.0000       0.839554        22.8454 
 311   0.0000       0.845089        22.9960 
 312   0.0000       0.879189        23.9240 
 313   0.0000       0.886102        24.1121 
 314   0.0000       0.891391        24.2560 
 315   0.0000       0.912521        24.8310 
 316   0.0000       0.913800        24.8658 
 317   0.0000       0.919694        25.0261 
 318   0.0000       0.929842        25.3023 
 319   0.0000       0.930450        25.3188 
 320   0.0000       0.933778        25.4094 
 321   0.0000       0.951828        25.9005 
 322   0.0000       0.955457        25.9993 
 323   0.0000       0.967578        26.3291 
 324   0.0000       0.967905        26.3380 
 325   0.0000       0.981616        26.7111 
 326   0.0000       0.984706        26.7952 
 327   0.0000       0.987977        26.8842 
 328   0.0000       1.004122        27.3235 
 329   0.0000       1.021371        27.7929 
 330   0.0000       1.057543        28.7772 
 331   0.0000       1.086347        29.5610 
 332   0.0000       1.113374        30.2964 
 333   0.0000       1.194490        32.5037 
 334   0.0000       1.205575        32.8054 
 335   0.0000       1.226303        33.3694 
 336   0.0000       1.250974        34.0407 
 337   0.0000       1.262343        34.3501 
 338   0.0000       1.267604        34.4933 
 339   0.0000       1.286781        35.0151 
 340   0.0000       1.290754        35.1232 
 341   0.0000       1.310948        35.6727 
 342   0.0000       1.319465        35.9045 
 343   0.0000       1.330108        36.1941 
 344   0.0000       1.333723        36.2924 
 345   0.0000       1.346330        36.6355 
 346   0.0000       1.351792        36.7841 
 347   0.0000       1.360906        37.0321 
 348   0.0000       1.366472        37.1836 
 349   0.0000       1.378382        37.5077 
 350   0.0000       1.382125        37.6095 
 351   0.0000       1.382495        37.6196 
 352   0.0000       1.385412        37.6990 
 353   0.0000       1.393553        37.9205 
 354   0.0000       1.394604        37.9491 
 355   0.0000       1.397668        38.0325 
 356   0.0000       1.425519        38.7903 
 357   0.0000       1.435651        39.0661 
 358   0.0000       1.437949        39.1286 
 359   0.0000       1.455692        39.6114 
 360   0.0000       1.458430        39.6859 
 361   0.0000       1.463723        39.8299 
 362   0.0000       1.465150        39.8688 
 363   0.0000       1.470336        40.0099 
 364   0.0000       1.475333        40.1459 
 365   0.0000       1.480737        40.2929 
 366   0.0000       1.482919        40.3523 
 367   0.0000       1.486825        40.4586 
 368   0.0000       1.490165        40.5495 
 369   0.0000       1.491570        40.5877 
 370   0.0000       1.496438        40.7201 
 371   0.0000       1.502150        40.8756 
 372   0.0000       1.502716        40.8910 
 373   0.0000       1.508399        41.0456 
 374   0.0000       1.510434        41.1010 
 375   0.0000       1.512607        41.1601 
 376   0.0000       1.516610        41.2691 
 377   0.0000       1.517427        41.2913 
 378   0.0000       1.519746        41.3544 
 379   0.0000       1.522614        41.4324 
 380   0.0000       1.529665        41.6243 
 381   0.0000       1.532744        41.7081 
 382   0.0000       1.532906        41.7125 
 383   0.0000       1.536607        41.8132 
 384   0.0000       1.538458        41.8636 
 385   0.0000       1.539350        41.8878 
 386   0.0000       1.540243        41.9121 
 387   0.0000       1.544109        42.0174 
 388   0.0000       1.546428        42.0804 
 389   0.0000       1.549896        42.1748 
 390   0.0000       1.550670        42.1959 
 391   0.0000       1.552414        42.2433 
 392   0.0000       1.553317        42.2679 
 393   0.0000       1.556560        42.3561 
 394   0.0000       1.556783        42.3622 
 395   0.0000       1.558607        42.4118 
 396   0.0000       1.560101        42.4525 
 397   0.0000       1.560715        42.4692 
 398   0.0000       1.562228        42.5104 
 399   0.0000       1.562805        42.5261 
 400   0.0000       1.564802        42.5804 
 401   0.0000       1.567151        42.6443 
 402   0.0000       1.569349        42.7041 
 403   0.0000       1.569645        42.7122 
 404   0.0000       1.571543        42.7638 
 405   0.0000       1.572400        42.7872 
 406   0.0000       1.574464        42.8434 
 407   0.0000       1.575543        42.8727 
 408   0.0000       1.576362        42.8950 
 409   0.0000       1.578394        42.9503 
 410   0.0000       1.578536        42.9541 
 411   0.0000       1.579923        42.9919 
 412   0.0000       1.580882        43.0180 
 413   0.0000       1.582755        43.0690 
 414   0.0000       1.582968        43.0747 
 415   0.0000       1.587082        43.1867 
 416   0.0000       1.587784        43.2058 
 417   0.0000       1.588749        43.2321 
 418   0.0000       1.588829        43.2342 
 419   0.0000       1.589614        43.2556 
 420   0.0000       1.591610        43.3099 
 421   0.0000       1.593116        43.3509 
 422   0.0000       1.594267        43.3822 
 423   0.0000       1.598813        43.5059 
 424   0.0000       1.598943        43.5095 
 425   0.0000       1.604126        43.6505 
 426   0.0000       1.604962        43.6732 
 427   0.0000       1.605706        43.6935 
 428   0.0000       1.607252        43.7356 
 429   0.0000       1.611827        43.8601 
 430   0.0000       1.617640        44.0182 
 431   0.0000       1.618769        44.0489 
 432   0.0000       1.622558        44.1521 
 433   0.0000       1.624382        44.2017 
 434   0.0000       1.625872        44.2422 
 435   0.0000       1.629678        44.3458 
 436   0.0000       1.632680        44.4275 
 437   0.0000       1.633589        44.4522 
 438   0.0000       1.636272        44.5252 
 439   0.0000       1.636989        44.5447 
 440   0.0000       1.639469        44.6122 
 441   0.0000       1.642934        44.7065 
 442   0.0000       1.643944        44.7340 
 443   0.0000       1.649367        44.8816 
 444   0.0000       1.649406        44.8826 
 445   0.0000       1.652105        44.9561 
 446   0.0000       1.657436        45.1011 
 447   0.0000       1.657926        45.1145 
 448   0.0000       1.658843        45.1394 
 449   0.0000       1.660158        45.1752 
 450   0.0000       1.667182        45.3663 
 451   0.0000       1.668693        45.4074 
 452   0.0000       1.670248        45.4498 
 453   0.0000       1.679701        45.7070 
 454   0.0000       1.680035        45.7161 
 455   0.0000       1.682385        45.7800 
 456   0.0000       1.683826        45.8192 
 457   0.0000       1.687545        45.9204 
 458   0.0000       1.687915        45.9305 
 459   0.0000       1.689583        45.9759 
 460   0.0000       1.692456        46.0541 
 461   0.0000       1.694189        46.1012 
 462   0.0000       1.700654        46.2772 
 463   0.0000       1.703998        46.3681 
 464   0.0000       1.714217        46.6462 
 465   0.0000       1.715958        46.6936 
 466   0.0000       1.717552        46.7370 
 467   0.0000       1.728183        47.0263 
 468   0.0000       1.737312        47.2747 
 469   0.0000       1.739280        47.3282 
 470   0.0000       1.744234        47.4630 
 471   0.0000       1.755254        47.7629 
 472   0.0000       1.771134        48.1950 
 473   0.0000       1.771701        48.2104 
 474   0.0000       1.781866        48.4870 
 475   0.0000       1.794532        48.8317 
 476   0.0000       1.802543        49.0497 
 477   0.0000       1.810519        49.2667 
 478   0.0000       1.823806        49.6283 
 479   0.0000       1.824994        49.6606 
 480   0.0000       1.834725        49.9254 
 481   0.0000       1.844763        50.1985 
 482   0.0000       1.847552        50.2745 
 483   0.0000       1.857336        50.5407 
 484   0.0000       1.859046        50.5872 
 485   0.0000       1.859652        50.6037 
 486   0.0000       1.865326        50.7581 
 487   0.0000       1.866391        50.7871 
 488   0.0000       1.876255        51.0555 
 489   0.0000       1.885896        51.3178 
 490   0.0000       1.893410        51.5223 
 491   0.0000       1.893878        51.5350 
 492   0.0000       1.920519        52.2600 
 493   0.0000       1.920736        52.2659 
 494   0.0000       1.933423        52.6111 
 495   0.0000       1.938340        52.7449 
 496   0.0000       1.949420        53.0464 
 497   0.0000       1.956751        53.2459 
 498   0.0000       1.997200        54.3466 
 499   0.0000       2.000328        54.4317 
 500   0.0000       2.014037        54.8047 
 501   0.0000       2.014625        54.8207 
 502   0.0000       2.053599        55.8813 
 503   0.0000       2.206557        60.0435 
 504   0.0000       2.220100        60.4120 
 505   0.0000       2.254052        61.3359 
 506   0.0000       2.356795        64.1317 
 507   0.0000       2.366903        64.4067 
 508   0.0000       2.381401        64.8012 
 509   0.0000       2.424094        65.9629 
 510   0.0000       2.450562        66.6832 
 511   0.0000       2.523845        68.6773 
 512   0.0000       2.550371        69.3991 
 513   0.0000       2.588957        70.4491 
 514   0.0000       2.590004        70.4776 
 515   0.0000       2.607935        70.9655 
 516   0.0000       2.611744        71.0692 
 517   0.0000       2.617616        71.2290 
 518   0.0000       2.628069        71.5134 
 519   0.0000       2.668091        72.6024 
 520   0.0000       2.676317        72.8263 
 521   0.0000       2.679170        72.9039 
 522   0.0000       3.349892        91.1552 
 523   0.0000       3.701048       100.7106 
 524   0.0000       3.715581       101.1061 
 525   0.0000       3.773095       102.6711 
 526   0.0000       3.796634       103.3117 
 527   0.0000       3.822018       104.0024 
 528   0.0000       3.971846       108.0794 
 529   0.0000       3.976601       108.2088 
 530   0.0000       3.981685       108.3471 
 531   0.0000       3.984901       108.4347 
 532   0.0000       3.992176       108.6326 
 533   0.0000       3.993475       108.6680 
 534   0.0000       4.000753       108.8660 
 535   0.0000      24.016752       653.5290 
 536   0.0000      24.103765       655.8968 
 537   0.0000      24.347925       662.5407 
 538   0.0000      24.447427       665.2483 
 539   0.0000      24.654833       670.8921 
 540   0.0000      24.850172       676.2076 
 541   0.0000      24.953750       679.0261 
 542   0.0000      25.147984       684.3114 
 543   0.0000      25.182898       685.2615 
 544   0.0000      25.455980       692.6924 
 545   0.0000      25.635595       697.5800 
 546   0.0000      25.740117       700.4242 
 547   0.0000      25.791147       701.8128 
 548   0.0000      25.806763       702.2377 
 549   0.0000      25.966334       706.5799 
 550   0.0000      26.145655       711.4594 
 551   0.0000      26.167483       712.0534 
 552   0.0000      26.281428       715.1540 
 553   0.0000      26.310941       715.9571 
 554   0.0000      26.575699       723.1615 
 555   0.0000      26.587554       723.4841 
 556   0.0000      26.730041       727.3614 
 557   0.0000      26.766095       728.3425 
 558   0.0000      26.792815       729.0696 
 559   0.0000      26.839795       730.3480 
 560   0.0000      26.993624       734.5338 
 561   0.0000      27.070431       736.6239 
 562   0.0000      27.131971       738.2985 
 563   0.0000      27.222811       740.7704 
 564   0.0000      27.453416       747.0454 
 565   0.0000      27.549292       749.6544 
 566   0.0000      27.649378       752.3778 
 567   0.0000      27.850600       757.8534 
 568   0.0000      27.876681       758.5630 
 569   0.0000      28.058970       763.5234 
 570   0.0000      28.071548       763.8657 
 571   0.0000      28.295559       769.9613 
 572   0.0000      28.648592       779.5678 
 573   0.0000      29.399600       800.0038 
 574   0.0000      29.914985       814.0281 
 575   0.0000      30.751972       836.8037 
 576   0.0000      32.280020       878.3840 
 577   0.0000      44.388441      1207.8709 
 578   0.0000      44.489050      1210.6086 
 579   0.0000      44.537254      1211.9203 
 580   0.0000      44.545041      1212.1322 
 581   0.0000      44.576231      1212.9809 
 582   0.0000      44.607317      1213.8268 
 583   0.0000      44.641409      1214.7545 
 584   0.0000      44.647013      1214.9070 
 585   0.0000      44.655368      1215.1343 
 586   0.0000      44.678435      1215.7620 
 587   0.0000      44.682125      1215.8624 
 588   0.0000      44.698539      1216.3091 
 589   0.0000      44.738842      1217.4058 
 590   0.0000      44.763211      1218.0689 
 591   0.0000     205.251469      5585.1764 
 592   0.0000     205.292445      5586.2914 
 593   0.0000     205.310731      5586.7890 
 594   0.0000     205.315415      5586.9165 
 595   0.0000     205.328936      5587.2844 
 596   0.0000     205.343678      5587.6855 
 597   0.0000     205.359284      5588.1102 
 598   0.0000     205.360774      5588.1507 
 599   0.0000     205.362109      5588.1871 
 600   0.0000     205.373241      5588.4900 
 601   0.0000     205.373292      5588.4914 
 602   0.0000     205.379297      5588.6548 
 603   0.0000     205.394072      5589.0568 
 604   0.0000     205.396157      5589.1136 

                 SPIN DOWN ORBITALS
  NO   OCC          E(Eh)            E(eV) 
   0   1.0000    -255.651136     -6956.6211 
   1   1.0000     -29.870110      -812.8070 
   2   1.0000     -25.721162      -699.9084 
   3   1.0000     -25.720074      -699.8788 
   4   1.0000     -25.716869      -699.7916 
   5   1.0000      -4.130631      -112.4002 
   6   1.0000      -4.124899      -112.2442 
   7   1.0000      -4.124738      -112.2398 
   8   1.0000      -4.121797      -112.1598 
   9   1.0000      -4.121773      -112.1591 
  10   1.0000      -4.120501      -112.1245 
  11   1.0000      -4.115678      -111.9933 
  12   1.0000      -4.115597      -111.9911 
  13   1.0000      -4.114176      -111.9524 
  14   1.0000      -4.114088      -111.9500 
  15   1.0000      -4.113007      -111.9206 
  16   1.0000      -4.112956      -111.9192 
  17   1.0000      -4.112836      -111.9159 
  18   1.0000      -4.112736      -111.9132 
  19   1.0000      -3.354998       -91.2941 
  20   1.0000      -2.318708       -63.0953 
  21   1.0000      -2.316711       -63.0409 
  22   1.0000      -2.315405       -63.0054 
  23   1.0000      -2.314783       -62.9885 
  24   1.0000      -2.314379       -62.9774 
  25   1.0000      -2.310306       -62.8666 
  26   1.0000      -2.310289       -62.8662 
  27   1.0000      -2.310104       -62.8611 
  28   1.0000      -2.308511       -62.8178 
  29   1.0000      -2.308390       -62.8145 
  30   1.0000      -2.307926       -62.8019 
  31   1.0000      -2.307756       -62.7972 
  32   1.0000      -2.307615       -62.7934 
  33   1.0000      -2.307463       -62.7893 
  34   1.0000      -2.305834       -62.7449 
  35   1.0000      -2.304727       -62.7148 
  36   1.0000      -2.304669       -62.7132 
  37   1.0000      -2.303683       -62.6864 
  38   1.0000      -2.303554       -62.6829 
  39   1.0000      -2.302343       -62.6499 
  40   1.0000      -2.302099       -62.6433 
  41   1.0000      -2.301334       -62.6225 
  42   1.0000      -2.301188       -62.6185 
  43   1.0000      -2.301053       -62.6148 
  44   1.0000      -2.300858       -62.6095 
  45   1.0000      -2.300214       -62.5920 
  46   1.0000      -2.299902       -62.5835 
  47   1.0000      -2.299828       -62.5815 
  48   1.0000      -2.299687       -62.5777 
  49   1.0000      -2.299594       -62.5751 
  50   1.0000      -2.299375       -62.5692 
  51   1.0000      -2.299185       -62.5640 
  52   1.0000      -2.298916       -62.5567 
  53   1.0000      -2.298615       -62.5485 
  54   1.0000      -2.298540       -62.5465 
  55   1.0000      -2.298193       -62.5370 
  56   1.0000      -2.297912       -62.5294 
  57   1.0000      -2.296435       -62.4892 
  58   1.0000      -2.296066       -62.4791 
  59   1.0000      -2.295888       -62.4743 
  60   1.0000      -2.295469       -62.4629 
  61   1.0000      -2.295311       -62.4586 
  62   1.0000      -2.125073       -57.8262 
  63   1.0000      -2.123562       -57.7850 
  64   1.0000      -2.117475       -57.6194 
  65   1.0000      -0.439892       -11.9701 
  66   1.0000      -0.399913       -10.8822 
  67   1.0000      -0.394664       -10.7394 
  68   1.0000      -0.393391       -10.7047 
  69   1.0000      -0.383988       -10.4489 
  70   1.0000      -0.378947       -10.3117 
  71   1.0000      -0.375231       -10.2106 
  72   1.0000      -0.372736       -10.1427 
  73   1.0000      -0.370363       -10.0781 
  74   1.0000      -0.369286       -10.0488 
  75   1.0000      -0.367511       -10.0005 
  76   1.0000      -0.362684        -9.8691 
  77   1.0000      -0.361887        -9.8474 
  78   1.0000      -0.360883        -9.8201 
  79   1.0000      -0.359092        -9.7714 
  80   1.0000      -0.356464        -9.6999 
  81   1.0000      -0.355632        -9.6773 
  82   1.0000      -0.353049        -9.6069 
  83   1.0000      -0.348875        -9.4934 
  84   1.0000      -0.345914        -9.4128 
  85   1.0000      -0.344552        -9.3757 
  86   1.0000      -0.343690        -9.3523 
  87   1.0000      -0.339420        -9.2361 
  88   1.0000      -0.337095        -9.1728 
  89   1.0000      -0.335358        -9.1256 
  90   1.0000      -0.335046        -9.1171 
  91   1.0000      -0.328734        -8.9453 
  92   1.0000      -0.327237        -8.9046 
  93   1.0000      -0.327124        -8.9015 
  94   1.0000      -0.321790        -8.7563 
  95   1.0000      -0.318430        -8.6649 
  96   1.0000      -0.316304        -8.6071 
  97   1.0000      -0.314727        -8.5642 
  98   1.0000      -0.312992        -8.5169 
  99   1.0000      -0.306164        -8.3311 
 100   1.0000      -0.305467        -8.3122 
 101   1.0000      -0.302902        -8.2424 
 102   1.0000      -0.302516        -8.2319 
 103   1.0000      -0.297714        -8.1012 
 104   1.0000      -0.295542        -8.0421 
 105   1.0000      -0.295106        -8.0302 
 106   1.0000      -0.293156        -7.9772 
 107   1.0000      -0.291643        -7.9360 
 108   1.0000      -0.289284        -7.8718 
 109   1.0000      -0.288498        -7.8504 
 110   1.0000      -0.286209        -7.7881 
 111   1.0000      -0.286074        -7.7845 
 112   1.0000      -0.283565        -7.7162 
 113   1.0000      -0.282876        -7.6974 
 114   1.0000      -0.281839        -7.6692 
 115   1.0000      -0.278501        -7.5784 
 116   1.0000      -0.277033        -7.5384 
 117   1.0000      -0.276858        -7.5337 
 118   1.0000      -0.276399        -7.5212 
 119   1.0000      -0.274124        -7.4593 
 120   1.0000      -0.273543        -7.4435 
 121   1.0000      -0.272421        -7.4129 
 122   1.0000      -0.271825        -7.3967 
 123   1.0000      -0.268391        -7.3033 
 124   1.0000      -0.267483        -7.2786 
 125   1.0000      -0.263717        -7.1761 
 126   1.0000      -0.262738        -7.1495 
 127   1.0000      -0.262466        -7.1421 
 128   1.0000      -0.259886        -7.0719 
 129   1.0000      -0.259297        -7.0558 
 130   1.0000      -0.255443        -6.9510 
 131   1.0000      -0.255136        -6.9426 
 132   1.0000      -0.253089        -6.8869 
 133   1.0000      -0.252589        -6.8733 
 134   1.0000      -0.250555        -6.8179 
 135   1.0000      -0.250123        -6.8062 
 136   1.0000      -0.249383        -6.7860 
 137   1.0000      -0.247273        -6.7286 
 138   1.0000      -0.235129        -6.3982 
 139   1.0000      -0.223396        -6.0789 
 140   1.0000      -0.214408        -5.8343 
 141   1.0000      -0.207733        -5.6527 
 142   1.0000      -0.206202        -5.6111 
 143   1.0000      -0.195894        -5.3305 
 144   0.0000      -0.167144        -4.5482 
 145   0.0000      -0.158401        -4.3103 
 146   0.0000      -0.157648        -4.2898 
 147   0.0000      -0.146375        -3.9831 
 148   0.0000      -0.144519        -3.9326 
 149   0.0000      -0.136220        -3.7067 
 150   0.0000      -0.123274        -3.3545 
 151   0.0000      -0.121946        -3.3183 
 152   0.0000      -0.107954        -2.9376 
 153   0.0000      -0.102370        -2.7856 
 154   0.0000      -0.098901        -2.6912 
 155   0.0000      -0.063844        -1.7373 
 156   0.0000      -0.058918        -1.6032 
 157   0.0000      -0.055635        -1.5139 
 158   0.0000      -0.054233        -1.4758 
 159   0.0000      -0.050519        -1.3747 
 160   0.0000      -0.025606        -0.6968 
 161   0.0000      -0.023536        -0.6404 
 162   0.0000      -0.015002        -0.4082 
 163   0.0000      -0.011189        -0.3045 
 164   0.0000       0.000910         0.0247 
 165   0.0000       0.018454         0.5022 
 166   0.0000       0.021821         0.5938 
 167   0.0000       0.031055         0.8450 
 168   0.0000       0.033290         0.9059 
 169   0.0000       0.041055         1.1172 
 170   0.0000       0.045669         1.2427 
 171   0.0000       0.051111         1.3908 
 172   0.0000       0.051617         1.4046 
 173   0.0000       0.056792         1.5454 
 174   0.0000       0.063036         1.7153 
 175   0.0000       0.074315         2.0222 
 176   0.0000       0.076348         2.0775 
 177   0.0000       0.078134         2.1261 
 178   0.0000       0.080728         2.1967 
 179   0.0000       0.082939         2.2569 
 180   0.0000       0.088049         2.3959 
[...]
      f-1     :     0.000699
      f+2     :     0.000665
      f-2     :     0.000679
      f+3     :     0.000751
      f-3     :     0.000963
  5 Aus       :     2.653564  s :     2.653564
      pz      :     2.107035  p :     6.361516
      px      :     2.116836
      py      :     2.137644
      dz2     :     1.982347  d :     9.897548
      dxz     :     1.968448
      dyz     :     1.976994
      dx2y2   :     1.992401
      dxy     :     1.977358
      f0      :     0.000571  f :     0.004976
      f+1     :     0.000770
      f-1     :     0.000490
      f+2     :     0.000890
      f-2     :     0.000702
      f+3     :     0.000624
      f-3     :     0.000928
  6 Aus       :     2.513794  s :     2.513794
      pz      :     2.092146  p :     6.601440
      px      :     2.231867
      py      :     2.277427
      dz2     :     1.971612  d :     9.903000
      dxz     :     1.996625
      dyz     :     1.980817
      dx2y2   :     1.973824
      dxy     :     1.980122
      f0      :     0.000781  f :     0.007113
      f+1     :     0.000605
      f-1     :     0.000910
      f+2     :     0.001049
      f-2     :     0.001032
      f+3     :     0.001197
      f-3     :     0.001540
  7 Aus       :     2.611254  s :     2.611254
      pz      :     2.206458  p :     6.435948
      px      :     2.082473
      py      :     2.147018
      dz2     :     1.968419  d :     9.869928
      dxz     :     1.993719
      dyz     :     1.973929
      dx2y2   :     1.950296
      dxy     :     1.983564
      f0      :     0.000727  f :     0.005417
      f+1     :     0.000920
      f-1     :     0.000627
      f+2     :     0.000860
      f-2     :     0.001019
      f+3     :     0.000625
      f-3     :     0.000639
  8 Aus       :     2.653346  s :     2.653346
      pz      :     2.140980  p :     6.361499
      px      :     2.100655
      py      :     2.119864
      dz2     :     1.984387  d :     9.897482
      dxz     :     1.985299
      dyz     :     1.961992
      dx2y2   :     1.980539
      dxy     :     1.985265
      f0      :     0.000604  f :     0.004990
      f+1     :     0.000741
      f-1     :     0.000919
      f+2     :     0.000874
      f-2     :     0.000512
      f+3     :     0.000528
      f-3     :     0.000811
  9 Aus       :     2.490023  s :     2.490023
      pz      :     2.191261  p :     6.629740
      px      :     2.222950
      py      :     2.215530
      dz2     :     1.996987  d :     9.917249
      dxz     :     1.992289
      dyz     :     1.974162
      dx2y2   :     1.984814
      dxy     :     1.968997
      f0      :     0.000761  f :     0.006830
      f+1     :     0.000960
      f-1     :     0.000887
      f+2     :     0.001033
      f-2     :     0.001086
      f+3     :     0.000867
      f-3     :     0.001236
 10 Aus       :     2.614009  s :     2.614009
      pz      :     2.098361  p :     6.454787
      px      :     2.214039
      py      :     2.142386
      dz2     :     1.985247  d :     9.871339
      dxz     :     1.973544
      dyz     :     1.956121
      dx2y2   :     1.972135
      dxy     :     1.984291
      f0      :     0.000571  f :     0.005326
      f+1     :     0.000664
      f-1     :     0.000655
      f+2     :     0.000793
      f-2     :     0.000814
      f+3     :     0.000784
      f-3     :     0.001043
 11 Aus       :     2.556527  s :     2.556527
      pz      :     2.109213  p :     6.484780
      px      :     2.157174
      py      :     2.218394
      dz2     :     1.969750  d :     9.891612
      dxz     :     1.966777
      dyz     :     1.998183
      dx2y2   :     1.970975
      dxy     :     1.985926
      f0      :     0.000763  f :     0.005872
      f+1     :     0.000934
      f-1     :     0.000860
      f+2     :     0.001012
      f-2     :     0.000670
      f+3     :     0.000621
      f-3     :     0.001010
 12 Aus       :     2.511101  s :     2.511101
      pz      :     2.101972  p :     6.572086
      px      :     2.193440
      py      :     2.276674
      dz2     :     1.974814  d :     9.898827
      dxz     :     1.965626
      dyz     :     1.990740
      dx2y2   :     1.991446
      dxy     :     1.976201
      f0      :     0.000705  f :     0.006230
      f+1     :     0.000653
      f-1     :     0.000938
      f+2     :     0.000904
      f-2     :     0.000761
      f+3     :     0.000822
      f-3     :     0.001446
 13 Aus       :     2.613812  s :     2.613812
      pz      :     2.208635  p :     6.454743
      px      :     2.129098
      py      :     2.117011
      dz2     :     1.957996  d :     9.871590
      dxz     :     1.980883
      dyz     :     1.994914
      dx2y2   :     1.984192
      dxy     :     1.953606
      f0      :     0.000822  f :     0.005318
      f+1     :     0.000567
      f-1     :     0.001035
      f+2     :     0.000867
      f-2     :     0.000612
      f+3     :     0.000735
      f-3     :     0.000679
 14 Fes       :     6.262505  s :     6.262505
      pz      :     4.201704  p :    12.564932
      px      :     4.198112
      py      :     4.165117
      dz2     :     1.657462  d :     7.677405
      dxz     :     1.509957
      dyz     :     1.342573
      dx2y2   :     1.775886
      dxy     :     1.391527
      f0      :     0.000059  f :     0.000535
      f+1     :     0.000102
      f-1     :     0.000079
      f+2     :     0.000061
      f-2     :     0.000073
      f+3     :     0.000093
      f-3     :     0.000067

SPIN
  0 Aus       :    -0.057278  s :    -0.057278
      pz      :    -0.004733  p :    -0.007144
      px      :     0.001851
      py      :    -0.004262
      dz2     :    -0.001105  d :     0.012291
      dxz     :    -0.001164
      dyz     :    -0.002506
      dx2y2   :     0.014752
      dxy     :     0.002314
      f0      :     0.000000  f :     0.000084
      f+1     :     0.000020
      f-1     :    -0.000002
      f+2     :     0.000028
      f-2     :    -0.000009
      f+3     :     0.000052
      f-3     :    -0.000005
  1 Aus       :    -0.046768  s :    -0.046768
      pz      :    -0.007772  p :    -0.105314
      px      :    -0.047385
      py      :    -0.050157
      dz2     :    -0.000301  d :    -0.011316
      dxz     :     0.007048
      dyz     :    -0.003557
      dx2y2   :    -0.007278
      dxy     :    -0.007229
      f0      :    -0.000007  f :    -0.000114
      f+1     :     0.000034
      f-1     :    -0.000009
      f+2     :    -0.000022
      f-2     :    -0.000062
      f+3     :    -0.000019
      f-3     :    -0.000030
  2 Aus       :    -0.081663  s :    -0.081663
      pz      :     0.007391  p :    -0.004232
      px      :    -0.014484
      py      :     0.002862
      dz2     :    -0.006687  d :    -0.017821
      dxz     :     0.000793
      dyz     :    -0.005580
      dx2y2   :    -0.009417
      dxy     :     0.003071
      f0      :     0.000001  f :     0.000018
      f+1     :    -0.000000
      f-1     :     0.000016
      f+2     :    -0.000006
      f-2     :     0.000014
      f+3     :    -0.000018
      f-3     :     0.000011
  3 Aus       :    -0.030012  s :    -0.030012
      pz      :    -0.023941  p :    -0.065966
      px      :    -0.020322
      py      :    -0.021704
      dz2     :    -0.007362  d :    -0.000225
      dxz     :     0.006247
      dyz     :     0.005079
      dx2y2   :    -0.007847
      dxy     :     0.003657
      f0      :    -0.000004  f :    -0.000029
      f+1     :     0.000022
      f-1     :     0.000023
      f+2     :    -0.000022
      f-2     :     0.000029
      f+3     :    -0.000061
      f-3     :    -0.000016
  4 Aus       :    -0.001586  s :    -0.001586
      pz      :    -0.022914  p :    -0.051379
      px      :    -0.009697
      py      :    -0.018768
      dz2     :    -0.008521  d :    -0.023025
      dxz     :    -0.001652
      dyz     :    -0.007552
      dx2y2   :    -0.002068
      dxy     :    -0.003231
      f0      :    -0.000002  f :    -0.000091
      f+1     :    -0.000019
      f-1     :    -0.000012
      f+2     :    -0.000005
      f-2     :    -0.000049
      f+3     :    -0.000002
      f-3     :    -0.000001
  5 Aus       :     0.005867  s :     0.005867
      pz      :    -0.027834  p :    -0.050589
      px      :     0.001279
      py      :    -0.024034
      dz2     :    -0.002156  d :    -0.050878
      dxz     :    -0.027289
      dyz     :    -0.011445
      dx2y2   :    -0.001194
      dxy     :    -0.008793
      f0      :    -0.000006  f :    -0.000162
      f+1     :    -0.000009
      f-1     :     0.000000
      f+2     :    -0.000078
      f-2     :    -0.000035
      f+3     :    -0.000015
      f-3     :    -0.000019
  6 Aus       :    -0.082493  s :    -0.082493
      pz      :    -0.008047  p :    -0.004277
      px      :     0.005911
      py      :    -0.002141
      dz2     :     0.006700  d :    -0.017710
      dxz     :     0.000956
      dyz     :     0.004802
      dx2y2   :    -0.019630
      dxy     :    -0.010539
      f0      :    -0.000030  f :     0.000016
      f+1     :     0.000016
      f-1     :     0.000032
      f+2     :    -0.000012
      f-2     :     0.000013
      f+3     :    -0.000002
      f-3     :     0.000001
  7 Aus       :    -0.031249  s :    -0.031249
      pz      :    -0.031441  p :    -0.065358
      px      :    -0.001208
      py      :    -0.032709
      dz2     :     0.002348  d :    -0.000249
      dxz     :    -0.010765
      dyz     :    -0.001538
      dx2y2   :     0.010764
      dxy     :    -0.001059
      f0      :    -0.000034  f :    -0.000029
      f+1     :     0.000023
      f-1     :    -0.000044
      f+2     :    -0.000033
      f-2     :    -0.000012
      f+3     :     0.000064
      f-3     :     0.000006
  8 Aus       :     0.006091  s :     0.006091
      pz      :    -0.009363  p :    -0.050531
      px      :    -0.024310
      py      :    -0.016858
      dz2     :    -0.009535  d :    -0.050818
      dxz     :    -0.002424
      dyz     :    -0.018101
      dx2y2   :    -0.013436
      dxy     :    -0.007320
      f0      :    -0.000026  f :    -0.000162
      f+1     :    -0.000003
      f-1     :    -0.000077
      f+2     :    -0.000013
      f-2     :    -0.000009
      f+3     :    -0.000003
      f-3     :    -0.000033
  9 Aus       :    -0.057491  s :    -0.057491
      pz      :    -0.003586  p :    -0.048391
      px      :    -0.013701
      py      :    -0.031104
      dz2     :    -0.001653  d :    -0.002343
      dxz     :    -0.001867
      dyz     :    -0.002092
      dx2y2   :     0.005252
      dxy     :    -0.001983
      f0      :    -0.000007  f :    -0.000001
      f+1     :    -0.000004
      f-1     :     0.000002
      f+2     :     0.000033
      f-2     :    -0.000037
      f+3     :     0.000008
      f-3     :     0.000004
 10 Aus       :    -0.015403  s :    -0.015403
      pz      :    -0.018555  p :    -0.026945
      px      :     0.002663
      py      :    -0.011053
      dz2     :    -0.003198  d :    -0.006766
      dxz     :     0.001686
      dyz     :     0.003202
      dx2y2   :    -0.011120
      dxy     :     0.002664
      f0      :    -0.000011  f :    -0.000014
      f+1     :    -0.000022
      f-1     :    -0.000007
      f+2     :     0.000026
      f-2     :     0.000030
      f+3     :    -0.000023
      f-3     :    -0.000007
 11 Aus       :     0.017607  s :     0.017607
      pz      :    -0.003488  p :    -0.032906
      px      :    -0.025967
      py      :    -0.003451
      dz2     :    -0.001408  d :    -0.008561
      dxz     :     0.000635
      dyz     :     0.000272
      dx2y2   :    -0.007049
      dxy     :    -0.001011
      f0      :    -0.000008  f :    -0.000046
      f+1     :     0.000010
      f-1     :    -0.000002
      f+2     :    -0.000018
      f-2     :    -0.000002
      f+3     :    -0.000003
      f-3     :    -0.000021
 12 Aus       :    -0.056887  s :    -0.056887
      pz      :    -0.011205  p :    -0.007438
      px      :     0.002785
      py      :     0.000981
      dz2     :     0.003720  d :     0.012427
      dxz     :     0.007075
      dyz     :     0.003364
      dx2y2   :     0.001490
      dxy     :    -0.003222
      f0      :     0.000031  f :     0.000083
      f+1     :     0.000034
      f-1     :     0.000014
      f+2     :     0.000009
      f-2     :     0.000011
      f+3     :    -0.000007
      f-3     :    -0.000009
 13 Aus       :    -0.015922  s :    -0.015922
      pz      :    -0.000319  p :    -0.026745
      px      :    -0.021209
      py      :    -0.005217
      dz2     :    -0.004422  d :    -0.006358
      dxz     :    -0.001389
      dyz     :    -0.000052
      dx2y2   :     0.000554
      dxy     :    -0.001048
      f0      :    -0.000046  f :    -0.000013
      f+1     :     0.000002
      f-1     :    -0.000005
      f+2     :    -0.000010
      f-2     :    -0.000014
      f+3     :     0.000089
      f-3     :    -0.000028
 14 Fes       :     0.010185  s :     0.010185
      pz      :     0.005064  p :     0.011339
      px      :     0.005616
      py      :     0.000659
      dz2     :     0.489642  d :     3.144670
      dxz     :     0.687156
      dyz     :     0.843857
      dx2y2   :     0.360349
      dxy     :     0.763667
      f0      :    -0.000004  f :     0.000021
      f+1     :     0.000004
      f-1     :     0.000010
      f+2     :    -0.000007
      f-2     :     0.000003
      f+3     :     0.000002
      f-3     :     0.000012


                      *****************************
                      * MAYER POPULATION ANALYSIS *
                      *****************************

  NA   - Mulliken gross atomic population
  ZA   - Total nuclear charge
  QA   - Mulliken gross atomic charge
  VA   - Mayer's total valence
  BVA  - Mayer's bonded valence
  FA   - Mayer's free valence

  ATOM       NA         ZA         QA         VA         BVA        FA
  0 Au    18.9138    19.0000     0.0862     1.8197     1.7997     0.0199
  1 Au    18.6902    19.0000     0.3098     1.5020     1.4733     0.0287
  2 Au    19.1247    19.0000    -0.1247     1.9856     1.9425     0.0430
  3 Au    18.7290    19.0000     0.2710     1.4512     1.4385     0.0128
  4 Au    18.8039    19.0000     0.1961     1.5426     1.5385     0.0041
  5 Au    18.6982    19.0000     0.3018     1.4972     1.4906     0.0066
  6 Au    19.1223    19.0000    -0.1223     1.9819     1.9381     0.0437
  7 Au    18.7272    19.0000     0.2728     1.4509     1.4379     0.0130
  8 Au    18.6972    19.0000     0.3028     1.4973     1.4907     0.0065
  9 Au    19.2495    19.0000    -0.2495     2.0717     2.0539     0.0179
 10 Au    18.7053    19.0000     0.2947     1.5009     1.4981     0.0028
 11 Au    18.7873    19.0000     0.2127     1.5642     1.5592     0.0050
 12 Au    18.9163    19.0000     0.0837     1.8212     1.8014     0.0198
 13 Au    18.7052    19.0000     0.2948     1.4998     1.4970     0.0028
 14 Fe    28.1300    26.0000    -2.1300     7.7247     5.0107     2.7140

  Mayer bond orders larger than 0.100000
B(  0-Au,  3-Au) :   0.1845 B(  0-Au,  5-Au) :   0.3347 B(  0-Au,  6-Au) :   0.1204 
B(  0-Au,  9-Au) :   0.1697 B(  0-Au, 11-Au) :   0.1381 B(  0-Au, 13-Au) :   0.1974 
B(  0-Au, 14-Fe) :   0.4677 B(  1-Au,  2-Au) :   0.2437 B(  1-Au,  3-Au) :   0.1316 
B(  1-Au,  6-Au) :   0.2426 B(  1-Au,  7-Au) :   0.1328 B(  1-Au, 14-Fe) :   0.4647 
B(  2-Au,  4-Au) :   0.2789 B(  2-Au,  6-Au) :   0.2142 B(  2-Au,  7-Au) :   0.1746 
B(  2-Au,  8-Au) :   0.2663 B(  2-Au, 12-Au) :   0.1205 B(  2-Au, 14-Fe) :   0.4496 
B(  3-Au,  6-Au) :   0.1744 B(  3-Au, 13-Au) :   0.2501 B(  3-Au, 14-Fe) :   0.4450 
B(  4-Au,  5-Au) :   0.2338 B(  4-Au,  6-Au) :   0.2771 B(  4-Au,  8-Au) :   0.2339 
B(  4-Au,  9-Au) :   0.2096 B(  5-Au,  6-Au) :   0.2675 B(  5-Au,  9-Au) :   0.2950 
B(  6-Au, 14-Fe) :   0.4473 B(  7-Au, 10-Au) :   0.2501 B(  7-Au, 12-Au) :   0.1844 
B(  7-Au, 14-Fe) :   0.4435 B(  8-Au,  9-Au) :   0.2946 B(  8-Au, 12-Au) :   0.3367 
B(  9-Au, 11-Au) :   0.2963 B(  9-Au, 12-Au) :   0.1686 B(  9-Au, 14-Fe) :   0.3887 
B( 10-Au, 11-Au) :   0.1434 B( 10-Au, 12-Au) :   0.1997 B( 10-Au, 13-Au) :   0.2550 
B( 10-Au, 14-Fe) :   0.3698 B( 11-Au, 12-Au) :   0.1369 B( 11-Au, 13-Au) :   0.1436 
B( 11-Au, 14-Fe) :   0.4622 B( 12-Au, 14-Fe) :   0.4673 B( 13-Au, 14-Fe) :   0.3705 


-------
TIMINGS
-------

Total SCF time: 0 days 0 hours 8 min 11 sec 

Total time                  ....     491.854 sec
Sum of individual times     ....     484.541 sec  ( 98.5%)

Fock matrix formation       ....     394.552 sec  ( 80.2%)
  Split-RI-J                ....      81.854 sec  ( 20.7% of F)
  XC integration            ....     306.161 sec  ( 77.6% of F)
    Basis function eval.    ....      18.923 sec  (  6.2% of XC)
    Density eval.           ....     174.509 sec  ( 57.0% of XC)
    XC-Functional eval.     ....       8.868 sec  (  2.9% of XC)
    XC-Potential eval.      ....      95.876 sec  ( 31.3% of XC)
Diagonalization             ....      60.630 sec  ( 12.3%)
Density matrix formation    ....       1.267 sec  (  0.3%)
Population analysis         ....       0.572 sec  (  0.1%)
Initial guess               ....       0.677 sec  (  0.1%)
Orbital Transformation      ....       0.000 sec  (  0.0%)
Orbital Orthonormalization  ....       0.603 sec  (  0.1%)
DIIS solution               ....      24.402 sec  (  5.0%)
Grid generation             ....       2.440 sec  (  0.5%)

Maximum memory used throughout the entire SCF-calculation: 96.0 MB

-------------------------   --------------------
FINAL SINGLE POINT ENERGY     -3165.548969746030
-------------------------   --------------------


                            ***************************************
                            *     ORCA property calculations      *
                            ***************************************

                                    ---------------------
                                    Active property flags
                                    ---------------------
   (+) Dipole Moment


------------------------------------------------------------------------------
                       ORCA ELECTRIC PROPERTIES CALCULATION
------------------------------------------------------------------------------

Dipole Moment Calculation                       ... on
Quadrupole Moment Calculation                   ... off
Polarizability Calculation                      ... off
GBWName                                         ... scan_job2.gbw
Electron density                                ... scan_job2.scfp
The origin for moment calculation is the CENTER OF MASS  = (15.048491, 15.788515 14.038063)

-------------
DIPOLE MOMENT
-------------
                                X             Y             Z
Electronic contribution:     -5.17797      25.71603       0.23180
Nuclear contribution   :      5.19396     -25.76953      -0.22345
                        -----------------------------------------
Total Dipole Moment    :      0.01599      -0.05350       0.00835
                        -----------------------------------------
Magnitude (a.u.)       :      0.05646
Magnitude (Debye)      :      0.14351



--------------------
Rotational spectrum 
--------------------
 
Rotational constants in cm-1:     0.001155     0.001045     0.000935 
Rotational constants in MHz :    34.613255    31.321433    28.035191 

 Dipole components along the rotational axes: 
x,y,z [a.u.] :    -0.048722    -0.000262     0.028526 
x,y,z [Debye]:    -0.123842    -0.000666     0.072507 

 

Timings for individual modules:

Sum of individual times         ...      517.054 sec (=   8.618 min)
GTO integral calculation        ...       24.753 sec (=   0.413 min)   4.8 %
SCF iterations                  ...      492.301 sec (=   8.205 min)  95.2 %



                             ****ORCA TERMINATED NORMALLY****
TOTAL RUN TIME: 0 days 0 hours 16 minutes 28 seconds 645 msec
