
                                 *****************
                                 * O   R   C   A *
                                 *****************

                                            #,                                       
                                            ###                                      
                                            ####                                     
                                            #####                                    
                                            ######                                   
                                           ########,                                 
                                     ,,################,,,,,                         
                               ,,#################################,,                 
                          ,,##########################################,,             
                       ,#########################################, ''#####,          
                    ,#############################################,,   '####,        
                  ,##################################################,,,,####,       
                ,###########''''           ''''###############################       
              ,#####''   ,,,,##########,,,,          '''####'''          '####       
            ,##' ,,,,###########################,,,                        '##       
           ' ,,###''''                  '''############,,,                           
         ,,##''                                '''############,,,,        ,,,,,,###''
      ,#''                                            '''#######################'''  
     '                                                          ''''####''''         
             ,#######,   #######,   ,#######,      ##                                
            ,#'     '#,  ##    ##  ,#'     '#,    #''#        ######   ,####,        
            ##       ##  ##   ,#'  ##            #'  '#       #        #'  '#        
            ##       ##  #######   ##           ,######,      #####,   #    #        
            '#,     ,#'  ##    ##  '#,     ,#' ,#      #,         ##   #,  ,#        
             '#######'   ##     ##  '#######'  #'      '#     #####' # '####'        



                  #######################################################
                  #                        -***-                        #
                  #          Department of theory and spectroscopy      #
                  #    Directorship and core code : Frank Neese         #
                  #        Max Planck Institute fuer Kohlenforschung    #
                  #                Kaiser Wilhelm Platz 1               #
                  #                 D-45470 Muelheim/Ruhr               #
                  #                      Germany                        #
                  #                                                     #
                  #                  All rights reserved                #
                  #                        -***-                        #
                  #######################################################


                         Program Version 5.0.3 -  RELEASE  -


 With contributions from (in alphabetic order):
   Daniel Aravena         : Magnetic Suceptibility
   Michael Atanasov       : Ab Initio Ligand Field Theory (pilot matlab implementation)
   Alexander A. Auer      : GIAO ZORA, VPT2 properties, NMR spectrum
   Ute Becker             : Parallelization
   Giovanni Bistoni       : ED, misc. LED, open-shell LED, HFLD
   Martin Brehm           : Molecular dynamics
   Dmytro Bykov           : SCF Hessian
   Vijay G. Chilkuri      : MRCI spin determinant printing, contributions to CSF-ICE
   Dipayan Datta          : RHF DLPNO-CCSD density
   Achintya Kumar Dutta   : EOM-CC, STEOM-CC
   Dmitry Ganyushin       : Spin-Orbit,Spin-Spin,Magnetic field MRCI
   Miquel Garcia          : C-PCM and meta-GGA Hessian, CC/C-PCM, Gaussian charge scheme
   Yang Guo               : DLPNO-NEVPT2, F12-NEVPT2, CIM, IAO-localization
   Andreas Hansen         : Spin unrestricted coupled pair/coupled cluster methods
   Benjamin Helmich-Paris : MC-RPA, TRAH-SCF, COSX integrals
   Lee Huntington         : MR-EOM, pCC
   Robert Izsak           : Overlap fitted RIJCOSX, COSX-SCS-MP3, EOM
   Marcus Kettner         : VPT2
   Christian Kollmar      : KDIIS, OOCD, Brueckner-CCSD(T), CCSD density, CASPT2, CASPT2-K
   Simone Kossmann        : Meta GGA functionals, TD-DFT gradient, OOMP2, MP2 Hessian
   Martin Krupicka        : Initial AUTO-CI
   Lucas Lang             : DCDCAS
   Marvin Lechner         : AUTO-CI (C++ implementation), FIC-MRCC
   Dagmar Lenk            : GEPOL surface, SMD
   Dimitrios Liakos       : Extrapolation schemes; Compound Job, initial MDCI parallelization
   Dimitrios Manganas     : Further ROCIS development; embedding schemes
   Dimitrios Pantazis     : SARC Basis sets
   Anastasios Papadopoulos: AUTO-CI, single reference methods and gradients
   Taras Petrenko         : DFT Hessian,TD-DFT gradient, ASA, ECA, R-Raman, ABS, FL, XAS/XES, NRVS
   Peter Pinski           : DLPNO-MP2, DLPNO-MP2 Gradient
   Christoph Reimann      : Effective Core Potentials
   Marius Retegan         : Local ZFS, SOC
   Christoph Riplinger    : Optimizer, TS searches, QM/MM, DLPNO-CCSD(T), (RO)-DLPNO pert. Triples
   Tobias Risthaus        : Range-separated hybrids, TD-DFT gradient, RPA, STAB
   Michael Roemelt        : Original ROCIS implementation
   Masaaki Saitow         : Open-shell DLPNO-CCSD energy and density
   Barbara Sandhoefer     : DKH picture change effects
   Avijit Sen             : IP-ROCIS
   Kantharuban Sivalingam : CASSCF convergence, NEVPT2, FIC-MRCI
   Bernardo de Souza      : ESD, SOC TD-DFT
   Georgi Stoychev        : AutoAux, RI-MP2 NMR, DLPNO-MP2 response
   Willem Van den Heuvel  : Paramagnetic NMR
   Boris Wezisla          : Elementary symmetry handling
   Frank Wennmohs         : Technical directorship


 We gratefully acknowledge several colleagues who have allowed us to
 interface, adapt or use parts of their codes:
   Stefan Grimme, W. Hujo, H. Kruse, P. Pracht,  : VdW corrections, initial TS optimization,
                  C. Bannwarth, S. Ehlert          DFT functionals, gCP, sTDA/sTD-DF
   Ed Valeev, F. Pavosevic, A. Kumar             : LibInt (2-el integral package), F12 methods
   Garnet Chan, S. Sharma, J. Yang, R. Olivares  : DMRG
   Ulf Ekstrom                                   : XCFun DFT Library
   Mihaly Kallay                                 : mrcc  (arbitrary order and MRCC methods)
   Jiri Pittner, Ondrej Demel                    : Mk-CCSD
   Frank Weinhold                                : gennbo (NPA and NBO analysis)
   Christopher J. Cramer and Donald G. Truhlar   : smd solvation model
   Lars Goerigk                                  : TD-DFT with DH, B97 family of functionals
   V. Asgeirsson, H. Jonsson                     : NEB implementation
   FAccTs GmbH                                   : IRC, NEB, NEB-TS, DLPNO-Multilevel, CI-OPT
                                                   MM, QMMM, 2- and 3-layer-ONIOM, Crystal-QMMM,
                                                   LR-CPCM, SF, NACMEs, symmetry and pop. for TD-DFT,
                                                   nearIR, NL-DFT gradient (VV10), updates on ESD,
                                                   ML-optimized integration grids
   S Lehtola, MJT Oliveira, MAL Marques          : LibXC Library
   Liviu Ungur et al                             : ANISO software


 Your calculation uses the libint2 library for the computation of 2-el integrals
 For citations please refer to: http://libint.valeyev.net

 Your ORCA version has been built with support for libXC version: 5.1.0
 For citations please refer to: https://tddft.org/programs/libxc/

 This ORCA versions uses:
   CBLAS   interface :  Fast vector & matrix operations
   LAPACKE interface :  Fast linear algebra routines
   SCALAPACK package :  Parallel linear algebra routines
   Shared memory     :  Shared parallel matrices
   BLAS/LAPACK       :  OpenBLAS 0.3.15  USE64BITINT DYNAMIC_ARCH NO_AFFINITY Haswell SINGLE_THREADED
        Core in use  :  Haswell
   Copyright (c) 2011-2014, The OpenBLAS Project




***************************************
The coordinates will be read from file: pbe.xyz
***************************************


================================================================================

cite the ECPs for Au [Def2-ECP] as follows:
Ce-Yb(ecp-28): M. Dolg, H. Stoll, H.Preuss, J. Chem. Phys., 1989, 90, 1730-1734.
Y-Cd(ecp-28), Hf-Hg(ecp-46): D. Andrae,U. Haeussermann, M. Dolg, H. Stoll, H. Preuss, Theor. Chim. Acta, 1990, 77, 123-141.
In-Sb(ecp-28), Tl-Bi(ecp-46): B. Metz, H. Stoll, M. Dolg, J. Chem. Phys., 2000, 113, 2563-2569.
Te-Xe(ecp-28), Po-Rn(ecp-46): K. A. Peterson, D. Figgen, E. Goll, H. Stoll, M. Dolg, J. Chem. Phys., 2003, 119, 11113-11123.
Rb(ecp-28), Cs(ecp-46): T. Leininger, A. Nicklass, W. Kuechle, H. Stoll, M. Dolg, A. Bergner, Chem. Phys. Lett., 1996, 255, 274-280.
Sr(ecp-28), Ba(ecp-46): M. Kaupp, P. V. Schleyer, H. Stoll and H. Preuss, J. Chem. Phys., 1991, 94, 1360-1366.
La(ecp-46): M. Dolg, H. Stoll, A. Savin, H. Preuss, Theor. Chim. Acta, 1989, 75, 173-194.
Lu(ecp-28): X. Cao, M. Dolg, J. Chem. Phys., 2001, 115, 7348-7355.

ECP parameters for Au [Def2-ECP] have been obtained from:
TURBOMOLE (7.0.2)

----- Orbital basis set information -----
Your calculation utilizes the basis: def2-TZVP
   F. Weigend and R. Ahlrichs, Phys. Chem. Chem. Phys. 7, 3297 (2005).

----- AuxJ basis set information -----
Your calculation utilizes the auxiliary basis: def2/J
   F. Weigend, Phys. Chem. Chem. Phys. 8, 1057 (2006).

================================================================================
                                        WARNINGS
                       Please study these warnings very carefully!
================================================================================

Using LibXC functional ID 497 : Re-regularized SCAN exchange by Furness et al
[ 1]  J. W. Furness, A. D. Kaplan, J. Ning, J. P. Perdew, and J. Sun, J. Phys. Chem. Lett. 11, 8208 (2020)
[ 2]  J. W. Furness, A. D. Kaplan, J. Ning, J. P. Perdew, and J. Sun, J. Phys. Chem. Lett. 11, 9248 (2020)
Using LibXC functional ID 498 : Re-regularized SCAN correlation by Furness et al
[ 1]  J. W. Furness, A. D. Kaplan, J. Ning, J. P. Perdew, and J. Sun, J. Phys. Chem. Lett. 11, 8208 (2020)
[ 2]  J. W. Furness, A. D. Kaplan, J. Ning, J. P. Perdew, and J. Sun, J. Phys. Chem. Lett. 11, 9248 (2020)
Using LibXC functional ID 497 : Re-regularized SCAN exchange by Furness et al
[ 1]  J. W. Furness, A. D. Kaplan, J. Ning, J. P. Perdew, and J. Sun, J. Phys. Chem. Lett. 11, 8208 (2020)
[ 2]  J. W. Furness, A. D. Kaplan, J. Ning, J. P. Perdew, and J. Sun, J. Phys. Chem. Lett. 11, 9248 (2020)
Using LibXC functional ID 498 : Re-regularized SCAN correlation by Furness et al
[ 1]  J. W. Furness, A. D. Kaplan, J. Ning, J. P. Perdew, and J. Sun, J. Phys. Chem. Lett. 11, 8208 (2020)
[ 2]  J. W. Furness, A. D. Kaplan, J. Ning, J. P. Perdew, and J. Sun, J. Phys. Chem. Lett. 11, 9248 (2020)

WARNING: your system is open-shell and RHF/RKS was chosen
  ===> : WILL SWITCH to UHF/UKS


INFO   : the flag for use of the SHARK integral package has been found!



***************************************
The coordinates will be read from file: pbe.xyz
***************************************


================================================================================

cite the ECPs for Au [Def2-ECP] as follows:
Ce-Yb(ecp-28): M. Dolg, H. Stoll, H.Preuss, J. Chem. Phys., 1989, 90, 1730-1734.
Y-Cd(ecp-28), Hf-Hg(ecp-46): D. Andrae,U. Haeussermann, M. Dolg, H. Stoll, H. Preuss, Theor. Chim. Acta, 1990, 77, 123-141.
In-Sb(ecp-28), Tl-Bi(ecp-46): B. Metz, H. Stoll, M. Dolg, J. Chem. Phys., 2000, 113, 2563-2569.
Te-Xe(ecp-28), Po-Rn(ecp-46): K. A. Peterson, D. Figgen, E. Goll, H. Stoll, M. Dolg, J. Chem. Phys., 2003, 119, 11113-11123.
Rb(ecp-28), Cs(ecp-46): T. Leininger, A. Nicklass, W. Kuechle, H. Stoll, M. Dolg, A. Bergner, Chem. Phys. Lett., 1996, 255, 274-280.
Sr(ecp-28), Ba(ecp-46): M. Kaupp, P. V. Schleyer, H. Stoll and H. Preuss, J. Chem. Phys., 1991, 94, 1360-1366.
La(ecp-46): M. Dolg, H. Stoll, A. Savin, H. Preuss, Theor. Chim. Acta, 1989, 75, 173-194.
Lu(ecp-28): X. Cao, M. Dolg, J. Chem. Phys., 2001, 115, 7348-7355.

ECP parameters for Au [Def2-ECP] have been obtained from:
TURBOMOLE (7.0.2)

----- Orbital basis set information -----
Your calculation utilizes the basis: def2-TZVP
   F. Weigend and R. Ahlrichs, Phys. Chem. Chem. Phys. 7, 3297 (2005).

----- AuxJ basis set information -----
Your calculation utilizes the auxiliary basis: def2/J
   F. Weigend, Phys. Chem. Chem. Phys. 8, 1057 (2006).

================================================================================
                                        WARNINGS
                       Please study these warnings very carefully!
================================================================================

Using LibXC functional ID 497 : Re-regularized SCAN exchange by Furness et al
[ 1]  J. W. Furness, A. D. Kaplan, J. Ning, J. P. Perdew, and J. Sun, J. Phys. Chem. Lett. 11, 8208 (2020)
[ 2]  J. W. Furness, A. D. Kaplan, J. Ning, J. P. Perdew, and J. Sun, J. Phys. Chem. Lett. 11, 9248 (2020)
Using LibXC functional ID 498 : Re-regularized SCAN correlation by Furness et al
[ 1]  J. W. Furness, A. D. Kaplan, J. Ning, J. P. Perdew, and J. Sun, J. Phys. Chem. Lett. 11, 8208 (2020)
[ 2]  J. W. Furness, A. D. Kaplan, J. Ning, J. P. Perdew, and J. Sun, J. Phys. Chem. Lett. 11, 9248 (2020)
Using LibXC functional ID 497 : Re-regularized SCAN exchange by Furness et al
[ 1]  J. W. Furness, A. D. Kaplan, J. Ning, J. P. Perdew, and J. Sun, J. Phys. Chem. Lett. 11, 8208 (2020)
[ 2]  J. W. Furness, A. D. Kaplan, J. Ning, J. P. Perdew, and J. Sun, J. Phys. Chem. Lett. 11, 9248 (2020)
Using LibXC functional ID 498 : Re-regularized SCAN correlation by Furness et al
[ 1]  J. W. Furness, A. D. Kaplan, J. Ning, J. P. Perdew, and J. Sun, J. Phys. Chem. Lett. 11, 8208 (2020)
[ 2]  J. W. Furness, A. D. Kaplan, J. Ning, J. P. Perdew, and J. Sun, J. Phys. Chem. Lett. 11, 9248 (2020)

INFO   : the flag for use of the SHARK integral package has been found!

================================================================================
                                       INPUT FILE
================================================================================
NAME = scan.inp
|  1> !R2SCAN def2-TZVP VERYSLOWCONV
|  2> !KDIIS
|  3> %scf
|  4>   AutoTRAHIter 200
|  5>   maxiter 400
|  6> end
|  7> 
|  8> %pal nprocs 6 end 
|  9> 
| 10> *xyzfile 0 5 pbe.xyz
| 11> 
| 12> $new_job
| 13> 
| 14> !R2SCAN def2-TZVP VERYSLOWCONV
| 15> !KDIIS
| 16> %scf
| 17>   AutoTRAHIter 200
| 18>   maxiter 400
| 19> end
| 20> 
| 21> 
| 22> %pal nprocs 6 end 
| 23> 
| 24> *xyzfile 0 3 pbe.xyz
| 25> 
| 26> 
| 27> 
| 28> 
| 29> 
| 30>                          ****END OF INPUT****
================================================================================


                 $$$$$$$$$$$$$$$$$$$$$$$$$$$$$$$$$$$$$$$$$$$$$$ 
                 $ THERE ARE  2 JOBS TO BE PROCESSED THIS RUN $
                 $$$$$$$$$$$$$$$$$$$$$$$$$$$$$$$$$$$$$$$$$$$$$$ 




                 $$$$$$$$$$$$$$$$  JOB NUMBER  1 $$$$$$$$$$$$$$


                       ****************************
                       * Single Point Calculation *
                       ****************************

---------------------------------
CARTESIAN COORDINATES (ANGSTROEM)
---------------------------------
  Au     7.052646   10.700714    9.704066
  Au     7.420933    8.978553    5.570170
  Au     7.918355   11.234300    7.123630
  Au     9.987970    9.446073    6.543172
  Au     9.109566    6.809129    6.689849
  Au    10.461272    7.896633    8.861754
  Au     9.819378   10.615543    9.089965
  Au     8.672015    8.749626   10.840933
  Au     5.466146    5.614512    9.280866
  Au     8.214712    6.364495    9.473466
  Au     7.342867    4.742162    7.372827
  Au     6.879041    6.285689    5.077297
  Au     4.742370    8.008860    5.713027
  Au     5.471921   10.017963    7.555115
  Au     3.952388    7.862519    8.435692
  Au     6.026684    8.203389   10.255108
  Cr     6.493007    7.377949    7.595237

----------------------------
CARTESIAN COORDINATES (A.U.)
----------------------------
  NO LB      ZA    FRAG     MASS         X           Y           Z
   0 Au   19.0000*   0   196.966   13.327569   20.221418   18.338027
   1 Au   19.0000*   0   196.966   14.023531   16.967005   10.526096
   2 Au   19.0000*   0   196.966   14.963523   21.229750   13.461711
   3 Au   19.0000*   0   196.966   18.874527   17.850492   12.364804
   4 Au   19.0000*   0   196.966   17.214585   12.867389   12.641983
   5 Au   19.0000*   0   196.966   19.768939   14.922474   16.746289
   6 Au   19.0000*   0   196.966   18.555935   20.060469   17.177544
   7 Au   19.0000*   0   196.966   16.387734   16.534397   20.486395
   8 Au   19.0000*   0   196.966   10.329519   10.609889   17.538295
   9 Au   19.0000*   0   196.966   15.523556   12.027153   17.902256
  10 Au   19.0000*   0   196.966   13.876008    8.961387   13.932623
  11 Au   19.0000*   0   196.966   12.999504   11.878230    9.594700
  12 Au   19.0000*   0   196.966    8.961780   15.134553   10.796057
  13 Au   19.0000*   0   196.966   10.340432   18.931207   14.277098
  14 Au   19.0000*   0   196.966    7.468931   14.858007   15.941147
  15 Au   19.0000*   0   196.966   11.388783   15.502159   19.379345
  16 Cr   24.0000    0    52.000   12.270005   13.942304   14.352918
* core charge reduced due to ECP

--------------------------------
INTERNAL COORDINATES (ANGSTROEM)
--------------------------------
 Au     0   0   0     0.000000000000     0.00000000     0.00000000
 Au     1   0   0     4.493392192117     0.00000000     0.00000000
 Au     1   2   0     2.773592429249    36.12094940     0.00000000
 Au     2   1   3     2.784777539709    71.92646432    64.01287751
 Au     4   2   1     2.783268077397    64.43277853   100.40464832
 Au     5   4   2     2.779738061498    61.12179465   222.91454034
 Au     6   5   4     2.802959078102   109.37499998    34.32102513
 Au     1   2   3     2.778770939986    93.41243484   240.94981553
 Au     5   4   2     4.627633274344   121.50429781   296.89762038
 Au     8   1   2     2.787103224645   107.72932526   325.54901645
 Au    10   8   1     2.793700902355   156.50363222    18.06916630
 Au     2   1   3     2.790714314445   121.09065743   171.34260692
 Au    12   2   1     2.817594727617    61.13613437    70.13450022
 Au     1   2   3     2.753693776255    40.01014319   108.38382796
 Au    14   1   2     2.780348239383   104.99768054   112.45993000
 Au     1   2   3     2.755517123247    82.36521912   181.91779819
 Cr    13  12   2     2.646789292489    60.86269202   289.79545462

---------------------------
INTERNAL COORDINATES (A.U.)
---------------------------
 Au     0   0   0     0.000000000000     0.00000000     0.00000000
 Au     1   0   0     8.491280655401     0.00000000     0.00000000
 Au     1   2   0     5.241330098398    36.12094940     0.00000000
 Au     2   1   3     5.262466893946    71.92646432    64.01287751
 Au     4   2   1     5.259614423565    64.43277853   100.40464832
 Au     5   4   2     5.252943660268    61.12179465   222.91454034
 Au     6   5   4     5.296825022202   109.37499998    34.32102513
 Au     1   2   3     5.251116065472    93.41243484   240.94981553
 Au     5   4   2     8.744959536731   121.50429781   296.89762038
 Au     8   1   2     5.266861801548   107.72932526   325.54901645
 Au    10   8   1     5.279329605540   156.50363222    18.06916630
 Au     2   1   3     5.273685772316   121.09065743   171.34260692
 Au    12   2   1     5.324482391577    61.13613437    70.13450022
 Au     1   2   3     5.203727093806    40.01014319   108.38382796
 Au    14   1   2     5.254096729364   104.99768054   112.45993000
 Au     1   2   3     5.207172720268    82.36521912   181.91779819
 Cr    13  12   2     5.001706896999    60.86269202   289.79545462

---------------------
BASIS SET INFORMATION
---------------------
There are 2 groups of distinct atoms

 Group   1 Type Au  : 8s7p6d1f contracted to 6s4p3d1f pattern {311111/4111/411/1}
 Group   2 Type Cr  : 17s11p7d1f contracted to 6s4p4d1f pattern {842111/6311/4111/1}

Atom   0Au   basis set group =>   1
Atom   1Au   basis set group =>   1
Atom   2Au   basis set group =>   1
Atom   3Au   basis set group =>   1
Atom   4Au   basis set group =>   1
Atom   5Au   basis set group =>   1
Atom   6Au   basis set group =>   1
Atom   7Au   basis set group =>   1
Atom   8Au   basis set group =>   1
Atom   9Au   basis set group =>   1
Atom  10Au   basis set group =>   1
Atom  11Au   basis set group =>   1
Atom  12Au   basis set group =>   1
Atom  13Au   basis set group =>   1
Atom  14Au   basis set group =>   1
Atom  15Au   basis set group =>   1
Atom  16Cr   basis set group =>   2
---------------------------------
AUXILIARY/J BASIS SET INFORMATION
---------------------------------
There are 2 groups of distinct atoms

 Group   1 Type Au  : 11s5p5d3f3g contracted to 8s5p5d2f3g pattern {41111111/11111/11111/21/111}
 Group   2 Type Cr  : 19s5p5d3f3g contracted to 8s5p5d2f3g pattern {121111111/11111/11111/21/111}

Atom   0Au   basis set group =>   1
Atom   1Au   basis set group =>   1
Atom   2Au   basis set group =>   1
Atom   3Au   basis set group =>   1
Atom   4Au   basis set group =>   1
Atom   5Au   basis set group =>   1
Atom   6Au   basis set group =>   1
Atom   7Au   basis set group =>   1
Atom   8Au   basis set group =>   1
Atom   9Au   basis set group =>   1
Atom  10Au   basis set group =>   1
Atom  11Au   basis set group =>   1
Atom  12Au   basis set group =>   1
Atom  13Au   basis set group =>   1
Atom  14Au   basis set group =>   1
Atom  15Au   basis set group =>   1
Atom  16Cr   basis set group =>   2
-------------------------
ECP PARAMETER INFORMATION
-------------------------

 Group 1, Type Au ECP Def2-ECP (replacing 60 core electrons, lmax=3)

Atom   0Au   ECP group =>   1
Atom   1Au   ECP group =>   1
Atom   2Au   ECP group =>   1
Atom   3Au   ECP group =>   1
Atom   4Au   ECP group =>   1
Atom   5Au   ECP group =>   1
Atom   6Au   ECP group =>   1
Atom   7Au   ECP group =>   1
Atom   8Au   ECP group =>   1
Atom   9Au   ECP group =>   1
Atom  10Au   ECP group =>   1
Atom  11Au   ECP group =>   1
Atom  12Au   ECP group =>   1
Atom  13Au   ECP group =>   1
Atom  14Au   ECP group =>   1
Atom  15Au   ECP group =>   1



           ************************************************************
           *        Program running with 6 parallel MPI-processes     *
           *              working on a common directory               *
           ************************************************************
------------------------------------------------------------------------------
                           ORCA GTO INTEGRAL CALCULATION
                           -- RI-GTO INTEGRALS CHOSEN --
------------------------------------------------------------------------------
------------------------------------------------------------------------------
                   ___                                                        
                  /   \      - P O W E R E D   B Y -                         
                 /     \                                                     
                 |  |  |   _    _      __       _____    __    __             
                 |  |  |  | |  | |    /  \     |  _  \  |  |  /  |          
                  \  \/   | |  | |   /    \    | | | |  |  | /  /          
                 / \  \   | |__| |  /  /\  \   | |_| |  |  |/  /          
                |  |  |   |  __  | /  /__\  \  |    /   |      \           
                |  |  |   | |  | | |   __   |  |    \   |  |\   \          
                \     /   | |  | | |  |  |  |  | |\  \  |  | \   \       
                 \___/    |_|  |_| |__|  |__|  |_| \__\ |__|  \__/        
                                                                              
                      - O R C A' S   B I G   F R I E N D -                    
                                      &                                       
                       - I N T E G R A L  F E E D E R -                       
                                                                              
 v1 FN, 2020, v2 2021                                                         
------------------------------------------------------------------------------


Reading SHARK input file scan.SHARKINP.tmp ... ok
----------------------
SHARK INTEGRAL PACKAGE
----------------------

Number of atoms                             ...     17
Number of basis functions                   ...    685
Number of shells                            ...    239
Maximum angular momentum                    ...      3
Integral batch strategy                     ... SHARK/LIBINT Hybrid
RI-J (if used) integral strategy            ... SPLIT-RIJ (Revised 2003 algorithm where possible)
Printlevel                                  ...      1
Contraction scheme used                     ... SEGMENTED contraction
Coulomb Range Separation                    ... NOT USED
Exchange Range Separation                   ... NOT USED
Finite Nucleus Model                        ... NOT USED
Auxiliary Coulomb fitting basis             ... AVAILABLE
   # of basis functions in Aux-J            ...   1513
   # of shells in Aux-J                     ...    391
   Maximum angular momentum in Aux-J        ...      4
Auxiliary J/K fitting basis                 ... NOT available
Auxiliary Correlation fitting basis         ... NOT available
Auxiliary 'external' fitting basis          ... NOT available
Integral threshold                          ...     1.000000e-10
Primitive cut-off                           ...     1.000000e-11
Primitive pair pre-selection threshold      ...     1.000000e-11

Calculating pre-screening integrals         ... done (  0.3 sec) Dimension = 239
Organizing shell pair data                  ... done (  0.8 sec)
Shell pair information
Total number of shell pairs                 ...     28680
Shell pairs after pre-screening             ...     22269
Total number of primitive shell pairs       ...     75765
Primitive shell pairs kept                  ...     42183
          la=0 lb=0:   3522 shell pairs
          la=1 lb=0:   5087 shell pairs
          la=1 lb=1:   1898 shell pairs
          la=2 lb=0:   4433 shell pairs
          la=2 lb=1:   3125 shell pairs
          la=2 lb=2:   1290 shell pairs
          la=3 lb=0:   1149 shell pairs
          la=3 lb=1:    874 shell pairs
          la=3 lb=2:    774 shell pairs
          la=3 lb=3:    117 shell pairs

Calculating one electron integrals          ... done (  0.2 sec)
Calculating ECP integrals                   ... done ( 28.3 sec)
Calculating RI/J V-Matrix + Cholesky decomp.... done (  4.2 sec)
Calculating Nuclear repulsion               ... done (  0.0 sec) ENN=   6915.450195054324 Eh

SHARK setup successfully completed in  35.2 seconds

Maximum memory used throughout the entire GTOINT-calculation: 41.1 MB


           ************************************************************
           *        Program running with 6 parallel MPI-processes     *
           *              working on a common directory               *
           ************************************************************
-------------------------------------------------------------------------------
                                 ORCA SCF
-------------------------------------------------------------------------------

------------
SCF SETTINGS
------------
Hamiltonian:
 Density Functional     Method          .... DFT(GTOs)
  Functional kind                       .... Exchange
  Functional name                       .... Re-regularized SCAN exchange by Furness et al
  Functional family                     .... MGGA
  Functional refs                              
    [ 0] J. W. Furness, A. D. Kaplan, J. Ning, J. P. Perdew, and J. Sun, J. Phys. Chem. Lett. 11, 8208 (2020)
    [ 1] J. W. Furness, A. D. Kaplan, J. Ning, J. P. Perdew, and J. Sun, J. Phys. Chem. Lett. 11, 9248 (2020)
  Functional external parameters         .... 8
 Parameter  0 :         c1 parameter
 Parameter  1 :         c2 parameter
 Parameter  2 :          d parameter
 Parameter  3 :         k1 parameter
 Parameter  4 :       taur parameter
 Parameter  5 :     alphar parameter
 Parameter  6 :        eta parameter
 Parameter  7 :        dp2 parameter
  Functional kind                       .... Correlation
  Functional name                       .... Re-regularized SCAN correlation by Furness et al
  Functional family                     .... MGGA
  Functional refs                              
    [ 0] J. W. Furness, A. D. Kaplan, J. Ning, J. P. Perdew, and J. Sun, J. Phys. Chem. Lett. 11, 8208 (2020)
    [ 1] J. W. Furness, A. D. Kaplan, J. Ning, J. P. Perdew, and J. Sun, J. Phys. Chem. Lett. 11, 9248 (2020)
  Functional external parameters         .... 0
 Gradients option       PostSCFGGA      .... off
   Density functional embedding theory  .... OFF
   NL short-range parameter             .... 12.300000
 RI-approximation to the Coulomb term is turned on
   Number of AuxJ basis functions       .... 1513


General Settings:
 Integral files         IntName         .... scan
 Hartree-Fock type      HFTyp           .... UHF
 Total Charge           Charge          ....    0
 Multiplicity           Mult            ....    5
 Number of Electrons    NEL             ....  328
 Basis Dimension        Dim             ....  685
 Nuclear Repulsion      ENuc            ....   6915.4501950543 Eh

Convergence Acceleration:
 DIIS                   CNVDIIS         .... off
 Trust-Rad. Augm. Hess. CNVTRAH         .... auto
   Auto Start mean grad. ratio tolernc. ....  1.125000
   Auto Start start iteration           ....   200
   Auto Start num. interpolation iter.  ....    10
   Max. Number of Micro iterations      ....    16
   Max. Number of Macro iterations      .... Maxiter - #DIIS iter
   Number of Davidson start vectors     ....     2
   Converg. threshold I  (grad. norm)   ....   5.000e-05
   Converg. threshold II (energy diff.) ....   1.000e-06
   Grad. Scal. Fac. for Micro threshold ....   0.100
   Minimum threshold for Micro iter.    ....   0.010
   NR start threshold (gradient norm)   ....   0.001
   Initial trust radius                 ....   0.400
   Minimum AH scaling param. (alpha)    ....   1.000
   Maximum AH scaling param. (alpha)    .... 1000.000
   Orbital update algorithm             .... Taylor
   White noise on init. David. guess    .... on
   Maximum white noise                  ....   0.010
   Quad. conv. algorithm                .... NR
 SOSCF                  CNVSOSCF        .... off
 Level Shifting         CNVShift        .... off
 Zerner damping         CNVZerner       .... off
 Static damping         CNVDamp         .... off
 Fernandez-Rico         CNVRico         .... off

SCF Procedure:
 Maximum # iterations   MaxIter         ....   400
 SCF integral mode      SCFMode         .... Direct
   Integral package                     .... SHARK and LIBINT hybrid scheme
 Reset frequency        DirectResetFreq ....    20
 Integral Threshold     Thresh          ....  1.000e-10 Eh
 Primitive CutOff       TCut            ....  1.000e-11 Eh

Convergence Tolerance:
 Convergence Check Mode ConvCheckMode   .... All-Criteria
 Convergence forced     ConvForced      .... 0
 Energy Change          TolE            ....  1.000e-06 Eh
 Max Density Change     TolMaxP         ....  1.000e-05
 RMS Density Change     TolRMSP         ....  1.000e-06


Diagonalization of the overlap matrix:
Smallest eigenvalue                        ... 6.851e-05
Time for diagonalization                   ...    0.196 sec
Threshold for overlap eigenvalues          ... 1.000e-08
Number of eigenvalues below threshold      ... 0
Time for construction of square roots      ...    0.497 sec
Total time needed                          ...    1.048 sec

Time for model grid setup =    3.892 sec

------------------------------
INITIAL GUESS: MODEL POTENTIAL
------------------------------
Loading Hartree-Fock densities                     ... done
  calling /media/Programs/ORCA501/orca scan_atom79.inp > scan_atom79.out in order to generate an atomic fitting density for atom 0 (Au with ECP) on-the-fly... 
    atom 0 (Au), assumed electronic state with S=2: 1s2 2s2 2p6 3s2 3p6 4s2 3d10 4p6 5s2 4d10 5p6 6s1 4f14 5d10           ... done
Calculating cut-offs                               ... done
Initializing the effective Hamiltonian             ... done
Setting up the integral package (SHARK)            ... done
Starting the Coulomb interaction                   ... done (   2.5 sec)
Reading the grid                                   ... done
Mapping shells                                     ... done
Starting the XC term evaluation                    ... done (   1.4 sec)
  promolecular density results
     # of electrons  =   1288.016936049
     EX              =  -5900.422285427
     EC              =    -78.555272088
     EX+EC           =  -5978.977557516
Transforming the Hamiltonian                       ... done (   0.5 sec)
Diagonalizing the Hamiltonian                      ... done (   0.9 sec)
Back transforming the eigenvectors                 ... done (   0.1 sec)
Now organizing SCF variables                       ... done
                      ------------------
                      INITIAL GUESS DONE (  11.1 sec)
                      ------------------
-------------------
DFT GRID GENERATION
-------------------

General Integration Accuracy     IntAcc      ... 4.388
Radial Grid Type                 RadialGrid  ... OptM3 with GC (2021)
Angular Grid (max. ang.)         AngularGrid ... 4 (Lebedev-302)
Angular grid pruning method      GridPruning ... 4 (adaptive)
Weight generation scheme         WeightScheme... Becke
Basis function cutoff            BFCut       ... 1.0000e-10
Integration weight cutoff        WCut        ... 1.0000e-14
Angular grids for H and He will be reduced by one unit
Partially contracted basis set               ... off
Rotationally invariant grid construction     ... off

Total number of grid points                  ...   187025
Total number of batches                      ...     2930
Average number of points per batch           ...       63
Average number of grid points per atom       ...    11001
Time for grid setup =    6.752 sec

--------------
SCF ITERATIONS
--------------
ITER       Energy         Delta-E        Max-DP      RMS-DP      [F,P]   Gradient Norm
               ***  Starting incremental Fock matrix formation  ***
                             ****Resetting KDIIS****
                             ****Turning on KDIIS(Cayley)****
  0  -3215.4891623206   0.000000000000 0.38115894  0.00187379  0.4096100   0.224677469
  1  -3216.7999150129  -1.310752692363 1.10041783  0.00306719  0.3665038   0.173481587
  2  -3217.4353248952  -0.635409882253 0.23889614  0.00157720  0.2898242   0.130125775
  3  -3217.7686397119  -0.333314816688 0.42614281  0.00196436  0.1690876   0.076486267
  4  -3217.8673989000  -0.098759188131 0.06552834  0.00056788  0.0636068   0.023646016
  5  -3217.9268930320  -0.059494132025 0.30596315  0.00068894  0.0466351   0.006760127
  6  -3217.9498088955  -0.022915863416 0.26992205  0.00081177  0.0509976   0.006745829
  7  -3217.9725081847  -0.022699289253 0.32240610  0.00060336  0.0613270   0.009365936
  8  -3217.9956859046  -0.023177719901 0.04360837  0.00035313  0.0329877   0.006017984
  9  -3218.0133069181  -0.017621013472 0.10630860  0.00022965  0.0349342   0.004219423
 10  -3218.0210916738  -0.007784755761 0.13279781  0.00036278  0.0379746   0.003824476
 11  -3218.0346892066  -0.013597532761 0.17798819  0.00060021  0.0217736   0.002875485
 12  -3218.0419814716  -0.007292265008 0.04960202  0.00028005  0.0107791   0.005442825
 13  -3218.0433835267  -0.001402055039 0.05571387  0.00021961  0.0087430   0.003129961
 14  -3218.0463364400  -0.002952913368 0.08938146  0.00016484  0.0042363   0.001347502
 15  -3218.0466307253  -0.000294285283 0.05477939  0.00010250  0.0021594   0.001892096
 16  -3218.0472166630  -0.000585937720 0.03021647  0.00007622  0.0017235   0.000779526
 17  -3218.0472948568  -0.000078193758 0.03370816  0.00006345  0.0015980   0.001014561
 18  -3218.0473391547  -0.000044297960 0.02169338  0.00004785  0.0028625   0.000902379
 19  -3218.0474729557  -0.000133800980 0.00939256  0.00002877  0.0008903   0.000402653
               *** Restarting incremental Fock matrix formation ***
                             ****Resetting KDIIS****
 20  -3218.0474970361  -0.000024080370 0.00116488  0.00000596  0.0019256   0.000567889
 21  -3218.0475175310  -0.000020494901 0.00231458  0.00000647  0.0014660   0.000375681
 22  -3218.0475308586  -0.000013327583 0.00571916  0.00001178  0.0014831   0.000287660
 23  -3218.0475472852  -0.000016426620 0.02125332  0.00003957  0.0011548   0.000192181
 24  -3218.0475866534  -0.000039368205 0.03799668  0.00007766  0.0008434   0.000203799
 25  -3218.0476335925  -0.000046939059 0.00357503  0.00000778  0.0002035   0.000065144
                          ***Energy convergence achieved***
 26  -3218.0476335588   0.000000033689 0.00518441  0.00001067  0.0002496   0.000128264
 27  -3218.0476384743  -0.000004915517 0.00095687  0.00000225  0.0001513   0.000030616
 28  -3218.0476399938  -0.000001519540 0.00243779  0.00000607  0.0001894   0.000036964
 29  -3218.0476428575  -0.000002863721 0.00033304  0.00000193  0.0000866   0.000030893
 30  -3218.0476449265  -0.000002068961 0.00111025  0.00000254  0.0000698   0.000015096
                          ***Energy convergence achieved***
 31  -3218.0476447812   0.000000145336 0.00045170  0.00000173  0.0000643   0.000026157
 32  -3218.0476457465  -0.000000965367 0.00094679  0.00000201  0.0000507   0.000010437
 33  -3218.0476456122   0.000000134339 0.00268735  0.00000475  0.0000491   0.000014910
 34  -3218.0476463949  -0.000000782684 0.00060144  0.00000121  0.0000375   0.000006718
 35  -3218.0476464022  -0.000000007312 0.00078237  0.00000133  0.0000348   0.000012517
 36  -3218.0476460702   0.000000331997 0.00064723  0.00000109  0.0000441   0.000007078
 37  -3218.0476463360  -0.000000265832 0.00247525  0.00000338  0.0000277   0.000005605
                           ***RMSP convergence achieved***
 38  -3218.0476459333   0.000000402696 0.00023441  0.00000062  0.0000264   0.000006339
 39  -3218.0476459351  -0.000000001792 0.00214435  0.00000467  0.0000206   0.000004297
               *** Restarting incremental Fock matrix formation ***
                             ****Resetting KDIIS****
                           ***RMSP convergence achieved***
 40  -3218.0476472821  -0.000001346928 0.00005527  0.00000015  0.0000185   0.000003475
                          ***Energy convergence achieved***
 41  -3218.0476474197  -0.000000137643 0.00014964  0.00000033  0.0000181   0.000002830
 42  -3218.0476473392   0.000000080506 0.00042503  0.00000073  0.0000178   0.000002486
 43  -3218.0476469115   0.000000427647 0.00114808  0.00000235  0.0000172   0.000002281
                           ***RMSP convergence achieved***
 44  -3218.0476467736   0.000000137944 0.00052006  0.00000094  0.0000135   0.000003642
 45  -3218.0476468237  -0.000000050144 0.00154454  0.00000260  0.0000113   0.000001805
                           ***RMSP convergence achieved***
 46  -3218.0476469728  -0.000000149022 0.00055250  0.00000088  0.0000099   0.000001912
 47  -3218.0476468760   0.000000096798 0.00021396  0.00000042  0.0000088   0.000001117
 48  -3218.0476468603   0.000000015635 0.00023412  0.00000048  0.0000077   0.000000796

            ***Energy convergence in two consecutive cycles with***
                    ***'reasonable' density convergence***
                       *** signaling convergence ***

                    *** KDIIS BlockDiag ( 6.106 sec) ***

               *****************************************************
               *                     SUCCESS                       *
               *           SCF CONVERGED AFTER  49 CYCLES          *
               *****************************************************


----------------
TOTAL SCF ENERGY
----------------

Total Energy       :        -3218.04764701 Eh          -87567.52832 eV

Components:
Nuclear Repulsion  :         6915.45019505 Eh          188178.96664 eV
Electronic Energy  :       -10133.49784206 Eh         -275746.49496 eV
One Electron Energy:       -19076.88597743 Eh         -519108.45841 eV
Two Electron Energy:         8943.38813537 Eh          243361.96345 eV

Virial components:
Potential Energy   :        -4994.96833187 Eh         -135919.99835 eV
Kinetic Energy     :         1776.92068487 Eh           48352.47003 eV
Virial Ratio       :            2.81102492


DFT components:
N(Alpha)           :      166.000037579172 electrons
N(Beta)            :      162.000050507914 electrons
N(Total)           :      328.000088087086 electrons
E(X)               :     -242.014188783344 Eh       
E(C)               :      -13.583937612280 Eh       
E(XC)              :     -255.598126395624 Eh       
DFET-embed. en.    :        0.000000000000 Eh       

---------------
SCF CONVERGENCE
---------------

  Last Energy change         ...   -1.4883e-07  Tolerance :   1.0000e-06
  Last MAX-Density change    ...    8.9486e-05  Tolerance :   1.0000e-05
  Last RMS-Density change    ...    3.8634e-07  Tolerance :   1.0000e-06

             **** THE GBW FILE WAS UPDATED (scan.gbw) ****
             **** DENSITY scan.scfp WAS UPDATED ****
             **** ENERGY FILE WAS UPDATED (scan.en.tmp) ****
----------------------
UHF SPIN CONTAMINATION
----------------------

Warning: in a DFT calculation there is little theoretical justification to 
         calculate <S**2> as in Hartree-Fock theory. We will do it anyways
         but you should keep in mind that the values have only limited relevance

Expectation value of <S**2>     :     6.221368
Ideal value S*(S+1) for S=2.0   :     6.000000
Deviation                       :     0.221368

             **** THE GBW FILE WAS UPDATED (scan.gbw) ****
             **** DENSITY scan.scfp WAS UPDATED ****
----------------
ORBITAL ENERGIES
----------------
                 SPIN UP ORBITALS
  NO   OCC          E(Eh)            E(eV) 
   0   1.0000    -215.285513     -5858.2166 
   1   1.0000     -24.584984      -668.9914 
   2   1.0000     -20.852580      -567.4275 
   3   1.0000     -20.852102      -567.4145 
   4   1.0000     -20.847596      -567.2919 
   5   1.0000      -4.127588      -112.3174 
   6   1.0000      -4.127334      -112.3105 
   7   1.0000      -4.126991      -112.3011 
   8   1.0000      -4.123594      -112.2087 
   9   1.0000      -4.123263      -112.1997 
  10   1.0000      -4.123076      -112.1946 
  11   1.0000      -4.121974      -112.1646 
  12   1.0000      -4.121535      -112.1527 
  13   1.0000      -4.120582      -112.1267 
  14   1.0000      -4.120187      -112.1160 
  15   1.0000      -4.113298      -111.9285 
  16   1.0000      -4.113216      -111.9263 
  17   1.0000      -4.111773      -111.8870 
  18   1.0000      -4.111745      -111.8863 
  19   1.0000      -4.111656      -111.8839 
  20   1.0000      -4.106907      -111.7546 
  21   1.0000      -2.910538       -79.1998 
  22   1.0000      -2.317222       -63.0548 
  23   1.0000      -2.317024       -63.0494 
  24   1.0000      -2.316492       -63.0349 
  25   1.0000      -2.313639       -62.9573 
  26   1.0000      -2.313129       -62.9434 
  27   1.0000      -2.312054       -62.9142 
  28   1.0000      -2.311982       -62.9122 
  29   1.0000      -2.311824       -62.9079 
  30   1.0000      -2.311612       -62.9022 
  31   1.0000      -2.311267       -62.8928 
  32   1.0000      -2.311207       -62.8911 
  33   1.0000      -2.310616       -62.8751 
  34   1.0000      -2.310194       -62.8636 
  35   1.0000      -2.309758       -62.8517 
  36   1.0000      -2.309178       -62.8359 
  37   1.0000      -2.309099       -62.8338 
  38   1.0000      -2.308255       -62.8108 
  39   1.0000      -2.308057       -62.8054 
  40   1.0000      -2.307225       -62.7828 
  41   1.0000      -2.307031       -62.7775 
  42   1.0000      -2.306218       -62.7554 
  43   1.0000      -2.306081       -62.7517 
  44   1.0000      -2.305786       -62.7436 
  45   1.0000      -2.305522       -62.7365 
  46   1.0000      -2.305188       -62.7273 
  47   1.0000      -2.304916       -62.7200 
  48   1.0000      -2.304711       -62.7144 
  49   1.0000      -2.304461       -62.7076 
  50   1.0000      -2.304036       -62.6960 
  51   1.0000      -2.303156       -62.6721 
  52   1.0000      -2.302222       -62.6466 
  53   1.0000      -2.301815       -62.6356 
  54   1.0000      -2.301012       -62.6137 
  55   1.0000      -2.300554       -62.6012 
  56   1.0000      -2.299914       -62.5838 
  57   1.0000      -2.299287       -62.5668 
  58   1.0000      -2.299110       -62.5620 
  59   1.0000      -2.298632       -62.5489 
  60   1.0000      -2.298518       -62.5459 
  61   1.0000      -2.297798       -62.5263 
  62   1.0000      -2.296120       -62.4806 
  63   1.0000      -2.295911       -62.4749 
  64   1.0000      -2.295004       -62.4502 
  65   1.0000      -2.293846       -62.4187 
  66   1.0000      -2.293336       -62.4048 
  67   1.0000      -2.293052       -62.3971 
  68   1.0000      -2.292860       -62.3919 
  69   1.0000      -2.288192       -62.2649 
  70   1.0000      -1.858944       -50.5844 
  71   1.0000      -1.858860       -50.5822 
  72   1.0000      -1.856021       -50.5049 
  73   1.0000      -0.435858       -11.8603 
  74   1.0000      -0.399169       -10.8619 
  75   1.0000      -0.398191       -10.8353 
  76   1.0000      -0.392352       -10.6764 
  77   1.0000      -0.391636       -10.6570 
  78   1.0000      -0.388345       -10.5674 
  79   1.0000      -0.373711       -10.1692 
  80   1.0000      -0.372036       -10.1236 
  81   1.0000      -0.371462       -10.1080 
  82   1.0000      -0.369264       -10.0482 
  83   1.0000      -0.368048       -10.0151 
  84   1.0000      -0.365181        -9.9371 
  85   1.0000      -0.364048        -9.9062 
  86   1.0000      -0.362416        -9.8618 
  87   1.0000      -0.362309        -9.8589 
  88   1.0000      -0.362129        -9.8540 
  89   1.0000      -0.358182        -9.7466 
  90   1.0000      -0.356807        -9.7092 
  91   1.0000      -0.353999        -9.6328 
  92   1.0000      -0.353844        -9.6286 
  93   1.0000      -0.353005        -9.6058 
  94   1.0000      -0.351242        -9.5578 
  95   1.0000      -0.350954        -9.5499 
  96   1.0000      -0.350527        -9.5383 
  97   1.0000      -0.349530        -9.5112 
  98   1.0000      -0.345155        -9.3922 
  99   1.0000      -0.344467        -9.3734 
 100   1.0000      -0.337517        -9.1843 
 101   1.0000      -0.336870        -9.1667 
 102   1.0000      -0.335587        -9.1318 
 103   1.0000      -0.333455        -9.0738 
 104   1.0000      -0.332924        -9.0593 
 105   1.0000      -0.332731        -9.0541 
 106   1.0000      -0.330586        -8.9957 
 107   1.0000      -0.327132        -8.9017 
 108   1.0000      -0.324738        -8.8366 
 109   1.0000      -0.323207        -8.7949 
 110   1.0000      -0.317062        -8.6277 
 111   1.0000      -0.316033        -8.5997 
 112   1.0000      -0.315598        -8.5879 
 113   1.0000      -0.314011        -8.5447 
 114   1.0000      -0.310663        -8.4536 
 115   1.0000      -0.305630        -8.3166 
 116   1.0000      -0.304557        -8.2874 
 117   1.0000      -0.299905        -8.1608 
 118   1.0000      -0.296286        -8.0624 
 119   1.0000      -0.294278        -8.0077 
 120   1.0000      -0.293047        -7.9742 
 121   1.0000      -0.290218        -7.8972 
 122   1.0000      -0.289455        -7.8765 
 123   1.0000      -0.289150        -7.8682 
 124   1.0000      -0.286923        -7.8076 
 125   1.0000      -0.285331        -7.7643 
 126   1.0000      -0.284509        -7.7419 
 127   1.0000      -0.284313        -7.7365 
 128   1.0000      -0.283517        -7.7149 
 129   1.0000      -0.283159        -7.7052 
 130   1.0000      -0.281681        -7.6649 
 131   1.0000      -0.279795        -7.6136 
 132   1.0000      -0.276835        -7.5331 
 133   1.0000      -0.275109        -7.4861 
 134   1.0000      -0.274461        -7.4685 
 135   1.0000      -0.274016        -7.4563 
 136   1.0000      -0.272701        -7.4206 
 137   1.0000      -0.271924        -7.3994 
 138   1.0000      -0.269882        -7.3438 
 139   1.0000      -0.268627        -7.3097 
 140   1.0000      -0.267426        -7.2770 
 141   1.0000      -0.267335        -7.2746 
 142   1.0000      -0.266129        -7.2417 
 143   1.0000      -0.263938        -7.1821 
 144   1.0000      -0.261748        -7.1225 
 145   1.0000      -0.259755        -7.0683 
 146   1.0000      -0.258379        -7.0309 
 147   1.0000      -0.256848        -6.9892 
 148   1.0000      -0.256473        -6.9790 
 149   1.0000      -0.256073        -6.9681 
 150   1.0000      -0.255812        -6.9610 
 151   1.0000      -0.250159        -6.8072 
 152   1.0000      -0.248388        -6.7590 
 153   1.0000      -0.247773        -6.7422 
 154   1.0000      -0.247177        -6.7260 
 155   1.0000      -0.246378        -6.7043 
 156   1.0000      -0.234625        -6.3845 
 157   1.0000      -0.233110        -6.3432 
 158   1.0000      -0.230902        -6.2832 
 159   1.0000      -0.229730        -6.2513 
 160   1.0000      -0.220511        -6.0004 
 161   1.0000      -0.218748        -5.9524 
 162   1.0000      -0.210676        -5.7328 
 163   1.0000      -0.206658        -5.6234 
 164   1.0000      -0.202605        -5.5132 
 165   1.0000      -0.195957        -5.3323 
 166   0.0000      -0.178126        -4.8471 
 167   0.0000      -0.143627        -3.9083 
 168   0.0000      -0.139010        -3.7827 
 169   0.0000      -0.137732        -3.7479 
 170   0.0000      -0.135218        -3.6795 
 171   0.0000      -0.130916        -3.5624 
 172   0.0000      -0.113052        -3.0763 
 173   0.0000      -0.104694        -2.8489 
 174   0.0000      -0.102482        -2.7887 
 175   0.0000      -0.067839        -1.8460 
 176   0.0000      -0.056423        -1.5353 
 177   0.0000      -0.055674        -1.5150 
 178   0.0000      -0.033416        -0.9093 
 179   0.0000      -0.031413        -0.8548 
 180   0.0000      -0.031292        -0.8515 
 181   0.0000      -0.028487        -0.7752 
 182   0.0000      -0.025918        -0.7053 
 183   0.0000      -0.022041        -0.5998 
 184   0.0000      -0.018085        -0.4921 
 185   0.0000      -0.007271        -0.1978 
 186   0.0000       0.000984         0.0268 
 187   0.0000       0.001662         0.0452 
 188   0.0000       0.015787         0.4296 
 189   0.0000       0.018938         0.5153 
 190   0.0000       0.038068         1.0359 
 191   0.0000       0.043100         1.1728 
 192   0.0000       0.049987         1.3602 
 193   0.0000       0.063900         1.7388 
 194   0.0000       0.065939         1.7943 
 195   0.0000       0.067398         1.8340 
 196   0.0000       0.068693         1.8692 
 197   0.0000       0.069854         1.9008 
 198   0.0000       0.074280         2.0213 
 199   0.0000       0.074867         2.0372 
 200   0.0000       0.083986         2.2854 
 201   0.0000       0.084920         2.3108 
 202   0.0000       0.088567         2.4100 
 203   0.0000       0.090032         2.4499 
 204   0.0000       0.090671         2.4673 
 205   0.0000       0.096003         2.6124 
 206   0.0000       0.097939         2.6650 
 207   0.0000       0.098089         2.6691 
 208   0.0000       0.103770         2.8237 
 209   0.0000       0.107548         2.9265 
 210   0.0000       0.110287         3.0011 
 211   0.0000       0.111934         3.0459 
 212   0.0000       0.123678         3.3654 
 213   0.0000       0.135278         3.6811 
 214   0.0000       0.136151         3.7048 
 215   0.0000       0.139138         3.7861 
 216   0.0000       0.139532         3.7969 
 217   0.0000       0.141879         3.8607 
 218   0.0000       0.155856         4.2410 
 219   0.0000       0.156191         4.2502 
 220   0.0000       0.160319         4.3625 
 221   0.0000       0.161736         4.4011 
 222   0.0000       0.167726         4.5640 
 223   0.0000       0.169793         4.6203 
 224   0.0000       0.172758         4.7010 
 225   0.0000       0.173071         4.7095 
 226   0.0000       0.173081         4.7098 
 227   0.0000       0.175481         4.7751 
 228   0.0000       0.188780         5.1370 
 229   0.0000       0.201413         5.4807 
 230   0.0000       0.205392         5.5890 
 231   0.0000       0.209525         5.7015 
 232   0.0000       0.211799         5.7633 
 233   0.0000       0.214422         5.8347 
 234   0.0000       0.216267         5.8849 
 235   0.0000       0.219558         5.9745 
 236   0.0000       0.220203         5.9920 
 237   0.0000       0.221557         6.0289 
 238   0.0000       0.225664         6.1406 
 239   0.0000       0.234951         6.3933 
 240   0.0000       0.236283         6.4296 
 241   0.0000       0.240339         6.5400 
 242   0.0000       0.242737         6.6052 
 243   0.0000       0.254186         6.9167 
 244   0.0000       0.263778         7.1778 
 245   0.0000       0.264844         7.2068 
 246   0.0000       0.265987         7.2379 
 247   0.0000       0.269712         7.3392 
 248   0.0000       0.276198         7.5157 
 249   0.0000       0.276365         7.5203 
 250   0.0000       0.279596         7.6082 
 251   0.0000       0.281589         7.6624 
 252   0.0000       0.283531         7.7153 
 253   0.0000       0.285356         7.7649 
 254   0.0000       0.308285         8.3889 
 255   0.0000       0.311502         8.4764 
 256   0.0000       0.312492         8.5033 
 257   0.0000       0.315430         8.5833 
 258   0.0000       0.319558         8.6956 
 259   0.0000       0.321362         8.7447 
 260   0.0000       0.326943         8.8966 
 261   0.0000       0.337588         9.1862 
 262   0.0000       0.342407         9.3174 
 263   0.0000       0.347015         9.4428 
 264   0.0000       0.347635         9.4596 
 265   0.0000       0.348757         9.4902 
 266   0.0000       0.353717         9.6251 
 267   0.0000       0.355016         9.6605 
 268   0.0000       0.356190         9.6924 
 269   0.0000       0.359774         9.7900 
 270   0.0000       0.367546        10.0014 
 271   0.0000       0.383561        10.4372 
 272   0.0000       0.385549        10.4913 
 273   0.0000       0.387725        10.5505 
 274   0.0000       0.389592        10.6013 
 275   0.0000       0.391376        10.6499 
 276   0.0000       0.396287        10.7835 
 277   0.0000       0.398693        10.8490 
 278   0.0000       0.399163        10.8618 
 279   0.0000       0.405199        11.0260 
 280   0.0000       0.408680        11.1208 
 281   0.0000       0.416448        11.3321 
 282   0.0000       0.416673        11.3382 
 283   0.0000       0.417173        11.3519 
 284   0.0000       0.422234        11.4896 
 285   0.0000       0.425499        11.5784 
 286   0.0000       0.435366        11.8469 
 287   0.0000       0.436975        11.8907 
 288   0.0000       0.442927        12.0526 
 289   0.0000       0.454039        12.3550 
 290   0.0000       0.457143        12.4395 
 291   0.0000       0.459159        12.4943 
 292   0.0000       0.465249        12.6601 
 293   0.0000       0.472177        12.8486 
 294   0.0000       0.476228        12.9588 
 295   0.0000       0.479987        13.0611 
 296   0.0000       0.482756        13.1364 
 297   0.0000       0.485482        13.2106 
 298   0.0000       0.489791        13.3279 
 299   0.0000       0.495876        13.4935 
 300   0.0000       0.498582        13.5671 
 301   0.0000       0.500734        13.6257 
 302   0.0000       0.505730        13.7616 
 303   0.0000       0.506049        13.7703 
 304   0.0000       0.511447        13.9172 
 305   0.0000       0.511838        13.9278 
 306   0.0000       0.516522        14.0553 
 307   0.0000       0.518742        14.1157 
 308   0.0000       0.522218        14.2103 
 309   0.0000       0.526275        14.3207 
 310   0.0000       0.530776        14.4432 
 311   0.0000       0.533362        14.5135 
 312   0.0000       0.540848        14.7172 
 313   0.0000       0.544143        14.8069 
 314   0.0000       0.546407        14.8685 
 315   0.0000       0.547916        14.9095 
 316   0.0000       0.548372        14.9220 
 317   0.0000       0.549521        14.9532 
 318   0.0000       0.555304        15.1106 
 319   0.0000       0.555640        15.1197 
 320   0.0000       0.558804        15.2058 
 321   0.0000       0.562457        15.3052 
 322   0.0000       0.570896        15.5349 
 323   0.0000       0.574377        15.6296 
 324   0.0000       0.590734        16.0747 
 325   0.0000       0.593498        16.1499 
 326   0.0000       0.604605        16.4521 
 327   0.0000       0.605005        16.4630 
 328   0.0000       0.622100        16.9282 
 329   0.0000       0.623069        16.9546 
 330   0.0000       0.637245        17.3403 
 331   0.0000       0.643703        17.5160 
 332   0.0000       0.682759        18.5788 
 333   0.0000       0.685350        18.6493 
 334   0.0000       0.713918        19.4267 
 335   0.0000       0.720050        19.5936 
 336   0.0000       0.729151        19.8412 
 337   0.0000       0.732266        19.9260 
 338   0.0000       0.744135        20.2489 
 339   0.0000       0.747981        20.3536 
 340   0.0000       0.756322        20.5806 
 341   0.0000       0.757410        20.6102 
 342   0.0000       0.766016        20.8444 
 343   0.0000       0.773916        21.0593 
 344   0.0000       0.779961        21.2238 
 345   0.0000       0.785303        21.3692 
 346   0.0000       0.790681        21.5155 
 347   0.0000       0.805214        21.9110 
 348   0.0000       0.808665        22.0049 
 349   0.0000       0.817339        22.2409 
 350   0.0000       0.822694        22.3866 
 351   0.0000       0.847079        23.0502 
 352   0.0000       0.857961        23.3463 
 353   0.0000       0.863993        23.5105 
 354   0.0000       0.896377        24.3917 
 355   0.0000       0.906029        24.6543 
 356   0.0000       0.915802        24.9203 
 357   0.0000       0.920562        25.0498 
 358   0.0000       0.922225        25.0950 
 359   0.0000       0.928851        25.2753 
 360   0.0000       0.934093        25.4180 
 361   0.0000       0.942092        25.6356 
 362   0.0000       0.946865        25.7655 
 363   0.0000       0.957471        26.0541 
 364   0.0000       0.966108        26.2891 
 365   0.0000       0.976533        26.5728 
 366   0.0000       0.978839        26.6356 
 367   0.0000       0.997504        27.1435 
 368   0.0000       1.005151        27.3516 
 369   0.0000       1.011111        27.5137 
 370   0.0000       1.018771        27.7222 
 371   0.0000       1.019651        27.7461 
 372   0.0000       1.035864        28.1873 
 373   0.0000       1.041147        28.3311 
 374   0.0000       1.064114        28.9560 
 375   0.0000       1.073319        29.2065 
 376   0.0000       1.090005        29.6606 
 377   0.0000       1.096849        29.8468 
 378   0.0000       1.220036        33.1989 
 379   0.0000       1.230373        33.4801 
 380   0.0000       1.244326        33.8598 
 381   0.0000       1.259072        34.2611 
 382   0.0000       1.269820        34.5536 
 383   0.0000       1.289244        35.0821 
 384   0.0000       1.302396        35.4400 
 385   0.0000       1.303550        35.4714 
 386   0.0000       1.318039        35.8657 
 387   0.0000       1.321534        35.9608 
 388   0.0000       1.322193        35.9787 
 389   0.0000       1.334876        36.3238 
 390   0.0000       1.349206        36.7138 
 391   0.0000       1.349592        36.7243 
 392   0.0000       1.353044        36.8182 
 393   0.0000       1.357065        36.9276 
 394   0.0000       1.365971        37.1700 
 395   0.0000       1.368260        37.2322 
 396   0.0000       1.376876        37.4667 
 397   0.0000       1.381102        37.5817 
 398   0.0000       1.384581        37.6764 
 399   0.0000       1.386758        37.7356 
 400   0.0000       1.396730        38.0069 
 401   0.0000       1.398035        38.0425 
 402   0.0000       1.404281        38.2124 
 403   0.0000       1.408907        38.3383 
 404   0.0000       1.409475        38.3538 
 405   0.0000       1.411395        38.4060 
 406   0.0000       1.425683        38.7948 
 407   0.0000       1.433662        39.0119 
 408   0.0000       1.438951        39.1559 
 409   0.0000       1.443049        39.2674 
 410   0.0000       1.452487        39.5242 
 411   0.0000       1.454493        39.5788 
 412   0.0000       1.456916        39.6447 
 413   0.0000       1.460405        39.7396 
 414   0.0000       1.465130        39.8682 
 415   0.0000       1.467985        39.9459 
 416   0.0000       1.473112        40.0854 
 417   0.0000       1.476485        40.1772 
 418   0.0000       1.478219        40.2244 
 419   0.0000       1.486010        40.4364 
 420   0.0000       1.492008        40.5996 
 421   0.0000       1.494062        40.6555 
 422   0.0000       1.495209        40.6867 
 423   0.0000       1.502762        40.8922 
 424   0.0000       1.504746        40.9462 
 425   0.0000       1.506783        41.0017 
 426   0.0000       1.508900        41.0593 
 427   0.0000       1.510444        41.1013 
 428   0.0000       1.514102        41.2008 
 429   0.0000       1.518217        41.3128 
 430   0.0000       1.520454        41.3737 
 431   0.0000       1.520959        41.3874 
 432   0.0000       1.522397        41.4265 
 433   0.0000       1.525535        41.5119 
 434   0.0000       1.530940        41.6590 
 435   0.0000       1.534023        41.7429 
 436   0.0000       1.535478        41.7825 
 437   0.0000       1.536089        41.7991 
 438   0.0000       1.539167        41.8829 
 439   0.0000       1.539824        41.9007 
 440   0.0000       1.541191        41.9379 
 441   0.0000       1.541828        41.9553 
 442   0.0000       1.544609        42.0309 
 443   0.0000       1.547136        42.0997 
 444   0.0000       1.549396        42.1612 
 445   0.0000       1.551415        42.2162 
 446   0.0000       1.553131        42.2628 
 447   0.0000       1.556121        42.3442 
 448   0.0000       1.556728        42.3607 
 449   0.0000       1.561003        42.4771 
 450   0.0000       1.562966        42.5305 
 451   0.0000       1.563965        42.5576 
 452   0.0000       1.564377        42.5689 
 453   0.0000       1.564438        42.5705 
 454   0.0000       1.565751        42.6062 
 455   0.0000       1.566982        42.6398 
 456   0.0000       1.568113        42.6705 
 457   0.0000       1.568305        42.6757 
 458   0.0000       1.570364        42.7318 
 459   0.0000       1.570640        42.7393 
 460   0.0000       1.572196        42.7816 
 461   0.0000       1.573982        42.8302 
 462   0.0000       1.574862        42.8542 
 463   0.0000       1.576124        42.8885 
 464   0.0000       1.576751        42.9056 
 465   0.0000       1.577347        42.9218 
 466   0.0000       1.579187        42.9719 
 467   0.0000       1.579648        42.9844 
 468   0.0000       1.580807        43.0159 
 469   0.0000       1.581003        43.0213 
 470   0.0000       1.584187        43.1079 
 471   0.0000       1.584391        43.1135 
 472   0.0000       1.588510        43.2256 
 473   0.0000       1.589892        43.2632 
 474   0.0000       1.593838        43.3706 
 475   0.0000       1.594240        43.3815 
 476   0.0000       1.595893        43.4265 
 477   0.0000       1.596240        43.4359 
 478   0.0000       1.598056        43.4853 
 479   0.0000       1.598416        43.4951 
 480   0.0000       1.598542        43.4985 
 481   0.0000       1.602838        43.6154 
 482   0.0000       1.605880        43.6982 
 483   0.0000       1.611551        43.8525 
 484   0.0000       1.613431        43.9037 
 485   0.0000       1.613972        43.9184 
 486   0.0000       1.618508        44.0418 
 487   0.0000       1.622809        44.1589 
 488   0.0000       1.626562        44.2610 
 489   0.0000       1.626970        44.2721 
 490   0.0000       1.628660        44.3181 
 491   0.0000       1.630524        44.3688 
 492   0.0000       1.631849        44.4049 
 493   0.0000       1.634467        44.4761 
 494   0.0000       1.635754        44.5111 
 495   0.0000       1.636702        44.5369 
 496   0.0000       1.637368        44.5551 
 497   0.0000       1.640691        44.6455 
 498   0.0000       1.645163        44.7671 
 499   0.0000       1.648230        44.8506 
 500   0.0000       1.650624        44.9158 
 501   0.0000       1.651285        44.9338 
 502   0.0000       1.651398        44.9368 
 503   0.0000       1.654370        45.0177 
 504   0.0000       1.657380        45.0996 
 505   0.0000       1.658961        45.1426 
 506   0.0000       1.660532        45.1854 
 507   0.0000       1.664083        45.2820 
 508   0.0000       1.665454        45.3193 
 509   0.0000       1.666582        45.3500 
 510   0.0000       1.668172        45.3933 
 511   0.0000       1.670897        45.4674 
 512   0.0000       1.674011        45.5522 
 513   0.0000       1.676509        45.6201 
 514   0.0000       1.680929        45.7404 
 515   0.0000       1.682419        45.7809 
 516   0.0000       1.685543        45.8660 
 517   0.0000       1.687984        45.9324 
 518   0.0000       1.690463        45.9998 
 519   0.0000       1.693589        46.0849 
 520   0.0000       1.696160        46.1549 
 521   0.0000       1.702312        46.3223 
 522   0.0000       1.709186        46.5093 
 523   0.0000       1.710366        46.5414 
 524   0.0000       1.711638        46.5760 
 525   0.0000       1.715836        46.6903 
 526   0.0000       1.722934        46.8834 
 527   0.0000       1.723870        46.9089 
 528   0.0000       1.725155        46.9438 
 529   0.0000       1.729221        47.0545 
 530   0.0000       1.734484        47.1977 
 531   0.0000       1.736253        47.2458 
 532   0.0000       1.748584        47.5814 
 533   0.0000       1.770375        48.1743 
 534   0.0000       1.771615        48.2081 
 535   0.0000       1.774255        48.2799 
 536   0.0000       1.775754        48.3207 
 537   0.0000       1.792677        48.7812 
 538   0.0000       1.798089        48.9285 
 539   0.0000       1.807220        49.1770 
 540   0.0000       1.808560        49.2134 
 541   0.0000       1.812610        49.3236 
 542   0.0000       1.818683        49.4889 
 543   0.0000       1.822450        49.5914 
 544   0.0000       1.825131        49.6643 
 545   0.0000       1.831686        49.8427 
 546   0.0000       1.834890        49.9299 
 547   0.0000       1.840826        50.0914 
 548   0.0000       1.842864        50.1469 
 549   0.0000       1.849627        50.3309 
 550   0.0000       1.856618        50.5211 
 551   0.0000       1.862825        50.6901 
 552   0.0000       1.867256        50.8106 
 553   0.0000       1.870446        50.8974 
 554   0.0000       1.877018        51.0763 
 555   0.0000       1.882578        51.2276 
 556   0.0000       1.883617        51.2558 
 557   0.0000       1.885832        51.3161 
 558   0.0000       1.896005        51.5929 
 559   0.0000       1.898505        51.6610 
 560   0.0000       1.905730        51.8575 
 561   0.0000       1.922789        52.3217 
 562   0.0000       1.923446        52.3396 
 563   0.0000       1.926068        52.4110 
 564   0.0000       1.937426        52.7200 
 565   0.0000       1.940999        52.8173 
 566   0.0000       1.954092        53.1736 
 567   0.0000       1.959475        53.3200 
 568   0.0000       1.964085        53.4455 
 569   0.0000       1.970104        53.6093 
 570   0.0000       1.977074        53.7989 
 571   0.0000       1.982637        53.9503 
 572   0.0000       2.004586        54.5475 
 573   0.0000       2.033620        55.3376 
 574   0.0000       2.238954        60.9250 
 575   0.0000       2.354409        64.0667 
 576   0.0000       2.383700        64.8638 
 577   0.0000       2.389874        65.0318 
 578   0.0000       2.401571        65.3501 
 579   0.0000       2.448265        66.6207 
 580   0.0000       2.461671        66.9855 
 581   0.0000       2.478597        67.4460 
 582   0.0000       2.482454        67.5510 
 583   0.0000       2.500228        68.0347 
 584   0.0000       2.540063        69.1186 
 585   0.0000       2.551719        69.4358 
 586   0.0000       2.563755        69.7633 
 587   0.0000       2.589767        70.4711 
 588   0.0000       2.595364        70.6234 
 589   0.0000       2.614534        71.1451 
 590   0.0000       2.628197        71.5169 
 591   0.0000       2.643773        71.9407 
 592   0.0000       2.656930        72.2987 
 593   0.0000       2.659189        72.3602 
 594   0.0000       2.669609        72.6438 
 595   0.0000       2.708377        73.6987 
 596   0.0000       2.732510        74.3554 
 597   0.0000       2.927284        79.6554 
 598   0.0000       2.930309        79.7378 
 599   0.0000       2.937940        79.9454 
 600   0.0000       2.946247        80.1715 
 601   0.0000       2.952254        80.3349 
 602   0.0000       2.969680        80.8091 
 603   0.0000       2.988812        81.3297 
 604   0.0000       3.069409        83.5229 
 605   0.0000      24.113118       656.1513 
 606   0.0000      24.727085       672.8582 
 607   0.0000      24.731219       672.9707 
 608   0.0000      24.833888       675.7645 
 609   0.0000      24.859943       676.4734 
 610   0.0000      25.093478       682.8283 
 611   0.0000      25.111450       683.3173 
 612   0.0000      25.153212       684.4537 
 613   0.0000      25.303580       688.5454 
 614   0.0000      25.373117       690.4376 
 615   0.0000      25.561220       695.5562 
 616   0.0000      25.608149       696.8332 
 617   0.0000      25.649309       697.9532 
 618   0.0000      25.834703       702.9980 
 619   0.0000      25.949516       706.1222 
 620   0.0000      25.951581       706.1784 
 621   0.0000      25.989494       707.2101 
 622   0.0000      26.045555       708.7356 
 623   0.0000      26.136276       711.2042 
 624   0.0000      26.151576       711.6206 
 625   0.0000      26.367639       717.4999 
 626   0.0000      26.385150       717.9764 
 627   0.0000      26.470561       720.3006 
 628   0.0000      26.604246       723.9383 
 629   0.0000      26.612034       724.1502 
 630   0.0000      26.731856       727.4108 
 631   0.0000      26.752966       727.9852 
 632   0.0000      26.998132       734.6565 
 633   0.0000      27.166363       739.2343 
 634   0.0000      27.179966       739.6045 
 635   0.0000      27.185105       739.7443 
 636   0.0000      27.278037       742.2731 
 637   0.0000      27.335468       743.8359 
 638   0.0000      27.395428       745.4675 
 639   0.0000      27.502306       748.3758 
 640   0.0000      27.523419       748.9503 
 641   0.0000      27.642590       752.1931 
 642   0.0000      27.651721       752.4416 
 643   0.0000      27.749024       755.0893 
 644   0.0000      28.098184       764.5904 
 645   0.0000      28.355713       771.5982 
 646   0.0000      28.478656       774.9436 
 647   0.0000      28.525324       776.2135 
 648   0.0000      28.536591       776.5201 
 649   0.0000      29.064950       790.8975 
 650   0.0000      29.554765       804.2260 
 651   0.0000      29.920049       814.1659 
 652   0.0000      31.392220       854.2257 
 653   0.0000      44.374698      1207.4969 
 654   0.0000      44.508523      1211.1385 
 655   0.0000      44.562881      1212.6176 
 656   0.0000      44.564942      1212.6737 
 657   0.0000      44.610447      1213.9120 
 658   0.0000      44.616175      1214.0678 
 659   0.0000      44.635719      1214.5997 
 660   0.0000      44.641420      1214.7548 
 661   0.0000      44.653576      1215.0856 
 662   0.0000      44.677754      1215.7435 
 663   0.0000      44.682331      1215.8680 
 664   0.0000      44.693798      1216.1801 
 665   0.0000      44.717926      1216.8366 
 666   0.0000      44.718853      1216.8619 
 667   0.0000      44.736996      1217.3556 
 668   0.0000      44.759826      1217.9768 
 669   0.0000     205.246246      5585.0343 
 670   0.0000     205.296147      5586.3922 
 671   0.0000     205.318558      5587.0020 
 672   0.0000     205.319466      5587.0267 
 673   0.0000     205.341245      5587.6194 
 674   0.0000     205.344284      5587.7020 
 675   0.0000     205.353345      5587.9486 
 676   0.0000     205.357413      5588.0593 
 677   0.0000     205.366838      5588.3158 
 678   0.0000     205.375350      5588.5474 
 679   0.0000     205.375560      5588.5531 
 680   0.0000     205.380410      5588.6851 
 681   0.0000     205.382948      5588.7542 
 682   0.0000     205.388149      5588.8957 
 683   0.0000     205.394214      5589.0607 
 684   0.0000     205.404162      5589.3314 

                 SPIN DOWN ORBITALS
  NO   OCC          E(Eh)            E(eV) 
   0   1.0000    -215.284941     -5858.2011 
   1   1.0000     -24.520595      -667.2393 
   2   1.0000     -20.805741      -566.1530 
   3   1.0000     -20.804871      -566.1293 
   4   1.0000     -20.793047      -565.8076 
   5   1.0000      -4.126773      -112.2952 
   6   1.0000      -4.126570      -112.2897 
   7   1.0000      -4.126474      -112.2871 
   8   1.0000      -4.123178      -112.1974 
   9   1.0000      -4.122414      -112.1766 
  10   1.0000      -4.122190      -112.1705 
  11   1.0000      -4.121067      -112.1399 
  12   1.0000      -4.120619      -112.1277 
  13   1.0000      -4.119719      -112.1033 
  14   1.0000      -4.119302      -112.0919 
  15   1.0000      -4.113167      -111.9250 
  16   1.0000      -4.113082      -111.9227 
  17   1.0000      -4.111644      -111.8835 
  18   1.0000      -4.111594      -111.8822 
  19   1.0000      -4.111479      -111.8790 
  20   1.0000      -4.106797      -111.7516 
  21   1.0000      -2.742530       -74.6280 
  22   1.0000      -2.316174       -63.0263 
  23   1.0000      -2.315869       -63.0180 
  24   1.0000      -2.315602       -63.0107 
  25   1.0000      -2.312821       -62.9351 
  26   1.0000      -2.312064       -62.9145 
  27   1.0000      -2.311378       -62.8958 
  28   1.0000      -2.311210       -62.8912 
  29   1.0000      -2.310924       -62.8834 
  30   1.0000      -2.310713       -62.8777 
  31   1.0000      -2.310349       -62.8678 
  32   1.0000      -2.310163       -62.8627 
  33   1.0000      -2.309699       -62.8501 
  34   1.0000      -2.309436       -62.8430 
  35   1.0000      -2.309092       -62.8336 
  36   1.0000      -2.308326       -62.8127 
  37   1.0000      -2.308260       -62.8109 
  38   1.0000      -2.307282       -62.7843 
  39   1.0000      -2.307148       -62.7807 
  40   1.0000      -2.306334       -62.7585 
  41   1.0000      -2.306159       -62.7538 
  42   1.0000      -2.305392       -62.7329 
  43   1.0000      -2.305165       -62.7267 
  44   1.0000      -2.304803       -62.7169 
  45   1.0000      -2.304472       -62.7079 
  46   1.0000      -2.304169       -62.6996 
  47   1.0000      -2.304118       -62.6982 
  48   1.0000      -2.303760       -62.6885 
  49   1.0000      -2.303651       -62.6855 
  50   1.0000      -2.302924       -62.6658 
  51   1.0000      -2.302081       -62.6428 
  52   1.0000      -2.301919       -62.6384 
  53   1.0000      -2.301652       -62.6311 
  54   1.0000      -2.300813       -62.6083 
  55   1.0000      -2.300383       -62.5966 
  56   1.0000      -2.299729       -62.5788 
  57   1.0000      -2.299115       -62.5621 
  58   1.0000      -2.298913       -62.5566 
  59   1.0000      -2.298426       -62.5434 
  60   1.0000      -2.298317       -62.5404 
  61   1.0000      -2.297674       -62.5229 
  62   1.0000      -2.296003       -62.4774 
  63   1.0000      -2.295804       -62.4720 
  64   1.0000      -2.294884       -62.4470 
  65   1.0000      -2.293744       -62.4160 
  66   1.0000      -2.293241       -62.4023 
  67   1.0000      -2.292917       -62.3934 
  68   1.0000      -2.292765       -62.3893 
  69   1.0000      -2.288071       -62.2616 
  70   1.0000      -1.700465       -46.2720 
  71   1.0000      -1.698920       -46.2300 
  72   1.0000      -1.670480       -45.4561 
  73   1.0000      -0.428771       -11.6674 
  74   1.0000      -0.397694       -10.8218 
  75   1.0000      -0.396824       -10.7981 
  76   1.0000      -0.388785       -10.5794 
  77   1.0000      -0.385654       -10.4942 
  78   1.0000      -0.385368       -10.4864 
  79   1.0000      -0.372411       -10.1338 
  80   1.0000      -0.370766       -10.0891 
  81   1.0000      -0.370143       -10.0721 
  82   1.0000      -0.367966       -10.0129 
  83   1.0000      -0.366826        -9.9819 
  84   1.0000      -0.364404        -9.9159 
  85   1.0000      -0.361324        -9.8321 
  86   1.0000      -0.359822        -9.7913 
  87   1.0000      -0.358902        -9.7662 
  88   1.0000      -0.358554        -9.7568 
  89   1.0000      -0.356739        -9.7074 
  90   1.0000      -0.355792        -9.6816 
  91   1.0000      -0.353486        -9.6189 
  92   1.0000      -0.353206        -9.6112 
  93   1.0000      -0.352497        -9.5919 
  94   1.0000      -0.350380        -9.5343 
  95   1.0000      -0.350290        -9.5319 
  96   1.0000      -0.349170        -9.5014 
  97   1.0000      -0.348682        -9.4881 
  98   1.0000      -0.344154        -9.3649 
  99   1.0000      -0.341254        -9.2860 
 100   1.0000      -0.336883        -9.1670 
 101   1.0000      -0.335592        -9.1319 
 102   1.0000      -0.334301        -9.0968 
 103   1.0000      -0.332489        -9.0475 
 104   1.0000      -0.332099        -9.0369 
 105   1.0000      -0.331775        -9.0281 
 106   1.0000      -0.329747        -8.9729 
 107   1.0000      -0.323338        -8.7985 
 108   1.0000      -0.320774        -8.7287 
 109   1.0000      -0.318739        -8.6733 
 110   1.0000      -0.316140        -8.6026 
 111   1.0000      -0.314627        -8.5614 
 112   1.0000      -0.314097        -8.5470 
 113   1.0000      -0.312491        -8.5033 
 114   1.0000      -0.308095        -8.3837 
 115   1.0000      -0.303939        -8.2706 
 116   1.0000      -0.300763        -8.1842 
 117   1.0000      -0.299222        -8.1423 
 118   1.0000      -0.295741        -8.0475 
 119   1.0000      -0.292354        -7.9554 
 120   1.0000      -0.291556        -7.9336 
 121   1.0000      -0.289559        -7.8793 
 122   1.0000      -0.288544        -7.8517 
 123   1.0000      -0.287619        -7.8265 
 124   1.0000      -0.286586        -7.7984 
 125   1.0000      -0.285065        -7.7570 
 126   1.0000      -0.283900        -7.7253 
 127   1.0000      -0.283510        -7.7147 
 128   1.0000      -0.282008        -7.6738 
 129   1.0000      -0.281590        -7.6624 
 130   1.0000      -0.280549        -7.6341 
 131   1.0000      -0.278121        -7.5680 
 132   1.0000      -0.276031        -7.5112 
 133   1.0000      -0.274511        -7.4698 
 134   1.0000      -0.273878        -7.4526 
 135   1.0000      -0.273144        -7.4326 
 136   1.0000      -0.271921        -7.3993 
 137   1.0000      -0.271022        -7.3749 
 138   1.0000      -0.269175        -7.3246 
 139   1.0000      -0.268157        -7.2969 
 140   1.0000      -0.266923        -7.2633 
[...]
      dxy     :     1.981449
      f0      :     0.000902  f :     0.006859
      f+1     :     0.000999
      f-1     :     0.000963
      f+2     :     0.000896
      f-2     :     0.000945
      f+3     :     0.000966
      f-3     :     0.001187
 10 Aus       :     2.578790  s :     2.578790
      pz      :     2.184409  p :     6.392144
      px      :     2.121013
      py      :     2.086721
      dz2     :     1.965829  d :     9.874785
      dxz     :     1.974220
      dyz     :     1.999191
      dx2y2   :     1.964782
      dxy     :     1.970763
      f0      :     0.000646  f :     0.005305
      f+1     :     0.000615
      f-1     :     0.001044
      f+2     :     0.000785
      f-2     :     0.000947
      f+3     :     0.000702
      f-3     :     0.000567
 11 Aus       :     2.578291  s :     2.578291
      pz      :     2.098379  p :     6.393201
      px      :     2.140092
      py      :     2.154730
      dz2     :     1.967084  d :     9.873611
      dxz     :     1.981208
      dyz     :     1.973089
      dx2y2   :     1.964073
      dxy     :     1.988157
      f0      :     0.000714  f :     0.005331
      f+1     :     0.000618
      f-1     :     0.000953
      f+2     :     0.000798
      f-2     :     0.000722
      f+3     :     0.000651
      f-3     :     0.000875
 12 Aus       :     2.599834  s :     2.599834
      pz      :     2.134265  p :     6.401257
      px      :     2.152898
      py      :     2.114094
      dz2     :     1.993140  d :     9.842790
      dxz     :     1.940900
      dyz     :     1.962940
      dx2y2   :     1.970474
      dxy     :     1.975337
      f0      :     0.000891  f :     0.005176
      f+1     :     0.000917
      f-1     :     0.000653
      f+2     :     0.000620
      f-2     :     0.000697
      f+3     :     0.000607
      f-3     :     0.000792
 13 Aus       :     2.520000  s :     2.520000
      pz      :     2.182044  p :     6.544607
      px      :     2.179496
      py      :     2.183066
      dz2     :     1.973183  d :     9.891495
      dxz     :     1.983844
      dyz     :     1.989322
      dx2y2   :     1.982263
      dxy     :     1.962884
      f0      :     0.000709  f :     0.006616
      f+1     :     0.000991
      f-1     :     0.000882
      f+2     :     0.000946
      f-2     :     0.001071
      f+3     :     0.001028
      f-3     :     0.000988
 14 Aus       :     2.563284  s :     2.563284
      pz      :     2.182716  p :     6.416819
      px      :     2.085554
      py      :     2.148549
      dz2     :     1.980098  d :     9.875024
      dxz     :     1.976185
      dyz     :     1.978621
      dx2y2   :     1.952570
      dxy     :     1.987550
      f0      :     0.000862  f :     0.005365
      f+1     :     0.000930
      f-1     :     0.000498
      f+2     :     0.000775
      f-2     :     0.000758
      f+3     :     0.000893
      f-3     :     0.000650
 15 Aus       :     2.519627  s :     2.519627
      pz      :     2.118487  p :     6.545302
      px      :     2.213414
      py      :     2.213401
      dz2     :     1.960525  d :     9.890924
      dxz     :     1.977069
      dyz     :     1.994089
      dx2y2   :     1.968571
      dxy     :     1.990670
      f0      :     0.000831  f :     0.006651
      f+1     :     0.000865
      f-1     :     0.000764
      f+2     :     0.001102
      f-2     :     0.000731
      f+3     :     0.001238
      f-3     :     0.001121
 16 Crs       :     6.245563  s :     6.245563
      pz      :     4.208776  p :    12.567932
      px      :     4.183614
      py      :     4.175543
      dz2     :     1.350848  d :     6.217527
      dxz     :     1.177728
      dyz     :     1.189172
      dx2y2   :     1.359705
      dxy     :     1.140074
      f0      :     0.000245  f :     0.001863
      f+1     :     0.000280
      f-1     :     0.000319
      f+2     :     0.000274
      f-2     :     0.000298
      f+3     :     0.000251
      f-3     :     0.000197

SPIN
  0 Aus       :    -0.018820  s :    -0.018820
      pz      :    -0.010732  p :    -0.018729
      px      :    -0.004544
      py      :    -0.003453
      dz2     :    -0.004564  d :    -0.022295
      dxz     :    -0.007771
      dyz     :    -0.002204
      dx2y2   :    -0.004000
      dxy     :    -0.003757
      f0      :    -0.000013  f :    -0.000114
      f+1     :    -0.000052
      f-1     :     0.000001
      f+2     :    -0.000012
      f-2     :    -0.000007
      f+3     :    -0.000007
      f-3     :    -0.000025
  1 Aus       :    -0.035762  s :    -0.035762
      pz      :    -0.003916  p :    -0.040065
      px      :    -0.026371
      py      :    -0.009778
      dz2     :    -0.003371  d :    -0.025706
      dxz     :    -0.003168
      dyz     :    -0.003602
      dx2y2   :    -0.008741
      dxy     :    -0.006825
      f0      :     0.000074  f :     0.000378
      f+1     :     0.000046
      f-1     :     0.000113
      f+2     :     0.000045
      f-2     :     0.000088
      f+3     :     0.000007
      f-3     :     0.000006
  2 Aus       :     0.007097  s :     0.007097
      pz      :    -0.018277  p :    -0.068646
      px      :    -0.052691
      py      :     0.002322
      dz2     :     0.001360  d :    -0.008430
      dxz     :    -0.001305
      dyz     :    -0.003233
      dx2y2   :     0.001853
      dxy     :    -0.007105
      f0      :     0.000003  f :    -0.000031
      f+1     :    -0.000007
      f-1     :    -0.000000
      f+2     :    -0.000007
      f-2     :    -0.000017
      f+3     :    -0.000015
      f-3     :     0.000012
  3 Aus       :    -0.096896  s :    -0.096896
      pz      :    -0.017278  p :    -0.045371
      px      :    -0.002753
      py      :    -0.025340
      dz2     :    -0.000608  d :    -0.011538
      dxz     :    -0.002246
      dyz     :    -0.002415
      dx2y2   :    -0.005219
      dxy     :    -0.001050
      f0      :    -0.000012  f :    -0.000050
      f+1     :    -0.000012
      f-1     :     0.000002
      f+2     :    -0.000009
      f-2     :    -0.000016
      f+3     :    -0.000005
      f-3     :     0.000003
  4 Aus       :    -0.037257  s :    -0.037257
      pz      :    -0.011880  p :    -0.013230
      px      :     0.004877
      py      :    -0.006227
      dz2     :    -0.001453  d :    -0.004779
      dxz     :    -0.005155
      dyz     :    -0.003788
      dx2y2   :    -0.001104
      dxy     :     0.006721
      f0      :     0.000042  f :     0.000271
      f+1     :     0.000008
      f-1     :     0.000004
      f+2     :     0.000049
      f-2     :     0.000042
      f+3     :     0.000065
      f-3     :     0.000060
  5 Aus       :    -0.100220  s :    -0.100220
      pz      :    -0.030344  p :    -0.042779
      px      :    -0.007361
      py      :    -0.005075
      dz2     :    -0.000904  d :    -0.011545
      dxz     :    -0.004258
      dyz     :    -0.004862
      dx2y2   :     0.000510
      dxy     :    -0.002032
      f0      :    -0.000009  f :    -0.000051
      f+1     :     0.000005
      f-1     :     0.000002
      f+2     :    -0.000019
      f-2     :     0.000001
      f+3     :    -0.000007
      f-3     :    -0.000024
  6 Aus       :     0.008321  s :     0.008321
      pz      :    -0.013484  p :    -0.014088
      px      :     0.004252
      py      :    -0.004856
      dz2     :    -0.019304  d :    -0.027844
      dxz     :    -0.001692
      dyz     :    -0.000931
      dx2y2   :    -0.002386
      dxy     :    -0.003532
      f0      :    -0.000036  f :    -0.000119
      f+1     :    -0.000002
      f-1     :    -0.000021
      f+2     :    -0.000015
      f-2     :    -0.000007
      f+3     :    -0.000021
      f-3     :    -0.000017
  7 Aus       :     0.008759  s :     0.008759
      pz      :    -0.001710  p :    -0.066686
      px      :    -0.053776
      py      :    -0.011200
      dz2     :    -0.000972  d :    -0.008298
      dxz     :    -0.004313
      dyz     :    -0.000927
      dx2y2   :     0.002111
      dxy     :    -0.004197
      f0      :     0.000002  f :    -0.000027
      f+1     :    -0.000008
      f-1     :    -0.000006
      f+2     :     0.000008
      f-2     :    -0.000008
      f+3     :    -0.000007
      f-3     :    -0.000009
  8 Aus       :    -0.070151  s :    -0.070151
      pz      :    -0.004559  p :    -0.040641
      px      :    -0.029965
      py      :    -0.006117
      dz2     :     0.009351  d :    -0.002282
      dxz     :    -0.002976
      dyz     :    -0.010652
      dx2y2   :    -0.001515
      dxy     :     0.003510
      f0      :     0.000055  f :     0.000433
      f+1     :     0.000036
      f-1     :     0.000146
      f+2     :     0.000051
      f-2     :     0.000098
      f+3     :     0.000034
      f-3     :     0.000013
  9 Aus       :    -0.036961  s :    -0.036961
      pz      :    -0.011164  p :    -0.038343
      px      :    -0.024337
      py      :    -0.002842
      dz2     :    -0.003530  d :    -0.026277
      dxz     :    -0.000136
      dyz     :     0.002354
      dx2y2   :    -0.005503
      dxy     :    -0.019462
      f0      :     0.000056  f :     0.000382
      f+1     :     0.000074
      f-1     :     0.000019
      f+2     :     0.000074
      f-2     :     0.000110
      f+3     :     0.000025
      f-3     :     0.000025
 10 Aus       :    -0.028175  s :    -0.028175
      pz      :    -0.016360  p :    -0.022126
      px      :    -0.006912
      py      :     0.001146
      dz2     :     0.003115  d :     0.013645
      dxz     :     0.001168
      dyz     :     0.001728
      dx2y2   :     0.000075
      dxy     :     0.007559
      f0      :     0.000011  f :     0.000325
      f+1     :     0.000007
      f-1     :     0.000113
      f+2     :    -0.000030
      f-2     :     0.000020
      f+3     :     0.000157
      f-3     :     0.000047
 11 Aus       :    -0.028558  s :    -0.028558
      pz      :    -0.000961  p :    -0.021976
      px      :    -0.010875
      py      :    -0.010140
      dz2     :     0.007486  d :     0.013466
      dxz     :     0.006289
      dyz     :     0.004250
      dx2y2   :    -0.003658
      dxy     :    -0.000901
      f0      :     0.000087  f :     0.000335
      f+1     :     0.000077
      f-1     :     0.000194
      f+2     :     0.000002
      f-2     :     0.000026
      f+3     :     0.000000
      f-3     :    -0.000051
 12 Aus       :    -0.067573  s :    -0.067573
      pz      :    -0.006871  p :    -0.040800
      px      :    -0.028517
      py      :    -0.005412
      dz2     :    -0.003727  d :    -0.001405
      dxz     :    -0.001716
      dyz     :     0.005430
      dx2y2   :     0.001477
      dxy     :    -0.002870
      f0      :     0.000066  f :     0.000443
      f+1     :     0.000040
      f-1     :     0.000054
      f+2     :     0.000104
      f-2     :     0.000113
      f+3     :     0.000041
      f-3     :     0.000026
 13 Aus       :    -0.043102  s :    -0.043102
      pz      :    -0.023787  p :    -0.038045
      px      :    -0.011371
      py      :    -0.002886
      dz2     :     0.001894  d :     0.021931
      dxz     :    -0.003374
      dyz     :     0.006041
      dx2y2   :     0.003732
      dxy     :     0.013639
      f0      :     0.000020  f :     0.000237
      f+1     :     0.000007
      f-1     :     0.000060
      f+2     :     0.000005
      f-2     :    -0.000009
      f+3     :     0.000109
      f-3     :     0.000045
 14 Aus       :    -0.026155  s :    -0.026155
      pz      :    -0.029481  p :    -0.045225
      px      :     0.000399
      py      :    -0.016143
      dz2     :    -0.008382  d :     0.002178
      dxz     :     0.006494
      dyz     :    -0.002650
      dx2y2   :     0.000720
      dxy     :     0.005996
      f0      :     0.000051  f :     0.000410
      f+1     :     0.000029
      f-1     :    -0.000003
      f+2     :     0.000103
      f-2     :     0.000035
      f+3     :     0.000114
      f-3     :     0.000081
 15 Aus       :    -0.042839  s :    -0.042839
      pz      :    -0.000659  p :    -0.037608
      px      :    -0.018248
      py      :    -0.018700
      dz2     :     0.009679  d :     0.021088
      dxz     :     0.009180
      dyz     :     0.003553
      dx2y2   :     0.001598
      dxy     :    -0.002921
      f0      :     0.000104  f :     0.000247
      f+1     :     0.000094
      f-1     :     0.000077
      f+2     :     0.000007
      f-2     :    -0.000016
      f+3     :    -0.000016
      f-3     :    -0.000003
 16 Crs       :     0.021862  s :     0.021862
      pz      :     0.012239  p :     0.038748
      px      :     0.013442
      py      :     0.013067
      dz2     :     0.764487  d :     3.217011
      dxz     :     0.374175
      dyz     :     0.602551
      dx2y2   :     0.823611
      dxy     :     0.652186
      f0      :     0.000014  f :     0.000054
      f+1     :     0.000009
      f-1     :     0.000011
      f+2     :     0.000014
      f-2     :    -0.000005
      f+3     :     0.000011
      f-3     :     0.000000


                      *****************************
                      * MAYER POPULATION ANALYSIS *
                      *****************************

  NA   - Mulliken gross atomic population
  ZA   - Total nuclear charge
  QA   - Mulliken gross atomic charge
  VA   - Mayer's total valence
  BVA  - Mayer's bonded valence
  FA   - Mayer's free valence

  ATOM       NA         ZA         QA         VA         BVA        FA
  0 Au    18.8077    19.0000     0.1923     1.6183     1.6141     0.0043
  1 Au    18.9701    19.0000     0.0299     2.1631     2.1556     0.0075
  2 Au    18.7605    19.0000     0.2395     1.6456     1.6431     0.0025
  3 Au    18.8185    19.0000     0.1815     1.5121     1.4585     0.0536
  4 Au    18.9977    19.0000     0.0023     2.1177     2.1121     0.0056
  5 Au    18.8211    19.0000     0.1789     1.5098     1.4533     0.0565
  6 Au    18.9741    19.0000     0.0259     1.7910     1.7896     0.0014
  7 Au    18.7584    19.0000     0.2416     1.6395     1.6371     0.0024
  8 Au    18.5182    19.0000     0.4818     1.6855     1.6724     0.0132
  9 Au    18.9715    19.0000     0.0285     2.1610     2.1533     0.0076
 10 Au    18.4911    19.0000     0.5089     1.5638     1.5622     0.0016
 11 Au    18.4911    19.0000     0.5089     1.5699     1.5682     0.0017
 12 Au    18.5155    19.0000     0.4845     1.6842     1.6719     0.0123
 13 Au    18.9461    19.0000     0.0539     1.9876     1.9785     0.0091
 14 Au    18.4647    19.0000     0.5353     1.5961     1.5935     0.0027
 15 Au    18.9501    19.0000     0.0499     1.9952     1.9861     0.0090
 16 Cr    27.7435    24.0000    -3.7435     9.8571     6.9286     2.9286

  Mayer bond orders larger than 0.100000
B(  0-Au,  2-Au) :   0.2325 B(  0-Au,  6-Au) :   0.2851 B(  0-Au,  7-Au) :   0.2297 
B(  0-Au, 13-Au) :   0.2486 B(  0-Au, 15-Au) :   0.2406 B(  0-Au, 16-Cr) :   0.2464 
B(  1-Au,  2-Au) :   0.2466 B(  1-Au,  3-Au) :   0.2566 B(  1-Au,  4-Au) :   0.1843 
B(  1-Au, 11-Au) :   0.2181 B(  1-Au, 12-Au) :   0.1560 B(  1-Au, 13-Au) :   0.1639 
B(  1-Au, 16-Cr) :   0.6313 B(  2-Au,  3-Au) :   0.2087 B(  2-Au,  6-Au) :   0.2942 
B(  2-Au, 13-Au) :   0.3102 B(  2-Au, 16-Cr) :   0.2358 B(  3-Au,  4-Au) :   0.2722 
B(  3-Au,  5-Au) :   0.1205 B(  3-Au,  6-Au) :   0.2906 B(  3-Au, 16-Cr) :   0.1635 
B(  4-Au,  5-Au) :   0.2797 B(  4-Au,  9-Au) :   0.1885 B(  4-Au, 10-Au) :   0.2000 
B(  4-Au, 11-Au) :   0.2001 B(  4-Au, 16-Cr) :   0.5439 B(  5-Au,  6-Au) :   0.2927 
B(  5-Au,  7-Au) :   0.2011 B(  5-Au,  9-Au) :   0.2524 B(  5-Au, 16-Cr) :   0.1598 
B(  6-Au,  7-Au) :   0.2939 B(  6-Au, 16-Cr) :   0.1023 B(  7-Au,  9-Au) :   0.2467 
B(  7-Au, 15-Au) :   0.3149 B(  7-Au, 16-Cr) :   0.2357 B(  8-Au,  9-Au) :   0.1525 
B(  8-Au, 10-Au) :   0.2208 B(  8-Au, 14-Au) :   0.2233 B(  8-Au, 15-Au) :   0.1324 
B(  8-Au, 16-Cr) :   0.7121 B(  9-Au, 10-Au) :   0.2186 B(  9-Au, 15-Au) :   0.1687 
B(  9-Au, 16-Cr) :   0.6297 B( 10-Au, 11-Au) :   0.2244 B( 10-Au, 16-Cr) :   0.4800 
B( 11-Au, 12-Au) :   0.2216 B( 11-Au, 16-Cr) :   0.4861 B( 12-Au, 13-Au) :   0.1339 
B( 12-Au, 14-Au) :   0.2252 B( 12-Au, 16-Cr) :   0.7045 B( 13-Au, 14-Au) :   0.2059 
B( 13-Au, 16-Cr) :   0.5258 B( 14-Au, 15-Au) :   0.2086 B( 14-Au, 16-Cr) :   0.5406 
B( 15-Au, 16-Cr) :   0.5310 

-------
TIMINGS
-------

Total SCF time: 0 days 1 hours 8 min 45 sec 

Total time                  ....    4125.308 sec
Sum of individual times     ....    4059.049 sec  ( 98.4%)

Fock matrix formation       ....    2504.165 sec  ( 60.7%)
  Split-RI-J                ....     627.404 sec  ( 25.1% of F)
  XC integration            ....    1624.385 sec  ( 64.9% of F)
    Basis function eval.    ....      95.057 sec  (  5.9% of XC)
    Density eval.           ....     786.769 sec  ( 48.4% of XC)
    XC-Functional eval.     ....      52.035 sec  (  3.2% of XC)
    XC-Potential eval.      ....     530.987 sec  ( 32.7% of XC)
Diagonalization             ....    1517.032 sec  ( 36.8%)
Density matrix formation    ....      26.206 sec  (  0.6%)
Population analysis         ....       2.775 sec  (  0.1%)
Initial guess               ....       0.842 sec  (  0.0%)
Orbital Transformation      ....       0.000 sec  (  0.0%)
Orbital Orthonormalization  ....       0.607 sec  (  0.0%)
DIIS solution               ....       0.000 sec  (  0.0%)
Grid generation             ....       8.029 sec  (  0.2%)

Maximum memory used throughout the entire SCF-calculation: 125.1 MB

-------------------------   --------------------
FINAL SINGLE POINT ENERGY     -3218.004955975574
-------------------------   --------------------


                            ***************************************
                            *     ORCA property calculations      *
                            ***************************************

                                    ---------------------
                                    Active property flags
                                    ---------------------
   (+) Dipole Moment


------------------------------------------------------------------------------
                       ORCA ELECTRIC PROPERTIES CALCULATION
------------------------------------------------------------------------------

Dipole Moment Calculation                       ... on
Quadrupole Moment Calculation                   ... off
Polarizability Calculation                      ... off
GBWName                                         ... scan_job2.gbw
Electron density                                ... scan_job2.scfp
The origin for moment calculation is the CENTER OF MASS  = (13.972217, 15.508899 15.057399)

-------------
DIPOLE MOMENT
-------------
                                X             Y             Z
Electronic contribution:     31.66025      29.02895      13.03678
Nuclear contribution   :    -32.31465     -29.74013     -13.37381
                        -----------------------------------------
Total Dipole Moment    :     -0.65440      -0.71118      -0.33703
                        -----------------------------------------
Magnitude (a.u.)       :      1.02353
Magnitude (Debye)      :      2.60160



--------------------
Rotational spectrum 
--------------------
 
Rotational constants in cm-1:     0.000949     0.000760     0.000752 
Rotational constants in MHz :    28.439881    22.793878    22.549729 

 Dipole components along the rotational axes: 
x,y,z [a.u.] :    -1.021222    -0.068600     0.002381 
x,y,z [Debye]:    -2.595739    -0.174368     0.006052 

 

Timings for individual modules:

Sum of individual times         ...     4161.214 sec (=  69.354 min)
GTO integral calculation        ...       34.759 sec (=   0.579 min)   0.8 %
SCF iterations                  ...     4126.455 sec (=  68.774 min)  99.2 %



                             ****ORCA TERMINATED NORMALLY****
TOTAL RUN TIME: 0 days 1 hours 29 minutes 4 seconds 370 msec
