
                                 *****************
                                 * O   R   C   A *
                                 *****************

                                            #,                                       
                                            ###                                      
                                            ####                                     
                                            #####                                    
                                            ######                                   
                                           ########,                                 
                                     ,,################,,,,,                         
                               ,,#################################,,                 
                          ,,##########################################,,             
                       ,#########################################, ''#####,          
                    ,#############################################,,   '####,        
                  ,##################################################,,,,####,       
                ,###########''''           ''''###############################       
              ,#####''   ,,,,##########,,,,          '''####'''          '####       
            ,##' ,,,,###########################,,,                        '##       
           ' ,,###''''                  '''############,,,                           
         ,,##''                                '''############,,,,        ,,,,,,###''
      ,#''                                            '''#######################'''  
     '                                                          ''''####''''         
             ,#######,   #######,   ,#######,      ##                                
            ,#'     '#,  ##    ##  ,#'     '#,    #''#        ######   ,####,        
            ##       ##  ##   ,#'  ##            #'  '#       #        #'  '#        
            ##       ##  #######   ##           ,######,      #####,   #    #        
            '#,     ,#'  ##    ##  '#,     ,#' ,#      #,         ##   #,  ,#        
             '#######'   ##     ##  '#######'  #'      '#     #####' # '####'        



                  #######################################################
                  #                        -***-                        #
                  #          Department of theory and spectroscopy      #
                  #    Directorship and core code : Frank Neese         #
                  #        Max Planck Institute fuer Kohlenforschung    #
                  #                Kaiser Wilhelm Platz 1               #
                  #                 D-45470 Muelheim/Ruhr               #
                  #                      Germany                        #
                  #                                                     #
                  #                  All rights reserved                #
                  #                        -***-                        #
                  #######################################################


                         Program Version 5.0.3 -  RELEASE  -


 With contributions from (in alphabetic order):
   Daniel Aravena         : Magnetic Suceptibility
   Michael Atanasov       : Ab Initio Ligand Field Theory (pilot matlab implementation)
   Alexander A. Auer      : GIAO ZORA, VPT2 properties, NMR spectrum
   Ute Becker             : Parallelization
   Giovanni Bistoni       : ED, misc. LED, open-shell LED, HFLD
   Martin Brehm           : Molecular dynamics
   Dmytro Bykov           : SCF Hessian
   Vijay G. Chilkuri      : MRCI spin determinant printing, contributions to CSF-ICE
   Dipayan Datta          : RHF DLPNO-CCSD density
   Achintya Kumar Dutta   : EOM-CC, STEOM-CC
   Dmitry Ganyushin       : Spin-Orbit,Spin-Spin,Magnetic field MRCI
   Miquel Garcia          : C-PCM and meta-GGA Hessian, CC/C-PCM, Gaussian charge scheme
   Yang Guo               : DLPNO-NEVPT2, F12-NEVPT2, CIM, IAO-localization
   Andreas Hansen         : Spin unrestricted coupled pair/coupled cluster methods
   Benjamin Helmich-Paris : MC-RPA, TRAH-SCF, COSX integrals
   Lee Huntington         : MR-EOM, pCC
   Robert Izsak           : Overlap fitted RIJCOSX, COSX-SCS-MP3, EOM
   Marcus Kettner         : VPT2
   Christian Kollmar      : KDIIS, OOCD, Brueckner-CCSD(T), CCSD density, CASPT2, CASPT2-K
   Simone Kossmann        : Meta GGA functionals, TD-DFT gradient, OOMP2, MP2 Hessian
   Martin Krupicka        : Initial AUTO-CI
   Lucas Lang             : DCDCAS
   Marvin Lechner         : AUTO-CI (C++ implementation), FIC-MRCC
   Dagmar Lenk            : GEPOL surface, SMD
   Dimitrios Liakos       : Extrapolation schemes; Compound Job, initial MDCI parallelization
   Dimitrios Manganas     : Further ROCIS development; embedding schemes
   Dimitrios Pantazis     : SARC Basis sets
   Anastasios Papadopoulos: AUTO-CI, single reference methods and gradients
   Taras Petrenko         : DFT Hessian,TD-DFT gradient, ASA, ECA, R-Raman, ABS, FL, XAS/XES, NRVS
   Peter Pinski           : DLPNO-MP2, DLPNO-MP2 Gradient
   Christoph Reimann      : Effective Core Potentials
   Marius Retegan         : Local ZFS, SOC
   Christoph Riplinger    : Optimizer, TS searches, QM/MM, DLPNO-CCSD(T), (RO)-DLPNO pert. Triples
   Tobias Risthaus        : Range-separated hybrids, TD-DFT gradient, RPA, STAB
   Michael Roemelt        : Original ROCIS implementation
   Masaaki Saitow         : Open-shell DLPNO-CCSD energy and density
   Barbara Sandhoefer     : DKH picture change effects
   Avijit Sen             : IP-ROCIS
   Kantharuban Sivalingam : CASSCF convergence, NEVPT2, FIC-MRCI
   Bernardo de Souza      : ESD, SOC TD-DFT
   Georgi Stoychev        : AutoAux, RI-MP2 NMR, DLPNO-MP2 response
   Willem Van den Heuvel  : Paramagnetic NMR
   Boris Wezisla          : Elementary symmetry handling
   Frank Wennmohs         : Technical directorship


 We gratefully acknowledge several colleagues who have allowed us to
 interface, adapt or use parts of their codes:
   Stefan Grimme, W. Hujo, H. Kruse, P. Pracht,  : VdW corrections, initial TS optimization,
                  C. Bannwarth, S. Ehlert          DFT functionals, gCP, sTDA/sTD-DF
   Ed Valeev, F. Pavosevic, A. Kumar             : LibInt (2-el integral package), F12 methods
   Garnet Chan, S. Sharma, J. Yang, R. Olivares  : DMRG
   Ulf Ekstrom                                   : XCFun DFT Library
   Mihaly Kallay                                 : mrcc  (arbitrary order and MRCC methods)
   Jiri Pittner, Ondrej Demel                    : Mk-CCSD
   Frank Weinhold                                : gennbo (NPA and NBO analysis)
   Christopher J. Cramer and Donald G. Truhlar   : smd solvation model
   Lars Goerigk                                  : TD-DFT with DH, B97 family of functionals
   V. Asgeirsson, H. Jonsson                     : NEB implementation
   FAccTs GmbH                                   : IRC, NEB, NEB-TS, DLPNO-Multilevel, CI-OPT
                                                   MM, QMMM, 2- and 3-layer-ONIOM, Crystal-QMMM,
                                                   LR-CPCM, SF, NACMEs, symmetry and pop. for TD-DFT,
                                                   nearIR, NL-DFT gradient (VV10), updates on ESD,
                                                   ML-optimized integration grids
   S Lehtola, MJT Oliveira, MAL Marques          : LibXC Library
   Liviu Ungur et al                             : ANISO software


 Your calculation uses the libint2 library for the computation of 2-el integrals
 For citations please refer to: http://libint.valeyev.net

 Your ORCA version has been built with support for libXC version: 5.1.0
 For citations please refer to: https://tddft.org/programs/libxc/

 This ORCA versions uses:
   CBLAS   interface :  Fast vector & matrix operations
   LAPACKE interface :  Fast linear algebra routines
   SCALAPACK package :  Parallel linear algebra routines
   Shared memory     :  Shared parallel matrices
   BLAS/LAPACK       :  OpenBLAS 0.3.15  USE64BITINT DYNAMIC_ARCH NO_AFFINITY Haswell SINGLE_THREADED
        Core in use  :  Haswell
   Copyright (c) 2011-2014, The OpenBLAS Project




***************************************
The coordinates will be read from file: 8.xyz
***************************************


================================================================================

cite the ECPs for Au [Def2-ECP] as follows:
Ce-Yb(ecp-28): M. Dolg, H. Stoll, H.Preuss, J. Chem. Phys., 1989, 90, 1730-1734.
Y-Cd(ecp-28), Hf-Hg(ecp-46): D. Andrae,U. Haeussermann, M. Dolg, H. Stoll, H. Preuss, Theor. Chim. Acta, 1990, 77, 123-141.
In-Sb(ecp-28), Tl-Bi(ecp-46): B. Metz, H. Stoll, M. Dolg, J. Chem. Phys., 2000, 113, 2563-2569.
Te-Xe(ecp-28), Po-Rn(ecp-46): K. A. Peterson, D. Figgen, E. Goll, H. Stoll, M. Dolg, J. Chem. Phys., 2003, 119, 11113-11123.
Rb(ecp-28), Cs(ecp-46): T. Leininger, A. Nicklass, W. Kuechle, H. Stoll, M. Dolg, A. Bergner, Chem. Phys. Lett., 1996, 255, 274-280.
Sr(ecp-28), Ba(ecp-46): M. Kaupp, P. V. Schleyer, H. Stoll and H. Preuss, J. Chem. Phys., 1991, 94, 1360-1366.
La(ecp-46): M. Dolg, H. Stoll, A. Savin, H. Preuss, Theor. Chim. Acta, 1989, 75, 173-194.
Lu(ecp-28): X. Cao, M. Dolg, J. Chem. Phys., 2001, 115, 7348-7355.

ECP parameters for Au [Def2-ECP] have been obtained from:
TURBOMOLE (7.0.2)

----- Orbital basis set information -----
Your calculation utilizes the basis: def2-TZVP
   F. Weigend and R. Ahlrichs, Phys. Chem. Chem. Phys. 7, 3297 (2005).

----- AuxJ basis set information -----
Your calculation utilizes the auxiliary basis: def2/J
   F. Weigend, Phys. Chem. Chem. Phys. 8, 1057 (2006).

================================================================================
                                        WARNINGS
                       Please study these warnings very carefully!
================================================================================


WARNING: your system is open-shell and RHF/RKS was chosen
  ===> : WILL SWITCH to UHF/UKS


WARNING: Geometry Optimization
  ===> : Switching off AutoStart
         For restart on a previous wavefunction, please use MOREAD

INFO   : the flag for use of the SHARK integral package has been found!

================================================================================
                                       INPUT FILE
================================================================================
NAME = pbe.inp
|  1> %pal nprocs 1 end 
|  2> 
|  3> !PBE def2-TZVP OPT UNO
|  4> !SLOWCONV KDIIS 
|  5> 
|  6> %geom maxiter 300 end
|  7> 
|  8> *xyzfile 0 3 8.xyz                           ****END OF INPUT****
================================================================================

                       *****************************
                       * Geometry Optimization Run *
                       *****************************

Geometry optimization settings:
Update method            Update   .... BFGS
Choice of coordinates    CoordSys .... Z-matrix Internals
Initial Hessian          InHess   .... Almoef's Model

Convergence Tolerances:
Energy Change            TolE     ....  5.0000e-06 Eh
Max. Gradient            TolMAXG  ....  3.0000e-04 Eh/bohr
RMS Gradient             TolRMSG  ....  1.0000e-04 Eh/bohr
Max. Displacement        TolMAXD  ....  4.0000e-03 bohr
RMS Displacement         TolRMSD  ....  2.0000e-03 bohr
Strict Convergence                ....  False
------------------------------------------------------------------------------
                        ORCA OPTIMIZATION COORDINATE SETUP
------------------------------------------------------------------------------

The optimization will be done in new redundant internal coordinates
Making redundant internal coordinates   ...  (new redundants) done
Evaluating the initial hessian          ...  (Almloef) done
Evaluating the coordinates              ...  done
Calculating the B-matrix                .... done
Calculating the G-matrix                .... done
Diagonalizing the G-matrix              .... done
The first mode is                       ....   57
The number of degrees of freedom        ....   27

    -----------------------------------------------------------------
                    Redundant Internal Coordinates


    -----------------------------------------------------------------
         Definition                    Initial Value    Approx d2E/dq
    -----------------------------------------------------------------
      1. B(Au  5,Au  0)                  2.7990         0.006837   
      2. B(Au  6,Au  5)                  2.7667         0.007698   
      3. B(Au  8,Au  5)                  2.7861         0.007171   
      4. B(Cr 10,Au  2)                  2.5659         0.117044   
      5. B(Cr 10,Au  6)                  2.7426         0.061164   
      6. B(Cr 10,Au  7)                  2.5818         0.110405   
      7. B(Cr 10,Au  4)                  2.5951         0.105139   
      8. B(Cr 10,Au  9)                  2.5654         0.117261   
      9. B(Cr 10,Au  8)                  2.6239         0.094576   
     10. B(Cr 10,Au  3)                  2.5978         0.104090   
     11. B(Cr 10,Au  1)                  2.5803         0.111016   
     12. B(Cr 10,Au  0)                  2.6275         0.093352   
     13. A(Au  5,Au  0,Cr 10)          101.9367         0.188739   
     14. A(Au  0,Au  5,Au  8)           68.0561         0.138751   
     15. A(Au  0,Au  5,Au  6)           62.7907         0.139556   
     16. A(Au  6,Au  5,Au  8)           63.0020         0.140105   
     17. A(Au  5,Au  6,Cr 10)           99.8798         0.182103   
     18. A(Au  5,Au  8,Cr 10)          102.3752         0.190120   
     19. A(Au  0,Cr 10,Au  4)          108.7177         0.296636   
     20. A(Au  2,Cr 10,Au  3)          112.4310         0.307047   
     21. A(Au  1,Cr 10,Au  2)           96.4521         0.310250   
     22. A(Au  0,Cr 10,Au  6)           65.3197         0.272677   
     23. A(Au  1,Cr 10,Au  6)          127.6910         0.280025   
     24. A(Au  2,Cr 10,Au  6)           62.5816         0.282325   
     25. A(Au  3,Cr 10,Au  6)          126.8261         0.277260   
     26. A(Au  4,Cr 10,Au  6)          127.1003         0.277687   
     27. A(Au  3,Cr 10,Au  4)           66.0225         0.301817   
     28. A(Au  1,Cr 10,Au  3)          105.3164         0.304453   
     29. A(Au  3,Cr 10,Au  7)           67.2505         0.304184   
     30. A(Au  2,Cr 10,Au  7)          168.7633         0.309974   
     31. A(Au  4,Cr 10,Au  7)          105.4095         0.304673   
     32. A(Au  6,Cr 10,Au  7)          127.2724         0.279786   
     33. A(Au  0,Cr 10,Au  8)           73.0479         0.291720   
     34. A(Au  1,Cr 10,Au  8)          103.7222         0.299830   
     35. A(Au  2,Cr 10,Au  8)          125.9426         0.302368   
     36. A(Au  3,Cr 10,Au  8)          109.5759         0.296778   
     37. A(Au  4,Cr 10,Au  8)          167.2698         0.297250   
     38. A(Au  6,Cr 10,Au  8)           65.4135         0.273220   
     39. A(Au  7,Cr 10,Au  8)           62.4226         0.299566   
     40. A(Au  0,Cr 10,Au  9)          126.0539         0.301828   
     41. A(Au  1,Cr 10,Au  9)          168.5519         0.310342   
     42. A(Au  2,Cr 10,Au  9)           93.5627         0.313007   
     43. A(Au  2,Cr 10,Au  4)           65.5910         0.307542   
     44. A(Au  7,Cr 10,Au  9)           96.2620         0.310066   
     45. A(Au  6,Cr 10,Au  9)           62.3163         0.282405   
     46. A(Au  1,Cr 10,Au  7)           73.2737         0.307345   
     47. A(Au  8,Cr 10,Au  9)           74.5079         0.302457   
     48. A(Au  4,Cr 10,Au  9)          112.2378         0.307634   
     49. A(Au  3,Cr 10,Au  9)           65.4919         0.307138   
     50. A(Au  0,Cr 10,Au  7)          105.1662         0.298946   
     51. A(Au  1,Cr 10,Au  4)           67.4273         0.304943   
     52. A(Au  0,Cr 10,Au  3)          167.7919         0.296166   
     53. A(Au  0,Cr 10,Au  2)           73.0209         0.301739   
     54. A(Au  0,Cr 10,Au  1)           62.7011         0.299209   
     55. D(Au  6,Au  5,Au  0,Cr 10)    -41.6234         0.001501   
     56. D(Au  8,Au  5,Au  0,Cr 10)     28.3061         0.001501   
     57. D(Cr 10,Au  6,Au  5,Au  8)    -38.7028         0.001501   
     58. D(Cr 10,Au  6,Au  5,Au  0)     39.1955         0.001501   
     59. D(Cr 10,Au  8,Au  5,Au  0)    -28.3988         0.001501   
     60. D(Cr 10,Au  8,Au  5,Au  6)     41.2371         0.001501   
     61. D(Au  1,Cr 10,Au  0,Au  5)   -145.0973         0.001538   
     62. D(Au  1,Cr 10,Au  8,Au  5)     84.8162         0.001538   
     63. D(Au  7,Cr 10,Au  0,Au  5)    -83.4864         0.001538   
     64. D(Au  6,Cr 10,Au  0,Au  5)     40.9838         0.001538   
     65. D(Au  2,Cr 10,Au  8,Au  5)    -23.8415         0.001538   
     66. D(Au  8,Cr 10,Au  0,Au  5)    -29.2233         0.001538   
     67. D(Au  9,Cr 10,Au  0,Au  5)     26.2147         0.001538   
     68. D(Au  0,Cr 10,Au  6,Au  5)    -41.2180         0.001517   
     69. D(Au  7,Cr 10,Au  6,Au  5)     49.4751         0.001517   
     70. D(Au  4,Cr 10,Au  0,Au  5)    164.0237         0.001538   
     71. D(Au  4,Cr 10,Au  6,Au  5)   -136.6838         0.001517   
     72. D(Au  3,Cr 10,Au  6,Au  5)    137.3418         0.001517   
     73. D(Au  3,Cr 10,Au  0,Au  5)   -133.5569         0.001538   
     74. D(Au  8,Cr 10,Au  6,Au  5)     40.5826         0.001517   
     75. D(Au  9,Cr 10,Au  6,Au  5)    125.3236         0.001517   
     76. D(Au  0,Cr 10,Au  8,Au  5)     29.4261         0.001538   
     77. D(Au  2,Cr 10,Au  6,Au  5)   -124.1144         0.001517   
     78. D(Au  1,Cr 10,Au  6,Au  5)    -48.0502         0.001517   
     79. D(Au  3,Cr 10,Au  8,Au  5)   -163.1332         0.001538   
     80. D(Au  4,Cr 10,Au  8,Au  5)    129.3978         0.001538   
     81. D(Au  6,Cr 10,Au  8,Au  5)    -40.6619         0.001538   
     82. D(Au  7,Cr 10,Au  8,Au  5)    147.3152         0.001538   
     83. D(Au  9,Cr 10,Au  8,Au  5)   -106.8740         0.001538   
     84. D(Au  2,Cr 10,Au  0,Au  5)    108.0564         0.001538   
    -----------------------------------------------------------------

Number of atoms                         .... 11
Number of degrees of freedom            .... 84

         *************************************************************
         *                GEOMETRY OPTIMIZATION CYCLE   1            *
         *************************************************************
---------------------------------
CARTESIAN COORDINATES (ANGSTROEM)
---------------------------------
  Au     8.891076    3.969855    8.160780
  Au     6.623297    4.636283    9.485890
  Au     7.275614    4.954255    5.717160
  Au     6.274511    8.455319    7.988745
  Au     5.210335    5.916222    7.337128
  Au    11.598919    4.643006    7.939226
  Au     9.845763    5.854155    6.174443
  Au     7.783539    7.401945   10.188848
  Au    10.076825    6.759845    8.921223
  Au     8.678987    8.312574    6.574855
  Cr     7.723968    6.303700    7.853024

----------------------------
CARTESIAN COORDINATES (A.U.)
----------------------------
  NO LB      ZA    FRAG     MASS         X           Y           Z
   0 Au   19.0000*   0   196.966   16.801699    7.501939   15.421638
   1 Au   19.0000*   0   196.966   12.516217    8.761305   17.925734
   2 Au   19.0000*   0   196.966   13.748918    9.362185   10.803867
   3 Au   19.0000*   0   196.966   11.857106   15.978238   15.096540
   4 Au   19.0000*   0   196.966    9.846106   11.180039   13.865162
   5 Au   19.0000*   0   196.966   21.918781    8.774009   15.002963
   6 Au   19.0000*   0   196.966   18.605796   11.062750   11.668006
   7 Au   19.0000*   0   196.966   14.708757   13.987648   19.254133
   8 Au   19.0000*   0   196.966   19.042439   12.774257   16.858668
   9 Au   19.0000*   0   196.966   16.400909   15.708488   12.424675
  10 Cr   24.0000    0    52.000   14.596185   11.912266   14.840065
* core charge reduced due to ECP

--------------------------------
INTERNAL COORDINATES (ANGSTROEM)
--------------------------------
 Au     0   0   0     0.000000000000     0.00000000     0.00000000
 Au     1   0   0     2.709772835232     0.00000000     0.00000000
 Au     1   2   0     3.090313414792    82.57972140     0.00000000
 Au     2   1   3     4.116810715561    96.96208249   308.42204118
 Au     3   1   2     2.795541475886    92.15433665     7.94176799
 Au     1   2   3     2.799040932304   142.10922891   115.75179448
 Au     3   1   2     2.761266647990    59.08901968   130.40703151
 Au     4   2   1     2.868312930766    48.37900528   275.80163491
 Au     8   4   2     2.697836979035   100.03283404    89.51578026
 Au     7   3   1     2.750549049360    85.44355148   245.80354768
 Cr    10   7   3     2.565415017162    62.00151190    50.78391409

---------------------------
INTERNAL COORDINATES (A.U.)
---------------------------
 Au     0   0   0     0.000000000000     0.00000000     0.00000000
 Au     1   0   0     5.120728543727     0.00000000     0.00000000
 Au     1   2   0     5.839846021940    82.57972140     0.00000000
 Au     2   1   3     7.779644797602    96.96208249   308.42204118
 Au     3   1   2     5.282807785443    92.15433665     7.94176799
 Au     1   2   3     5.289420799690   142.10922891   115.75179448
 Au     3   1   2     5.218037747432    59.08901968   130.40703151
 Au     4   2   1     5.420325905532    48.37900528   275.80163491
 Au     8   4   2     5.098173044342   100.03283404    89.51578026
 Au     7   3   1     5.197784421208    85.44355148   245.80354768
 Cr    10   7   3     4.847931802286    62.00151190    50.78391409

---------------------
BASIS SET INFORMATION
---------------------
There are 2 groups of distinct atoms

 Group   1 Type Au  : 8s7p6d1f contracted to 6s4p3d1f pattern {311111/4111/411/1}
 Group   2 Type Cr  : 17s11p7d1f contracted to 6s4p4d1f pattern {842111/6311/4111/1}

Atom   0Au   basis set group =>   1
Atom   1Au   basis set group =>   1
Atom   2Au   basis set group =>   1
Atom   3Au   basis set group =>   1
Atom   4Au   basis set group =>   1
Atom   5Au   basis set group =>   1
Atom   6Au   basis set group =>   1
Atom   7Au   basis set group =>   1
Atom   8Au   basis set group =>   1
Atom   9Au   basis set group =>   1
Atom  10Cr   basis set group =>   2
---------------------------------
AUXILIARY/J BASIS SET INFORMATION
---------------------------------
There are 2 groups of distinct atoms

 Group   1 Type Au  : 11s5p5d3f3g contracted to 8s5p5d2f3g pattern {41111111/11111/11111/21/111}
 Group   2 Type Cr  : 19s5p5d3f3g contracted to 8s5p5d2f3g pattern {121111111/11111/11111/21/111}

Atom   0Au   basis set group =>   1
Atom   1Au   basis set group =>   1
Atom   2Au   basis set group =>   1
Atom   3Au   basis set group =>   1
Atom   4Au   basis set group =>   1
Atom   5Au   basis set group =>   1
Atom   6Au   basis set group =>   1
Atom   7Au   basis set group =>   1
Atom   8Au   basis set group =>   1
Atom   9Au   basis set group =>   1
Atom  10Cr   basis set group =>   2
-------------------------
ECP PARAMETER INFORMATION
-------------------------

 Group 1, Type Au ECP Def2-ECP (replacing 60 core electrons, lmax=3)

Atom   0Au   ECP group =>   1
Atom   1Au   ECP group =>   1
Atom   2Au   ECP group =>   1
Atom   3Au   ECP group =>   1
Atom   4Au   ECP group =>   1
Atom   5Au   ECP group =>   1
Atom   6Au   ECP group =>   1
Atom   7Au   ECP group =>   1
Atom   8Au   ECP group =>   1
Atom   9Au   ECP group =>   1

------------------------------------------------------------------------------
                           ORCA GTO INTEGRAL CALCULATION
                           -- RI-GTO INTEGRALS CHOSEN --
------------------------------------------------------------------------------
------------------------------------------------------------------------------
                   ___                                                        
                  /   \      - P O W E R E D   B Y -                         
                 /     \                                                     
                 |  |  |   _    _      __       _____    __    __             
                 |  |  |  | |  | |    /  \     |  _  \  |  |  /  |          
                  \  \/   | |  | |   /    \    | | | |  |  | /  /          
                 / \  \   | |__| |  /  /\  \   | |_| |  |  |/  /          
                |  |  |   |  __  | /  /__\  \  |    /   |      \           
                |  |  |   | |  | | |   __   |  |    \   |  |\   \          
                \     /   | |  | | |  |  |  |  | |\  \  |  | \   \       
                 \___/    |_|  |_| |__|  |__|  |_| \__\ |__|  \__/        
                                                                              
                      - O R C A' S   B I G   F R I E N D -                    
                                      &                                       
                       - I N T E G R A L  F E E D E R -                       
                                                                              
 v1 FN, 2020, v2 2021                                                         
------------------------------------------------------------------------------


Reading SHARK input file pbe.SHARKINP.tmp ... ok
----------------------
SHARK INTEGRAL PACKAGE
----------------------

Number of atoms                             ...     11
Number of basis functions                   ...    445
Number of shells                            ...    155
Maximum angular momentum                    ...      3
Integral batch strategy                     ... SHARK/LIBINT Hybrid
RI-J (if used) integral strategy            ... SPLIT-RIJ (Revised 2003 algorithm where possible)
Printlevel                                  ...      1
Contraction scheme used                     ... SEGMENTED contraction
Coulomb Range Separation                    ... NOT USED
Exchange Range Separation                   ... NOT USED
Finite Nucleus Model                        ... NOT USED
Auxiliary Coulomb fitting basis             ... AVAILABLE
   # of basis functions in Aux-J            ...    979
   # of shells in Aux-J                     ...    253
   Maximum angular momentum in Aux-J        ...      4
Auxiliary J/K fitting basis                 ... NOT available
Auxiliary Correlation fitting basis         ... NOT available
Auxiliary 'external' fitting basis          ... NOT available
Integral threshold                          ...     2.500000e-11
Primitive cut-off                           ...     2.500000e-12
Primitive pair pre-selection threshold      ...     2.500000e-12

Calculating pre-screening integrals         ... done (  0.2 sec) Dimension = 155
Organizing shell pair data                  ... done (  0.3 sec)
Shell pair information
Total number of shell pairs                 ...     12090
Shell pairs after pre-screening             ...     10210
Total number of primitive shell pairs       ...     33105
Primitive shell pairs kept                  ...     20747
          la=0 lb=0:   1585 shell pairs
          la=1 lb=0:   2336 shell pairs
          la=1 lb=1:    879 shell pairs
          la=2 lb=0:   2014 shell pairs
          la=2 lb=1:   1405 shell pairs
          la=2 lb=2:    578 shell pairs
          la=3 lb=0:    565 shell pairs
          la=3 lb=1:    430 shell pairs
          la=3 lb=2:    354 shell pairs
          la=3 lb=3:     64 shell pairs

Calculating one electron integrals          ... done (  0.1 sec)
Calculating ECP integrals                   ... done (  5.7 sec)
Calculating RI/J V-Matrix + Cholesky decomp.... done (  0.0 sec)
Calculating Nuclear repulsion               ... done (  0.0 sec) ENN=   3206.584525756485 Eh

SHARK setup successfully completed in   6.9 seconds

Maximum memory used throughout the entire GTOINT-calculation: 310.3 MB
-------------------------------------------------------------------------------
                                 ORCA SCF
-------------------------------------------------------------------------------

------------
SCF SETTINGS
------------
Hamiltonian:
 Density Functional     Method          .... DFT(GTOs)
 Exchange Functional    Exchange        .... PBE
   PBE kappa parameter   XKappa         ....  0.804000
   PBE mue parameter    XMuePBE         ....  0.219520
 Correlation Functional Correlation     .... PBE
   PBE beta parameter  CBetaPBE         ....  0.066725
 LDA part of GGA corr.  LDAOpt          .... PW91-LDA
 Gradients option       PostSCFGGA      .... off
   Density functional embedding theory  .... OFF
   NL short-range parameter             ....  6.400000
 RI-approximation to the Coulomb term is turned on
   Number of AuxJ basis functions       .... 979


General Settings:
 Integral files         IntName         .... pbe
 Hartree-Fock type      HFTyp           .... UHF
 Total Charge           Charge          ....    0
 Multiplicity           Mult            ....    3
 Number of Electrons    NEL             ....  214
 Basis Dimension        Dim             ....  445
 Nuclear Repulsion      ENuc            ....   3206.5845257565 Eh

Convergence Acceleration:
 DIIS                   CNVDIIS         .... off
 Trust-Rad. Augm. Hess. CNVTRAH         .... auto
   Auto Start mean grad. ratio tolernc. ....  1.125000
   Auto Start start iteration           ....    20
   Auto Start num. interpolation iter.  ....    10
   Max. Number of Micro iterations      ....    16
   Max. Number of Macro iterations      .... Maxiter - #DIIS iter
   Number of Davidson start vectors     ....     2
   Converg. threshold I  (grad. norm)   ....   1.000e-05
   Converg. threshold II (energy diff.) ....   1.000e-08
   Grad. Scal. Fac. for Micro threshold ....   0.100
   Minimum threshold for Micro iter.    ....   0.010
   NR start threshold (gradient norm)   ....   0.001
   Initial trust radius                 ....   0.400
   Minimum AH scaling param. (alpha)    ....   1.000
   Maximum AH scaling param. (alpha)    .... 1000.000
   Orbital update algorithm             .... Taylor
   White noise on init. David. guess    .... on
   Maximum white noise                  ....   0.010
   Quad. conv. algorithm                .... NR
 SOSCF                  CNVSOSCF        .... off
 Level Shifting         CNVShift        .... off
 Zerner damping         CNVZerner       .... off
 Static damping         CNVDamp         .... off
 Fernandez-Rico         CNVRico         .... off

SCF Procedure:
 Maximum # iterations   MaxIter         ....   125
 SCF integral mode      SCFMode         .... Direct
   Integral package                     .... SHARK and LIBINT hybrid scheme
 Reset frequency        DirectResetFreq ....    20
 Integral Threshold     Thresh          ....  2.500e-11 Eh
 Primitive CutOff       TCut            ....  2.500e-12 Eh

Convergence Tolerance:
 Convergence Check Mode ConvCheckMode   .... Total+1el-Energy
 Convergence forced     ConvForced      .... 0
 Energy Change          TolE            ....  1.000e-08 Eh
 1-El. energy change                    ....  1.000e-05 Eh


Diagonalization of the overlap matrix:
Smallest eigenvalue                        ... 1.854e-04
Time for diagonalization                   ...    0.025 sec
Threshold for overlap eigenvalues          ... 1.000e-08
Number of eigenvalues below threshold      ... 0
Time for construction of square roots      ...    0.012 sec
Total time needed                          ...    0.037 sec

Time for model grid setup =    0.959 sec

------------------------------
INITIAL GUESS: MODEL POTENTIAL
------------------------------
Loading Hartree-Fock densities                     ... done
  calling /media/Programs/ORCA501/orca pbe_atom79.inp > pbe_atom79.out in order to generate an atomic fitting density for atom 0 (Au with ECP) on-the-fly... 
    atom 0 (Au), assumed electronic state with S=2: 1s2 2s2 2p6 3s2 3p6 4s2 3d10 4p6 5s2 4d10 5p6 6s1 4f14 5d10           ... done
Calculating cut-offs                               ... done
Initializing the effective Hamiltonian             ... done
Setting up the integral package (SHARK)            ... done
Starting the Coulomb interaction                   ... done (   1.4 sec)
Reading the grid                                   ... done
Mapping shells                                     ... done
Starting the XC term evaluation                    ... done (   1.8 sec)
  promolecular density results
     # of electrons  =    814.011649090
     EX              =  -3705.458717448
     EC              =    -49.440538582
     EX+EC           =  -3754.899256031
Transforming the Hamiltonian                       ... done (   0.0 sec)
Diagonalizing the Hamiltonian                      ... done (   0.0 sec)
Back transforming the eigenvectors                 ... done (   0.0 sec)
Now organizing SCF variables                       ... done
                      ------------------
                      INITIAL GUESS DONE (   5.2 sec)
                      ------------------
-------------------
DFT GRID GENERATION
-------------------

General Integration Accuracy     IntAcc      ... 4.388
Radial Grid Type                 RadialGrid  ... OptM3 with GC (2021)
Angular Grid (max. ang.)         AngularGrid ... 4 (Lebedev-302)
Angular grid pruning method      GridPruning ... 4 (adaptive)
Weight generation scheme         WeightScheme... Becke
Basis function cutoff            BFCut       ... 1.0000e-11
Integration weight cutoff        WCut        ... 1.0000e-14
Angular grids for H and He will be reduced by one unit
Partially contracted basis set               ... off
Rotationally invariant grid construction     ... off

Total number of grid points                  ...   123181
Total number of batches                      ...     1929
Average number of points per batch           ...       63
Average number of grid points per atom       ...    11198
Time for grid setup =    2.125 sec

--------------
SCF ITERATIONS
--------------
ITER       Energy         Delta-E        Max-DP      RMS-DP      [F,P]   Gradient Norm
               ***  Starting incremental Fock matrix formation  ***
                             ****Resetting KDIIS****
                             ****Turning on KDIIS(Cayley)****
  0  -2400.6697751077   0.000000000000 0.35448637  0.00237503  0.3780445   0.224796832
  1  -2401.7021754468  -1.032400339157 0.70022410  0.00249459  0.3380213   0.167793837
  2  -2402.1452702954  -0.443094848518 0.25636106  0.00161971  0.2669432   0.123753133
  3  -2402.3306946184  -0.185424323099 0.16045486  0.00168338  0.1557451   0.071721755
  4  -2402.3596567449  -0.028962126438 0.08421065  0.00068575  0.0385197   0.025965074
  5  -2402.4051925556  -0.045535810747 0.11561238  0.00067794  0.0181565   0.005570432
  6  -2402.4117508995  -0.006558343866 0.11530299  0.00056627  0.0187682   0.006249430
  7  -2402.4172963662  -0.005545466738 0.07981560  0.00039213  0.0146618   0.005361711
  8  -2402.4140463030   0.003250063243 0.10387530  0.00037047  0.0130394   0.009380936
  9  -2402.4215811179  -0.007534814950 0.02381215  0.00012161  0.0066799   0.001566904
 10  -2402.4225848041  -0.001003686178 0.01813974  0.00008592  0.0076420   0.001904895
 11  -2402.4235179969  -0.000933192807 0.01399038  0.00005693  0.0078929   0.001252198
 12  -2402.4236793318  -0.000161334830 0.00318783  0.00005579  0.0077829   0.001400058
 13  -2402.4243298729  -0.000650541144 0.00612081  0.00006159  0.0081918   0.000976976
 14  -2402.4251436683  -0.000813795406 0.00185713  0.00002078  0.0086814   0.000913953
 15  -2402.4248615448   0.000282123508 0.00628477  0.00002913  0.0085840   0.000932608
 16  -2402.4245227159   0.000338828865 0.00248886  0.00002149  0.0083485   0.000892695
 17  -2402.4246119341  -0.000089218138 0.00709787  0.00003131  0.0083890   0.001029464
 18  -2402.4244195301   0.000192403937 0.00379356  0.00002944  0.0082211   0.001009523
 19  -2402.4243756897   0.000043840438 0.00667546  0.00006698  0.0082940   0.001124503
               *** Restarting incremental Fock matrix formation ***
                             ****Resetting KDIIS****

 WARNING: the maximum gradient error descreased on average only by a factor   1.0
          during the last 20 iterations

                      *** Initiating the TRAH-SCF procedure ***

                    *** KDIIS BlockDiag ( 0.054 sec) ***

TRAH GRID
---------

General Integration Accuracy     IntAcc      ... 3.467
Radial Grid Type                 RadialGrid  ... OptM3 with GC (2021)
Angular Grid (max. ang.)         AngularGrid ... 1 (Lebedev-50)
Angular grid pruning method      GridPruning ... 4 (adaptive)
Weight generation scheme         WeightScheme... Becke
Basis function cutoff            BFCut       ... 1.0000e-11
Integration weight cutoff        WCut        ... 1.0000e-14
Angular grids for H and He will be reduced by one unit
Partially contracted basis set               ... off
Rotationally invariant grid construction     ... off

Total number of grid points                  ...    53204
Total number of batches                      ...      838
Average number of points per batch           ...       63
Average number of grid points per atom       ...     4837

 --------------------------------------------------------------------------------------------
   Iter.        energy            ||Error||_2        Shift      TRadius  Mac/Mic        Rej.
 --------------------------------------------------------------------------------------------
WARNING: 4 diagonal Hessian elements are negative!
    0      -2402.425131705791     1.735924e-02                     0.400 (TRAH MAcro)   No
WARNING : negative HOMO - LUMO gap : (op = alpha) -0.002757
WARNING : negative HOMO - LUMO gap : (op =  beta) -0.041623
    0     dE    -7.653372e-05     4.090350e-02    -7.6532e-05      0.004 (TRAH MIcro)
    0     dE    -8.314217e-04     5.145274e-02    -8.1540e-04      0.140 (TRAH MIcro)
    0     dE    -1.227025e-03     1.927530e-02    -1.1782e-03      0.204 (TRAH MIcro)
    0     dE    -1.545278e-03     4.321434e-02    -1.4520e-03      0.253 (TRAH MIcro)
    0     dE    -2.999943e-03     5.098149e-02    -3.9634e-03      0.400 (TRAH MIcro)
    0     dE    -3.969479e-03     3.359715e-02    -1.0468e-02      0.400 (TRAH MIcro)
    0     dE    -5.010363e-03     4.446907e-02    -1.5441e-02      0.400 (TRAH MIcro)
    0     dE    -5.988835e-03     5.935950e-02    -2.5447e-02      0.347 (TRAH MIcro)
    0     dE    -9.673346e-03     5.014063e-02    -3.5926e-02      0.393 (TRAH MIcro)
    0     dE    -1.175396e-02     2.621064e-02    -4.5111e-02      0.400 (TRAH MIcro)
    0     dE    -1.224763e-02     1.594679e-02    -4.8012e-02      0.400 (TRAH MIcro)
    0     dE    -1.236106e-02     6.732499e-03    -4.8621e-02      0.400 (TRAH MIcro)
    0     dE    -1.238412e-02     2.926292e-03    -4.8741e-02      0.400 (TRAH MIcro)
    0     dE    -1.238910e-02     1.679268e-03    -4.8760e-02      0.400 (TRAH MIcro)
WARNING: 1 diagonal Hessian elements are negative!
    1      -2402.435725931535     4.129023e-02                     0.480 (TRAH MAcro)   No
WARNING : small    HOMO - LUMO gap : (op = alpha) 0.016452
WARNING : negative HOMO - LUMO gap : (op =  beta) -0.021694
    1     dE    -4.371555e-04     3.833120e-02    -4.3711e-04      0.011 (TRAH MIcro)
    1     dE    -1.046224e-02     1.479548e-01    -1.6598e-02      0.480 (TRAH MIcro)
    1     dE    -1.360900e-02     3.342123e-02    -2.8040e-02      0.479 (TRAH MIcro)
    1     dE    -1.453891e-02     2.176116e-02    -3.0989e-02      0.480 (TRAH MIcro)
    1     dE    -1.489537e-02     1.076818e-02    -3.2296e-02      0.480 (TRAH MIcro)
    1     dE    -1.496619e-02     6.538680e-03    -3.2600e-02      0.480 (TRAH MIcro)
    1     dE    -1.499648e-02     3.742657e-03    -3.2717e-02      0.480 (TRAH MIcro)
WARNING: 1 diagonal Hessian elements are negative!
    2      -2402.448587828236     3.169684e-02                     0.576 (TRAH MAcro)   No
WARNING : small    HOMO - LUMO gap : (op = alpha) 0.018359
WARNING : negative HOMO - LUMO gap : (op =  beta) -0.021936
    2     dE    -2.397975e-04     5.136467e-02    -2.3978e-04      0.008 (TRAH MIcro)
    2     dE    -2.901970e-03     9.139903e-02    -2.7574e-03      0.229 (TRAH MIcro)
    2     dE    -5.872498e-03     2.954114e-02    -4.9055e-03      0.444 (TRAH MIcro)
    2     dE    -6.511838e-03     1.967506e-02    -5.3063e-03      0.477 (TRAH MIcro)
    2     dE    -7.069122e-03     1.412144e-02    -5.6138e-03      0.509 (TRAH MIcro)
    2     dE    -7.272153e-03     9.564140e-03    -5.7204e-03      0.521 (TRAH MIcro)
    2     dE    -7.379087e-03     5.101976e-03    -5.7656e-03      0.529 (TRAH MIcro)
    2     dE    -7.406003e-03     3.146862e-03    -5.7746e-03      0.532 (TRAH MIcro)
WARNING: 1 diagonal Hessian elements are negative!
    3      -2402.453335158482     3.528750e-02                     0.576 (TRAH MAcro)   No
WARNING : negative HOMO - LUMO gap : (op =  beta) -0.017727
    3     dE    -2.834988e-04     7.192210e-02    -2.8348e-04      0.008 (TRAH MIcro)
    3     dE    -6.576061e-04     2.809909e-02    -6.5635e-04      0.044 (TRAH MIcro)
    3     dE    -9.551570e-04     1.284762e-02    -9.4580e-04      0.099 (TRAH MIcro)
    3     dE    -1.121620e-03     7.286270e-03    -1.1012e-03      0.136 (TRAH MIcro)
    3     dE    -1.147360e-03     3.509625e-03    -1.1240e-03      0.144 (TRAH MIcro)
WARNING: 1 diagonal Hessian elements are negative!
    4      -2402.454308371987     9.703405e-03                     0.691 (TRAH MAcro)   No
WARNING : negative HOMO - LUMO gap : (op =  beta) -0.016209
    4     dE    -8.151444e-06     3.614467e-02    -8.1514e-06      0.001 (TRAH MIcro)
    4     dE    -3.564016e-05     3.990888e-03    -3.5639e-05      0.006 (TRAH MIcro)
    4     dE    -7.529332e-05     3.934218e-03    -7.5234e-05      0.028 (TRAH MIcro)
    4     dE    -8.560165e-05     2.188420e-03    -8.5497e-05      0.035 (TRAH MIcro)
    4     dE    -8.745981e-05     1.530040e-03    -8.7338e-05      0.037 (TRAH MIcro)
    4     dE    -8.879965e-05     1.339656e-03    -8.8660e-05      0.040 (TRAH MIcro)
    4     dE    -8.969697e-05     1.346390e-03    -8.9541e-05      0.042 (TRAH MIcro)
    4     dE    -9.062290e-05     1.426585e-03    -9.0447e-05      0.044 (TRAH MIcro)
    4     dE    -9.163764e-05     1.425624e-03    -9.1443e-05      0.046 (TRAH MIcro)
    4     dE    -9.324513e-05     1.957945e-03    -9.3029e-05      0.048 (TRAH MIcro)
    4     dE    -1.010735e-04     3.546423e-03    -1.0073e-04      0.059 (TRAH MIcro)
    4     dE    -1.332024e-04     9.529876e-03    -1.3129e-04      0.121 (TRAH MIcro)
    4     dE    -2.379902e-03     6.147116e-02    -4.1892e-03      0.691 (TRAH MIcro)
    4     dE    -6.575861e-03     4.609955e-02    -1.2957e-02      0.691 (TRAH MIcro)
WARNING: 1 diagonal Hessian elements are negative!
    5      -2402.459497003238     5.061307e-02                     0.829 (TRAH MAcro)   No
WARNING : small    HOMO - LUMO gap : (op = alpha) 0.019917
WARNING : negative HOMO - LUMO gap : (op =  beta) -0.000317
    5     dE    -3.412586e-04     1.971705e-01    -3.4124e-04      0.007 (TRAH MIcro)
    5     dE    -1.213663e-03     6.222382e-02    -1.2107e-03      0.049 (TRAH MIcro)
    5     dE    -1.580287e-03     2.642210e-02    -1.5708e-03      0.078 (TRAH MIcro)
    5     dE    -1.761171e-03     2.874898e-02    -1.7459e-03      0.094 (TRAH MIcro)
    5     dE    -1.926324e-03     2.234199e-02    -1.9022e-03      0.113 (TRAH MIcro)
    5     dE    -2.153057e-03     2.286127e-02    -2.1132e-03      0.137 (TRAH MIcro)
    5     dE    -2.407080e-03     3.130157e-02    -2.3480e-03      0.159 (TRAH MIcro)
    5     dE    -3.436754e-03     5.448454e-02    -3.2526e-03      0.238 (TRAH MIcro)
    5     dE    -6.838846e-03     7.272771e-02    -5.5331e-03      0.486 (TRAH MIcro)
    5     dE    -1.248516e-02     5.128205e-02    -7.9191e-03      0.759 (TRAH MIcro)
    5     dE    -1.522293e-02     2.894152e-02    -9.7230e-03      0.829 (TRAH MIcro)
    5     dE    -1.575821e-02     1.759020e-02    -1.0499e-02      0.829 (TRAH MIcro)
    5     dE    -1.594488e-02     1.038515e-02    -1.0761e-02      0.829 (TRAH MIcro)
    5     dE    -1.599974e-02     4.283250e-03    -1.0845e-02      0.829 (TRAH MIcro)
    6      -2402.468089349743     6.607868e-02                     0.829 (TRAH MAcro)   No
WARNING : small    HOMO - LUMO gap : (op = alpha) 0.015080
WARNING : small    HOMO - LUMO gap : (op =  beta) 0.017687
    6     dE    -1.513563e-03     1.147178e-01    -1.5128e-03      0.023 (TRAH MIcro)
    6     dE    -2.973401e-03     3.123698e-02    -2.9473e-03      0.094 (TRAH MIcro)
    6     dE    -3.255379e-03     1.759911e-02    -3.2115e-03      0.117 (TRAH MIcro)
    6     dE    -3.415853e-03     1.039240e-02    -3.3576e-03      0.132 (TRAH MIcro)
    6     dE    -3.554234e-03     9.150511e-03    -3.4699e-03      0.156 (TRAH MIcro)
    6     dE    -3.626223e-03     4.166530e-03    -3.5194e-03      0.174 (TRAH MIcro)
    7      -2402.471571891233     6.065354e-03                     0.995 (TRAH MAcro)   No
WARNING : small    HOMO - LUMO gap : (op = alpha) 0.019606
WARNING : small    HOMO - LUMO gap : (op =  beta) 0.017804
    7     dE    -1.888459e-06     2.397303e-02    -1.8885e-06      0.000 (TRAH MIcro)
    7     dE    -3.213570e-05     5.120356e-03    -3.2132e-05      0.010 (TRAH MIcro)
    7     dE    -4.537808e-05     4.920694e-03    -4.5367e-05      0.016 (TRAH MIcro)
    7     dE    -6.799597e-05     3.596318e-03    -6.7936e-05      0.030 (TRAH MIcro)
    7     dE    -7.107800e-05     1.270341e-03    -7.1001e-05      0.033 (TRAH MIcro)
    7     dE    -7.195134e-05     8.827783e-04    -7.1867e-05      0.034 (TRAH MIcro)
    7     dE    -7.231074e-05     5.157668e-04    -7.2221e-05      0.035 (TRAH MIcro)
    8      -2402.471644671894     5.162553e-04                           (NR   MAcro)
WARNING : small    HOMO - LUMO gap : (op = alpha) 0.019384
WARNING : small    HOMO - LUMO gap : (op =  beta) 0.017766
    8     dE    -1.011533e-07     2.796063e-04                           (NR   MIcro)
    8     dE    -1.545190e-07     1.789406e-04                           (NR   MIcro)
    8     dE    -1.742503e-07     1.311539e-04                           (NR   MIcro)
    8     dE    -1.794379e-07     1.009908e-04                           (NR   MIcro)
    8     dE    -1.855274e-07     6.729962e-05                           (NR   MIcro)
    8     dE    -1.869612e-07     4.152173e-05                           (NR   MIcro)
    8     dE    -1.876266e-07     1.873388e-05                           (NR   MIcro)
    8     dE    -1.877499e-07     6.435238e-06                           (NR   MIcro)
    8     dE    -1.877686e-07     3.138520e-06                           (NR   MIcro)
    8     dE    -1.877730e-07     1.508652e-06                           (NR   MIcro)
    9      -2402.471644859854     1.707958e-06                           (NR   MAcro)
WARNING : small    HOMO - LUMO gap : (op = alpha) 0.019384
WARNING : small    HOMO - LUMO gap : (op =  beta) 0.017771
    9     dE    -1.181587e-12     1.529410e-06                           (NR   MIcro)
    9     dE    -2.597916e-12     1.128775e-06                           (NR   MIcro)
    9     dE    -4.111705e-12     8.535424e-07                           (NR   MIcro)
   10      -2402.471644859852     8.536391e-07                           (NR   MAcro)
WARNING : small    HOMO - LUMO gap : (op = alpha) 0.019384
WARNING : small    HOMO - LUMO gap : (op =  beta) 0.017771

               *****************************************************
               *                     SUCCESS                       *
               *           SCF CONVERGED AFTER 119 CYCLES          *
               *****************************************************


----------------
TOTAL SCF ENERGY
----------------

Total Energy       :        -2402.47164486 Eh          -65374.57704 eV

Components:
Nuclear Repulsion  :         3206.58452576 Eh           87255.60093 eV
Electronic Energy  :        -5609.05617062 Eh         -152630.17797 eV
One Electron Energy:       -10229.52612316 Eh         -278359.55734 eV
Two Electron Energy:         4620.46995254 Eh          125729.37937 eV

Virial components:
Potential Energy   :        -3903.14170740 Eh         -106209.88546 eV
Kinetic Energy     :         1500.67006254 Eh           40835.30843 eV
Virial Ratio       :            2.60093261


DFT components:
N(Alpha)           :      108.000017835491 electrons
N(Beta)            :      106.000016574464 electrons
N(Total)           :      214.000034409955 electrons
E(X)               :     -167.907093285721 Eh       
E(C)               :       -9.288291255997 Eh       
E(XC)              :     -177.195384541718 Eh       
DFET-embed. en.    :        0.000000000000 Eh       

---------------
SCF CONVERGENCE
---------------

  Last Energy change         ...    2.2737e-12  Tolerance :   1.0000e-08
  Last Orbital Gradient      ...    8.5364e-07  Tolerance :   1.0000e-05
  Last Orbital Rotation      ...    9.1205e-06

             **** THE GBW FILE WAS UPDATED (pbe.gbw) ****
             **** DENSITY pbe.scfp WAS UPDATED ****
             **** ENERGY FILE WAS UPDATED (pbe.en.tmp) ****
----------------------
UHF SPIN CONTAMINATION
----------------------

Warning: in a DFT calculation there is little theoretical justification to 
         calculate <S**2> as in Hartree-Fock theory. We will do it anyways
         but you should keep in mind that the values have only limited relevance

Expectation value of <S**2>     :     2.689019
Ideal value S*(S+1) for S=1.0   :     2.000000
Deviation                       :     0.689019

             **** THE GBW FILE WAS UPDATED (pbe.gbw) ****
             **** DENSITY pbe.scfp WAS UPDATED ****
----------------
ORBITAL ENERGIES
----------------
                 SPIN UP ORBITALS
  NO   OCC          E(Eh)            E(eV) 
   0   1.0000    -214.505330     -5836.9868 
   1   1.0000     -24.310936      -661.5342 
   2   1.0000     -20.676856      -562.6459 
   3   1.0000     -20.675220      -562.6013 
   4   1.0000     -20.672697      -562.5327 
   5   1.0000      -4.030327      -109.6708 
   6   1.0000      -4.025589      -109.5418 
   7   1.0000      -4.025159      -109.5301 
   8   1.0000      -4.015937      -109.2792 
   9   1.0000      -4.014267      -109.2338 
  10   1.0000      -4.013421      -109.2107 
  11   1.0000      -4.012090      -109.1745 
  12   1.0000      -4.011841      -109.1678 
  13   1.0000      -4.010408      -109.1287 
  14   1.0000      -4.010008      -109.1179 
  15   1.0000      -2.802010       -76.2466 
  16   1.0000      -2.246487       -61.1300 
  17   1.0000      -2.244134       -61.0660 
  18   1.0000      -2.243801       -61.0569 
  19   1.0000      -2.243155       -61.0393 
  20   1.0000      -2.240963       -60.9797 
  21   1.0000      -2.239882       -60.9503 
  22   1.0000      -2.239127       -60.9297 
  23   1.0000      -2.233658       -60.7809 
  24   1.0000      -2.232847       -60.7589 
  25   1.0000      -2.232391       -60.7464 
  26   1.0000      -2.231626       -60.7256 
  27   1.0000      -2.231540       -60.7233 
  28   1.0000      -2.231213       -60.7144 
  29   1.0000      -2.231161       -60.7130 
  30   1.0000      -2.229972       -60.6806 
  31   1.0000      -2.229099       -60.6569 
  32   1.0000      -2.227473       -60.6126 
  33   1.0000      -2.227039       -60.6008 
  34   1.0000      -2.226557       -60.5877 
  35   1.0000      -2.225611       -60.5619 
  36   1.0000      -2.225126       -60.5488 
  37   1.0000      -2.224910       -60.5429 
  38   1.0000      -2.221384       -60.4469 
  39   1.0000      -2.221099       -60.4392 
  40   1.0000      -2.220575       -60.4249 
  41   1.0000      -2.220051       -60.4107 
  42   1.0000      -2.219211       -60.3878 
  43   1.0000      -2.218774       -60.3759 
  44   1.0000      -2.218340       -60.3641 
  45   1.0000      -2.217950       -60.3535 
  46   1.0000      -1.794542       -48.8320 
  47   1.0000      -1.791786       -48.7570 
  48   1.0000      -1.787336       -48.6359 
  49   1.0000      -0.408823       -11.1247 
  50   1.0000      -0.374117       -10.1802 
  51   1.0000      -0.361609        -9.8399 
  52   1.0000      -0.357933        -9.7399 
  53   1.0000      -0.353177        -9.6104 
  54   1.0000      -0.350412        -9.5352 
  55   1.0000      -0.343445        -9.3456 
  56   1.0000      -0.341983        -9.3058 
  57   1.0000      -0.340047        -9.2531 
  58   1.0000      -0.337403        -9.1812 
  59   1.0000      -0.334832        -9.1112 
  60   1.0000      -0.329547        -8.9674 
  61   1.0000      -0.323821        -8.8116 
  62   1.0000      -0.321994        -8.7619 
  63   1.0000      -0.320981        -8.7343 
  64   1.0000      -0.317105        -8.6289 
  65   1.0000      -0.313742        -8.5373 
  66   1.0000      -0.310488        -8.4488 
  67   1.0000      -0.307465        -8.3666 
  68   1.0000      -0.303499        -8.2586 
  69   1.0000      -0.301187        -8.1957 
  70   1.0000      -0.300507        -8.1772 
  71   1.0000      -0.295085        -8.0297 
  72   1.0000      -0.292611        -7.9624 
  73   1.0000      -0.289512        -7.8780 
  74   1.0000      -0.287980        -7.8363 
  75   1.0000      -0.287461        -7.8222 
  76   1.0000      -0.285262        -7.7624 
  77   1.0000      -0.278669        -7.5830 
  78   1.0000      -0.278045        -7.5660 
  79   1.0000      -0.276116        -7.5135 
  80   1.0000      -0.273148        -7.4327 
  81   1.0000      -0.272902        -7.4260 
  82   1.0000      -0.272610        -7.4181 
  83   1.0000      -0.271440        -7.3862 
  84   1.0000      -0.270828        -7.3696 
  85   1.0000      -0.266585        -7.2541 
  86   1.0000      -0.263809        -7.1786 
  87   1.0000      -0.259834        -7.0704 
  88   1.0000      -0.258682        -7.0391 
  89   1.0000      -0.257910        -7.0181 
  90   1.0000      -0.255914        -6.9638 
  91   1.0000      -0.254067        -6.9135 
  92   1.0000      -0.250246        -6.8095 
  93   1.0000      -0.247599        -6.7375 
  94   1.0000      -0.246873        -6.7178 
  95   1.0000      -0.246221        -6.7000 
  96   1.0000      -0.244206        -6.6452 
  97   1.0000      -0.242257        -6.5922 
  98   1.0000      -0.239740        -6.5237 
  99   1.0000      -0.237620        -6.4660 
 100   1.0000      -0.234087        -6.3698 
 101   1.0000      -0.228956        -6.2302 
 102   1.0000      -0.225476        -6.1355 
 103   1.0000      -0.210294        -5.7224 
 104   1.0000      -0.205483        -5.5915 
 105   1.0000      -0.204075        -5.5532 
 106   1.0000      -0.201984        -5.4963 
 107   1.0000      -0.197069        -5.3625 
 108   0.0000      -0.177685        -4.8351 
 109   0.0000      -0.154504        -4.2043 
 110   0.0000      -0.149100        -4.0572 
 111   0.0000      -0.147595        -4.0163 
 112   0.0000      -0.126860        -3.4520 
 113   0.0000      -0.105132        -2.8608 
 114   0.0000      -0.096232        -2.6186 
 115   0.0000      -0.076758        -2.0887 
 116   0.0000      -0.052947        -1.4408 
 117   0.0000      -0.049399        -1.3442 
 118   0.0000      -0.045881        -1.2485 
 119   0.0000      -0.042468        -1.1556 
 120   0.0000      -0.039236        -1.0677 
 121   0.0000      -0.027441        -0.7467 
 122   0.0000      -0.015535        -0.4227 
 123   0.0000       0.002180         0.0593 
 124   0.0000       0.013090         0.3562 
 125   0.0000       0.018474         0.5027 
 126   0.0000       0.032346         0.8802 
 127   0.0000       0.040173         1.0932 
 128   0.0000       0.041436         1.1275 
 129   0.0000       0.051390         1.3984 
 130   0.0000       0.052089         1.4174 
 131   0.0000       0.052789         1.4365 
 132   0.0000       0.060223         1.6388 
 133   0.0000       0.065573         1.7843 
 134   0.0000       0.067793         1.8447 
 135   0.0000       0.068514         1.8644 
 136   0.0000       0.074848         2.0367 
 137   0.0000       0.078113         2.1256 
 138   0.0000       0.083585         2.2745 
 139   0.0000       0.091288         2.4841 
 140   0.0000       0.104755         2.8505 
 141   0.0000       0.111398         3.0313 
 142   0.0000       0.114017         3.1026 
 143   0.0000       0.118095         3.2135 
 144   0.0000       0.122974         3.3463 
 145   0.0000       0.134891         3.6706 
 146   0.0000       0.136903         3.7253 
 147   0.0000       0.140674         3.8279 
 148   0.0000       0.145367         3.9556 
 149   0.0000       0.146830         3.9954 
 150   0.0000       0.148739         4.0474 
 151   0.0000       0.151836         4.1317 
 152   0.0000       0.165866         4.5135 
 153   0.0000       0.189104         5.1458 
 154   0.0000       0.213002         5.7961 
 155   0.0000       0.216636         5.8950 
 156   0.0000       0.222593         6.0571 
 157   0.0000       0.229677         6.2498 
 158   0.0000       0.231970         6.3122 
 159   0.0000       0.233321         6.3490 
 160   0.0000       0.258060         7.0222 
 161   0.0000       0.266057         7.2398 
 162   0.0000       0.267291         7.2734 
 163   0.0000       0.268921         7.3177 
 164   0.0000       0.271392         7.3849 
 165   0.0000       0.274323         7.4647 
 166   0.0000       0.282129         7.6771 
 167   0.0000       0.288089         7.8393 
 168   0.0000       0.289595         7.8803 
 169   0.0000       0.299418         8.1476 
 170   0.0000       0.304614         8.2890 
 171   0.0000       0.312801         8.5118 
 172   0.0000       0.313877         8.5410 
 173   0.0000       0.316662         8.6168 
 174   0.0000       0.318605         8.6697 
 175   0.0000       0.324976         8.8430 
 176   0.0000       0.330565         8.9951 
 177   0.0000       0.333763         9.0821 
 178   0.0000       0.334418         9.1000 
 179   0.0000       0.337717         9.1897 
 180   0.0000       0.350495         9.5374 
 181   0.0000       0.350799         9.5457 
 182   0.0000       0.352033         9.5793 
 183   0.0000       0.357353         9.7241 
 184   0.0000       0.368967        10.0401 
 185   0.0000       0.378161        10.2903 
 186   0.0000       0.381683        10.3861 
 187   0.0000       0.384514        10.4631 
 188   0.0000       0.388820        10.5803 
 189   0.0000       0.397902        10.8275 
 190   0.0000       0.402152        10.9431 
 191   0.0000       0.404726        11.0131 
 192   0.0000       0.409553        11.1445 
 193   0.0000       0.420191        11.4340 
 194   0.0000       0.424173        11.5423 
 195   0.0000       0.431109        11.7311 
 196   0.0000       0.441431        12.0119 
 197   0.0000       0.452092        12.3021 
 198   0.0000       0.453967        12.3531 
 199   0.0000       0.454490        12.3673 
 200   0.0000       0.470512        12.8033 
 201   0.0000       0.473824        12.8934 
 202   0.0000       0.478997        13.0342 
 203   0.0000       0.484777        13.1915 
 204   0.0000       0.494975        13.4690 
 205   0.0000       0.502624        13.6771 
 206   0.0000       0.506222        13.7750 
 207   0.0000       0.510018        13.8783 
 208   0.0000       0.516958        14.0672 
 209   0.0000       0.522930        14.2297 
 210   0.0000       0.524912        14.2836 
 211   0.0000       0.530629        14.4392 
 212   0.0000       0.534593        14.5470 
 213   0.0000       0.541734        14.7413 
 214   0.0000       0.551087        14.9958 
 215   0.0000       0.551661        15.0115 
 216   0.0000       0.558964        15.2102 
 217   0.0000       0.561107        15.2685 
 218   0.0000       0.586001        15.9459 
 219   0.0000       0.646769        17.5995 
 220   0.0000       0.661422        17.9982 
 221   0.0000       0.671523        18.2731 
 222   0.0000       0.680235        18.5101 
 223   0.0000       0.691729        18.8229 
 224   0.0000       0.719222        19.5710 
 225   0.0000       0.727827        19.8052 
 226   0.0000       0.732604        19.9352 
 227   0.0000       0.753137        20.4939 
 228   0.0000       0.769836        20.9483 
 229   0.0000       0.770449        20.9650 
 230   0.0000       0.792448        21.5636 
 231   0.0000       0.802694        21.8424 
 232   0.0000       0.812333        22.1047 
 233   0.0000       0.816274        22.2119 
 234   0.0000       0.832306        22.6482 
 235   0.0000       0.834774        22.7153 
 236   0.0000       0.853340        23.2206 
 237   0.0000       0.861903        23.4536 
 238   0.0000       0.867911        23.6171 
 239   0.0000       0.881115        23.9764 
 240   0.0000       0.885131        24.0856 
 241   0.0000       0.892130        24.2761 
 242   0.0000       0.914255        24.8782 
 243   0.0000       0.924998        25.1705 
 244   0.0000       0.956602        26.0305 
 245   0.0000       1.028538        27.9879 
 246   0.0000       1.115670        30.3589 
 247   0.0000       1.124197        30.5909 
 248   0.0000       1.133122        30.8338 
 249   0.0000       1.208932        32.8967 
 250   0.0000       1.230288        33.4778 
 251   0.0000       1.236839        33.6561 
 252   0.0000       1.255085        34.1526 
 253   0.0000       1.261517        34.3276 
 254   0.0000       1.280945        34.8563 
 255   0.0000       1.289899        35.0999 
 256   0.0000       1.302835        35.4519 
 257   0.0000       1.304756        35.5042 
 258   0.0000       1.317912        35.8622 
 259   0.0000       1.334646        36.3176 
 260   0.0000       1.353112        36.8200 
 261   0.0000       1.355908        36.8961 
 262   0.0000       1.380503        37.5654 
 263   0.0000       1.385553        37.7028 
 264   0.0000       1.387978        37.7688 
 265   0.0000       1.399443        38.0808 
 266   0.0000       1.400613        38.1126 
 267   0.0000       1.403541        38.1923 
 268   0.0000       1.415607        38.5206 
 269   0.0000       1.420212        38.6459 
 270   0.0000       1.427201        38.8361 
 271   0.0000       1.428487        38.8711 
 272   0.0000       1.430170        38.9169 
 273   0.0000       1.430548        38.9272 
 274   0.0000       1.432819        38.9890 
 275   0.0000       1.442640        39.2562 
 276   0.0000       1.443016        39.2665 
 277   0.0000       1.446041        39.3488 
 278   0.0000       1.451753        39.5042 
 279   0.0000       1.453594        39.5543 
 280   0.0000       1.460941        39.7542 
 281   0.0000       1.463419        39.8217 
 282   0.0000       1.464841        39.8603 
 283   0.0000       1.469159        39.9778 
 284   0.0000       1.471529        40.0423 
 285   0.0000       1.474886        40.1337 
 286   0.0000       1.475774        40.1579 
 287   0.0000       1.478157        40.2227 
 288   0.0000       1.481837        40.3228 
 289   0.0000       1.487747        40.4836 
 290   0.0000       1.488563        40.5059 
 291   0.0000       1.490548        40.5599 
 292   0.0000       1.491973        40.5987 
 293   0.0000       1.493437        40.6385 
 294   0.0000       1.494091        40.6563 
 295   0.0000       1.498163        40.7671 
 296   0.0000       1.498848        40.7857 
 297   0.0000       1.501889        40.8685 
 298   0.0000       1.507090        41.0100 
 299   0.0000       1.508082        41.0370 
 300   0.0000       1.510441        41.1012 
 301   0.0000       1.511927        41.1416 
 302   0.0000       1.512110        41.1466 
 303   0.0000       1.512835        41.1663 
 304   0.0000       1.515586        41.2412 
 305   0.0000       1.515752        41.2457 
 306   0.0000       1.519806        41.3560 
 307   0.0000       1.520575        41.3769 
 308   0.0000       1.523248        41.4497 
 309   0.0000       1.525605        41.5138 
 310   0.0000       1.526599        41.5409 
 311   0.0000       1.531172        41.6653 
 312   0.0000       1.535058        41.7710 
 313   0.0000       1.535423        41.7810 
 314   0.0000       1.537902        41.8485 
 315   0.0000       1.539065        41.8801 
 316   0.0000       1.543511        42.0011 
 317   0.0000       1.546064        42.0705 
 318   0.0000       1.547980        42.1227 
 319   0.0000       1.552024        42.2327 
 320   0.0000       1.555367        42.3237 
 321   0.0000       1.556639        42.3583 
 322   0.0000       1.558757        42.4159 
 323   0.0000       1.561811        42.4990 
 324   0.0000       1.564071        42.5605 
 325   0.0000       1.568679        42.6859 
 326   0.0000       1.573990        42.8304 
 327   0.0000       1.576191        42.8903 
 328   0.0000       1.578187        42.9446 
 329   0.0000       1.578623        42.9565 
 330   0.0000       1.580119        42.9972 
 331   0.0000       1.584897        43.1272 
 332   0.0000       1.585591        43.1461 
 333   0.0000       1.591610        43.3099 
 334   0.0000       1.593529        43.3621 
 335   0.0000       1.594368        43.3850 
 336   0.0000       1.596054        43.4308 
 337   0.0000       1.598406        43.4948 
 338   0.0000       1.604077        43.6492 
 339   0.0000       1.609254        43.7900 
 340   0.0000       1.610237        43.8168 
 341   0.0000       1.612106        43.8676 
 342   0.0000       1.620265        44.0896 
 343   0.0000       1.622985        44.1637 
 344   0.0000       1.630199        44.3600 
 345   0.0000       1.631838        44.4046 
 346   0.0000       1.635328        44.4995 
 347   0.0000       1.641958        44.6800 
 348   0.0000       1.644340        44.7448 
 349   0.0000       1.651488        44.9393 
 350   0.0000       1.653099        44.9831 
 351   0.0000       1.665886        45.3311 
 352   0.0000       1.677575        45.6491 
 353   0.0000       1.693771        46.0899 
 354   0.0000       1.695946        46.1490 
 355   0.0000       1.718298        46.7573 
 356   0.0000       1.752693        47.6932 
 357   0.0000       1.768106        48.1126 
 358   0.0000       1.778377        48.3921 
 359   0.0000       1.791730        48.7555 
 360   0.0000       1.795520        48.8586 
 361   0.0000       1.797895        48.9232 
 362   0.0000       1.832653        49.8690 
 363   0.0000       1.837130        49.9908 
 364   0.0000       1.851380        50.3786 
 365   0.0000       1.865581        50.7650 
 366   0.0000       1.902573        51.7716 
 367   0.0000       1.919995        52.2457 
 368   0.0000       1.929904        52.5154 
 369   0.0000       1.957257        53.2597 
 370   0.0000       2.038682        55.4754 
 371   0.0000       2.090154        56.8760 
 372   0.0000       2.098117        57.0927 
 373   0.0000       2.208287        60.0906 
 374   0.0000       2.231779        60.7298 
 375   0.0000       2.245228        61.0958 
 376   0.0000       2.281998        62.0963 
 377   0.0000       2.320319        63.1391 
 378   0.0000       2.329113        63.3784 
 379   0.0000       2.375739        64.6471 
 380   0.0000       2.382031        64.8184 
 381   0.0000       2.405733        65.4633 
 382   0.0000       2.458609        66.9022 
 383   0.0000       2.460999        66.9672 
 384   0.0000       2.541582        69.1600 
 385   0.0000       2.629433        71.5505 
 386   0.0000       2.719746        74.0081 
 387   0.0000       2.827312        76.9351 
 388   0.0000       2.845983        77.4431 
 389   0.0000       2.859560        77.8126 
 390   0.0000       2.865115        77.9637 
 391   0.0000       2.885043        78.5060 
 392   0.0000       2.891714        78.6875 
 393   0.0000       2.926928        79.6458 
 394   0.0000       2.970394        80.8285 
 395   0.0000      23.556117       640.9945 
 396   0.0000      23.640316       643.2857 
 397   0.0000      23.987937       652.7449 
 398   0.0000      24.165215       657.5689 
 399   0.0000      24.291310       661.0001 
 400   0.0000      24.478218       666.0862 
 401   0.0000      24.864737       676.6039 
 402   0.0000      25.216563       686.1776 
 403   0.0000      25.426653       691.8944 
 404   0.0000      25.636889       697.6152 
 405   0.0000      25.684057       698.8987 
 406   0.0000      25.707566       699.5384 
 407   0.0000      25.833644       702.9692 
 408   0.0000      26.058862       709.0977 
 409   0.0000      26.105699       710.3722 
 410   0.0000      26.120874       710.7851 
 411   0.0000      26.208639       713.1733 
 412   0.0000      26.358324       717.2465 
 413   0.0000      26.474399       720.4050 
 414   0.0000      26.628291       724.5926 
 415   0.0000      26.942484       733.1423 
 416   0.0000      27.013173       735.0658 
 417   0.0000      27.110042       737.7017 
 418   0.0000      27.241249       741.2721 
 419   0.0000      27.559750       749.9389 
 420   0.0000      27.882612       758.7244 
 421   0.0000      28.143534       765.8245 
 422   0.0000      28.996113       789.0243 
 423   0.0000      29.112720       792.1974 
 424   0.0000      29.615773       805.8862 
 425   0.0000      43.876931      1193.9520 
 426   0.0000      43.935412      1195.5434 
 427   0.0000      43.969510      1196.4712 
 428   0.0000      43.974802      1196.6152 
 429   0.0000      44.062320      1198.9967 
 430   0.0000      44.102218      1200.0824 
 431   0.0000      44.120907      1200.5909 
 432   0.0000      44.146121      1201.2770 
 433   0.0000      44.178242      1202.1511 
 434   0.0000      44.219312      1203.2686 
 435   0.0000     205.086305      5580.6821 
 436   0.0000     205.110719      5581.3464 
 437   0.0000     205.125275      5581.7425 
 438   0.0000     205.128238      5581.8231 
 439   0.0000     205.162032      5582.7427 
 440   0.0000     205.180872      5583.2554 
 441   0.0000     205.181309      5583.2673 
 442   0.0000     205.193762      5583.6061 
 443   0.0000     205.205485      5583.9251 
 444   0.0000     205.230936      5584.6177 

                 SPIN DOWN ORBITALS
  NO   OCC          E(Eh)            E(eV) 
   0   1.0000    -214.504944     -5836.9763 
   1   1.0000     -24.272411      -660.4859 
   2   1.0000     -20.648315      -561.8692 
   3   1.0000     -20.645070      -561.7809 
   4   1.0000     -20.643037      -561.7256 
   5   1.0000      -4.029925      -109.6598 
   6   1.0000      -4.025569      -109.5413 
   7   1.0000      -4.025160      -109.5302 
   8   1.0000      -4.016698      -109.2999 
   9   1.0000      -4.013834      -109.2220 
  10   1.0000      -4.012971      -109.1985 
  11   1.0000      -4.011346      -109.1543 
  12   1.0000      -4.011056      -109.1464 
  13   1.0000      -4.009926      -109.1156 
  14   1.0000      -4.009528      -109.1048 
  15   1.0000      -2.698857       -73.4396 
  16   1.0000      -2.245854       -61.1128 
  17   1.0000      -2.243707       -61.0544 
  18   1.0000      -2.243663       -61.0532 
  19   1.0000      -2.243026       -61.0358 
  20   1.0000      -2.240858       -60.9769 
  21   1.0000      -2.239913       -60.9511 
  22   1.0000      -2.239176       -60.9311 
  23   1.0000      -2.233290       -60.7709 
  24   1.0000      -2.232546       -60.7507 
  25   1.0000      -2.231915       -60.7335 
  26   1.0000      -2.231535       -60.7232 
  27   1.0000      -2.231260       -60.7157 
  28   1.0000      -2.230191       -60.6866 
  29   1.0000      -2.229985       -60.6810 
  30   1.0000      -2.228851       -60.6501 
  31   1.0000      -2.228166       -60.6315 
  32   1.0000      -2.228014       -60.6273 
  33   1.0000      -2.227908       -60.6245 
  34   1.0000      -2.226443       -60.5846 
  35   1.0000      -2.225477       -60.5583 
  36   1.0000      -2.224603       -60.5345 
  37   1.0000      -2.224356       -60.5278 
  38   1.0000      -2.221046       -60.4377 
  39   1.0000      -2.220842       -60.4322 
  40   1.0000      -2.220197       -60.4146 
  41   1.0000      -2.219735       -60.4021 
  42   1.0000      -2.218939       -60.3804 
  43   1.0000      -2.218153       -60.3590 
  44   1.0000      -2.217803       -60.3495 
  45   1.0000      -2.217612       -60.3443 
  46   1.0000      -1.695970       -46.1497 
  47   1.0000      -1.688052       -45.9342 
  48   1.0000      -1.685319       -45.8599 
  49   1.0000      -0.403441       -10.9782 
  50   1.0000      -0.371948       -10.1212 
  51   1.0000      -0.357327        -9.7234 
  52   1.0000      -0.355790        -9.6815 
  53   1.0000      -0.350227        -9.5302 
  54   1.0000      -0.348023        -9.4702 
  55   1.0000      -0.340324        -9.2607 
  56   1.0000      -0.337965        -9.1965 
  57   1.0000      -0.336529        -9.1574 
  58   1.0000      -0.331261        -9.0141 
  59   1.0000      -0.330121        -8.9831 
  60   1.0000      -0.329040        -8.9536 
  61   1.0000      -0.322976        -8.7886 
  62   1.0000      -0.321030        -8.7357 
  63   1.0000      -0.319721        -8.7001 
  64   1.0000      -0.313812        -8.5393 
  65   1.0000      -0.312128        -8.4934 
  66   1.0000      -0.311420        -8.4742 
  67   1.0000      -0.307114        -8.3570 
  68   1.0000      -0.303705        -8.2642 
  69   1.0000      -0.299924        -8.1613 
  70   1.0000      -0.298826        -8.1315 
  71   1.0000      -0.294526        -8.0145 
  72   1.0000      -0.292490        -7.9590 
  73   1.0000      -0.289540        -7.8788 
  74   1.0000      -0.287820        -7.8320 
  75   1.0000      -0.286450        -7.7947 
  76   1.0000      -0.286206        -7.7881 
  77   1.0000      -0.279115        -7.5951 
  78   1.0000      -0.278216        -7.5707 
  79   1.0000      -0.276532        -7.5248 
  80   1.0000      -0.273832        -7.4513 
  81   1.0000      -0.273576        -7.4444 
  82   1.0000      -0.272801        -7.4233 
  83   1.0000      -0.271642        -7.3917 
  84   1.0000      -0.271176        -7.3791 
  85   1.0000      -0.267096        -7.2680 
  86   1.0000      -0.265186        -7.2161 
  87   1.0000      -0.260227        -7.0811 
  88   1.0000      -0.259149        -7.0518 
  89   1.0000      -0.257908        -7.0180 
  90   1.0000      -0.256194        -6.9714 
  91   1.0000      -0.254017        -6.9122 
  92   1.0000      -0.250466        -6.8155 
  93   1.0000      -0.248018        -6.7489 
  94   1.0000      -0.247498        -6.7348 
  95   1.0000      -0.246947        -6.7198 
  96   1.0000      -0.244971        -6.6660 
  97   1.0000      -0.242436        -6.5970 
  98   1.0000      -0.240295        -6.5387 
  99   1.0000      -0.237930        -6.4744 
 100   1.0000      -0.234544        -6.3823 
 101   1.0000      -0.230920        -6.2837 
 102   1.0000      -0.225874        -6.1463 
 103   1.0000      -0.199865        -5.4386 
 104   1.0000      -0.189729        -5.1628 
 105   1.0000      -0.181139        -4.9290 
 106   0.0000      -0.163368        -4.4455 
 107   0.0000      -0.146515        -3.9869 
 108   0.0000      -0.123019        -3.3475 
 109   0.0000      -0.117064        -3.1855 
 110   0.0000      -0.113138        -3.0786 
 111   0.0000      -0.112097        -3.0503 
 112   0.0000      -0.108511        -2.9527 
 113   0.0000      -0.107503        -2.9253 
 114   0.0000      -0.093710        -2.5500 
 115   0.0000      -0.063167        -1.7188 
 116   0.0000      -0.053683        -1.4608 
 117   0.0000      -0.049867        -1.3569 
 118   0.0000      -0.044360        -1.2071 
 119   0.0000      -0.043022        -1.1707 
 120   0.0000      -0.036825        -1.0021 
 121   0.0000      -0.028343        -0.7713 
 122   0.0000      -0.017829        -0.4851 
 123   0.0000       0.001385         0.0377 
 124   0.0000       0.012307         0.3349 
 125   0.0000       0.016700         0.4544 
 126   0.0000       0.030656         0.8342 
 127   0.0000       0.039586         1.0772 
 128   0.0000       0.041340         1.1249 
 129   0.0000       0.049132         1.3369 
 130   0.0000       0.049668         1.3515 
 131   0.0000       0.051213         1.3936 
 132   0.0000       0.058396         1.5890 
 133   0.0000       0.064114         1.7446 
 134   0.0000       0.064702         1.7606 
 135   0.0000       0.065931         1.7941 
 136   0.0000       0.071618         1.9488 
 137   0.0000       0.075749         2.0612 
 138   0.0000       0.079897         2.1741 
 139   0.0000       0.090486         2.4623 
 140   0.0000       0.101407         2.7594 
 141   0.0000       0.109567         2.9815 
 142   0.0000       0.113787         3.0963 
 143   0.0000       0.116199         3.1619 
 144   0.0000       0.122775         3.3409 
 145   0.0000       0.133485         3.6323 
 146   0.0000       0.137399         3.7388 
 147   0.0000       0.138767         3.7760 
 148   0.0000       0.144768         3.9393 
 149   0.0000       0.146143         3.9768 
 150   0.0000       0.146672         3.9911 
 151   0.0000       0.150336         4.0908 
 152   0.0000       0.165274         4.4973 
 153   0.0000       0.194183         5.2840 
 154   0.0000       0.213572         5.8116 
 155   0.0000       0.215399         5.8613 
 156   0.0000       0.221927         6.0389 
 157   0.0000       0.229694         6.2503 
 158   0.0000       0.229889         6.2556 
 159   0.0000       0.233484         6.3534 
 160   0.0000       0.256861         6.9895 
 161   0.0000       0.264268         7.1911 
 162   0.0000       0.264697         7.2028 
 163   0.0000       0.265645         7.2286 
 164   0.0000       0.269089         7.3223 
 165   0.0000       0.272896         7.4259 
 166   0.0000       0.282358         7.6834 
 167   0.0000       0.284638         7.7454 
 168   0.0000       0.292215         7.9516 
 169   0.0000       0.297076         8.0839 
 170   0.0000       0.301197         8.1960 
 171   0.0000       0.309114         8.4114 
 172   0.0000       0.313049         8.5185 
 173   0.0000       0.314426         8.5560 
 174   0.0000       0.315641         8.5890 
 175   0.0000       0.322879         8.7860 
 176   0.0000       0.328167         8.9299 
 177   0.0000       0.331664         9.0250 
 178   0.0000       0.332088         9.0366 
 179   0.0000       0.335859         9.1392 
 180   0.0000       0.347166         9.4469 
 181   0.0000       0.347819         9.4646 
 182   0.0000       0.349564         9.5121 
 183   0.0000       0.356066         9.6890 
 184   0.0000       0.365195         9.9375 
 185   0.0000       0.378183        10.2909 
 186   0.0000       0.378551        10.3009 
 187   0.0000       0.385236        10.4828 
 188   0.0000       0.390039        10.6135 
 189   0.0000       0.397804        10.8248 
 190   0.0000       0.399647        10.8749 
 191   0.0000       0.404304        11.0017 
 192   0.0000       0.406420        11.0593 
 193   0.0000       0.420561        11.4440 
 194   0.0000       0.424298        11.5457 
 195   0.0000       0.432452        11.7676 
 196   0.0000       0.438687        11.9373 
 197   0.0000       0.449268        12.2252 
 198   0.0000       0.451896        12.2967 
 199   0.0000       0.454024        12.3546 
 200   0.0000       0.467781        12.7290 
 201   0.0000       0.473450        12.8832 
 202   0.0000       0.481420        13.1001 
 203   0.0000       0.484707        13.1895 
 204   0.0000       0.497573        13.5397 
 205   0.0000       0.501428        13.6445 
 206   0.0000       0.508418        13.8348 
 207   0.0000       0.509737        13.8707 
 208   0.0000       0.518748        14.1158 
 209   0.0000       0.525864        14.3095 
 210   0.0000       0.527904        14.3650 
 211   0.0000       0.532471        14.4893 
 212   0.0000       0.533602        14.5201 
 213   0.0000       0.538415        14.6510 
 214   0.0000       0.550098        14.9689 
 215   0.0000       0.556139        15.1333 
[...]
  61( 2) :    -0.325407 a.u.    -8.855 eV
  62( 2) :    -0.324650 a.u.    -8.834 eV
  63( 2) :    -0.317766 a.u.    -8.647 eV
  64( 2) :    -0.317286 a.u.    -8.634 eV
  65( 2) :    -0.316636 a.u.    -8.616 eV
  66( 2) :    -0.313752 a.u.    -8.538 eV
  67( 2) :    -0.313212 a.u.    -8.523 eV
  68( 2) :    -0.302521 a.u.    -8.232 eV
  69( 2) :    -0.300574 a.u.    -8.179 eV
  70( 2) :    -0.298293 a.u.    -8.117 eV
  71( 2) :    -0.295140 a.u.    -8.031 eV
  72( 2) :    -0.293546 a.u.    -7.988 eV
  73( 2) :    -0.290791 a.u.    -7.913 eV
  74( 2) :    -0.287458 a.u.    -7.822 eV
  75( 2) :    -0.285565 a.u.    -7.771 eV
  76( 2) :    -0.284557 a.u.    -7.743 eV
  77( 2) :    -0.284075 a.u.    -7.730 eV
  78( 2) :    -0.278968 a.u.    -7.591 eV
  79( 2) :    -0.276222 a.u.    -7.516 eV
  80( 2) :    -0.274999 a.u.    -7.483 eV
  81( 2) :    -0.270916 a.u.    -7.372 eV
  82( 2) :    -0.268032 a.u.    -7.294 eV
  83( 2) :    -0.267877 a.u.    -7.289 eV
  84( 2) :    -0.266890 a.u.    -7.262 eV
  85( 2) :    -0.266115 a.u.    -7.241 eV
  86( 2) :    -0.264593 a.u.    -7.200 eV
  87( 2) :    -0.263748 a.u.    -7.177 eV
  88( 2) :    -0.262384 a.u.    -7.140 eV
  89( 2) :    -0.259793 a.u.    -7.069 eV
  90( 2) :    -0.255783 a.u.    -6.960 eV
  91( 2) :    -0.255009 a.u.    -6.939 eV
  92( 2) :    -0.253722 a.u.    -6.904 eV
  93( 2) :    -0.252340 a.u.    -6.867 eV
  94( 2) :    -0.251255 a.u.    -6.837 eV
  95( 2) :    -0.246560 a.u.    -6.709 eV
  96( 2) :    -0.245257 a.u.    -6.674 eV
  97( 2) :    -0.244955 a.u.    -6.666 eV
  98( 2) :    -0.241348 a.u.    -6.567 eV
  99( 2) :    -0.238902 a.u.    -6.501 eV
 100( 2) :    -0.238582 a.u.    -6.492 eV
 101( 2) :    -0.237970 a.u.    -6.475 eV
 102( 2) :    -0.219806 a.u.    -5.981 eV
 103( 2) :    -0.200517 a.u.    -5.456 eV
 104( 2) :    -0.184961 a.u.    -5.033 eV
 105( 2) :    -0.177003 a.u.    -4.816 eV
 106( 1) :    -0.166542 a.u.    -4.532 eV alpha=   -5.989 beta=   -3.075
 107( 1) :    -0.159073 a.u.    -4.329 eV alpha=   -5.793 beta=   -2.864
 108( 0) :    -0.185337 a.u.    -5.043 eV
 109( 0) :    -0.169415 a.u.    -4.610 eV
 110( 0) :    -0.156840 a.u.    -4.268 eV
 111( 0) :    -0.139248 a.u.    -3.789 eV
 112( 0) :    -0.130402 a.u.    -3.548 eV
 113( 0) :    -0.106580 a.u.    -2.900 eV
 114( 0) :    -0.100942 a.u.    -2.747 eV
 115( 0) :    -0.075088 a.u.    -2.043 eV
 116( 0) :    -0.056369 a.u.    -1.534 eV
 117( 0) :    -0.050830 a.u.    -1.383 eV
 118( 0) :    -0.046208 a.u.    -1.257 eV
 119( 0) :    -0.042015 a.u.    -1.143 eV
 120( 0) :    -0.036042 a.u.    -0.981 eV
 121( 0) :    -0.027133 a.u.    -0.738 eV
 122( 0) :    -0.008338 a.u.    -0.227 eV
 123( 0) :    -0.006133 a.u.    -0.167 eV
 124( 0) :    -0.000101 a.u.    -0.003 eV
 125( 0) :     0.028599 a.u.     0.778 eV
 126( 0) :     0.030280 a.u.     0.824 eV
 127( 0) :     0.036017 a.u.     0.980 eV
 128( 0) :     0.043163 a.u.     1.175 eV
 129( 0) :     0.049091 a.u.     1.336 eV
 130( 0) :     0.049922 a.u.     1.358 eV
 131( 0) :     0.050518 a.u.     1.375 eV
 132( 0) :     0.061192 a.u.     1.665 eV
 133( 0) :     0.066050 a.u.     1.797 eV
 134( 0) :     0.066910 a.u.     1.821 eV
 135( 0) :     0.071456 a.u.     1.944 eV
 136( 0) :     0.073984 a.u.     2.013 eV
 137( 0) :     0.084986 a.u.     2.313 eV
 138( 0) :     0.086077 a.u.     2.342 eV
 139( 0) :     0.094987 a.u.     2.585 eV
 140( 0) :     0.096845 a.u.     2.635 eV
 141( 0) :     0.104340 a.u.     2.839 eV
 142( 0) :     0.115330 a.u.     3.138 eV
 143( 0) :     0.119380 a.u.     3.248 eV
 144( 0) :     0.124441 a.u.     3.386 eV
 145( 0) :     0.136116 a.u.     3.704 eV
 146( 0) :     0.141052 a.u.     3.838 eV
 147( 0) :     0.144909 a.u.     3.943 eV
 148( 0) :     0.146637 a.u.     3.990 eV
 149( 0) :     0.148160 a.u.     4.032 eV
 150( 0) :     0.151661 a.u.     4.127 eV
 151( 0) :     0.159757 a.u.     4.347 eV
 152( 0) :     0.162329 a.u.     4.417 eV
 153( 0) :     0.172095 a.u.     4.683 eV
 154( 0) :     0.212602 a.u.     5.785 eV
 155( 0) :     0.214570 a.u.     5.839 eV
 156( 0) :     0.216395 a.u.     5.888 eV
 157( 0) :     0.218529 a.u.     5.946 eV
 158( 0) :     0.226066 a.u.     6.152 eV
 159( 0) :     0.247761 a.u.     6.742 eV
 160( 0) :     0.249769 a.u.     6.797 eV
 161( 0) :     0.255560 a.u.     6.954 eV
 162( 0) :     0.264568 a.u.     7.199 eV
 163( 0) :     0.266453 a.u.     7.251 eV
 164( 0) :     0.273891 a.u.     7.453 eV
 165( 0) :     0.274793 a.u.     7.477 eV
 166( 0) :     0.276548 a.u.     7.525 eV
 167( 0) :     0.281011 a.u.     7.647 eV
 168( 0) :     0.285140 a.u.     7.759 eV
 169( 0) :     0.289884 a.u.     7.888 eV
 170( 0) :     0.299190 a.u.     8.141 eV
 171( 0) :     0.302785 a.u.     8.239 eV
 172( 0) :     0.308464 a.u.     8.394 eV
 173( 0) :     0.311309 a.u.     8.471 eV
 174( 0) :     0.313231 a.u.     8.523 eV
 175( 0) :     0.317548 a.u.     8.641 eV
 176( 0) :     0.319513 a.u.     8.694 eV
 177( 0) :     0.332692 a.u.     9.053 eV
 178( 0) :     0.334062 a.u.     9.090 eV
 179( 0) :     0.336460 a.u.     9.156 eV
 180( 0) :     0.337400 a.u.     9.181 eV
 181( 0) :     0.345615 a.u.     9.405 eV
 182( 0) :     0.354491 a.u.     9.646 eV
 183( 0) :     0.357932 a.u.     9.740 eV
 184( 0) :     0.369306 a.u.    10.049 eV
 185( 0) :     0.371717 a.u.    10.115 eV
 186( 0) :     0.379078 a.u.    10.315 eV
 187( 0) :     0.380798 a.u.    10.362 eV
 188( 0) :     0.397785 a.u.    10.824 eV
 189( 0) :     0.399818 a.u.    10.880 eV
 190( 0) :     0.407592 a.u.    11.091 eV
 191( 0) :     0.410416 a.u.    11.168 eV
 192( 0) :     0.413973 a.u.    11.265 eV
 193( 0) :     0.421443 a.u.    11.468 eV
 194( 0) :     0.423847 a.u.    11.533 eV
 195( 0) :     0.429511 a.u.    11.688 eV
 196( 0) :     0.434916 a.u.    11.835 eV
 197( 0) :     0.443146 a.u.    12.059 eV
 198( 0) :     0.445928 a.u.    12.134 eV
 199( 0) :     0.454245 a.u.    12.361 eV
 200( 0) :     0.462743 a.u.    12.592 eV
 201( 0) :     0.465731 a.u.    12.673 eV
 202( 0) :     0.470532 a.u.    12.804 eV
 203( 0) :     0.473847 a.u.    12.894 eV
 204( 0) :     0.476574 a.u.    12.968 eV
 205( 0) :     0.485784 a.u.    13.219 eV
 206( 0) :     0.498568 a.u.    13.567 eV
 207( 0) :     0.499845 a.u.    13.601 eV
 208( 0) :     0.508656 a.u.    13.841 eV
 209( 0) :     0.511848 a.u.    13.928 eV
 210( 0) :     0.526761 a.u.    14.334 eV
 211( 0) :     0.530643 a.u.    14.440 eV
 212( 0) :     0.532208 a.u.    14.482 eV
 213( 0) :     0.538161 a.u.    14.644 eV
 214( 0) :     0.544533 a.u.    14.817 eV
 215( 0) :     0.546269 a.u.    14.865 eV
 216( 0) :     0.556003 a.u.    15.130 eV
 217( 0) :     0.563539 a.u.    15.335 eV
 218( 0) :     0.572379 a.u.    15.575 eV
 219( 0) :     0.636743 a.u.    17.327 eV
 220( 0) :     0.646706 a.u.    17.598 eV
 221( 0) :     0.656645 a.u.    17.868 eV
 222( 0) :     0.675195 a.u.    18.373 eV
 223( 0) :     0.687944 a.u.    18.720 eV
 224( 0) :     0.695710 a.u.    18.931 eV
 225( 0) :     0.706296 a.u.    19.219 eV
 226( 0) :     0.725676 a.u.    19.747 eV
 227( 0) :     0.732268 a.u.    19.926 eV
 228( 0) :     0.744215 a.u.    20.251 eV
 229( 0) :     0.746790 a.u.    20.321 eV
 230( 0) :     0.768883 a.u.    20.922 eV
 231( 0) :     0.774273 a.u.    21.069 eV
 232( 0) :     0.782826 a.u.    21.302 eV
 233( 0) :     0.793988 a.u.    21.606 eV
 234( 0) :     0.811293 a.u.    22.076 eV
 235( 0) :     0.822001 a.u.    22.368 eV
 236( 0) :     0.845520 a.u.    23.008 eV
 237( 0) :     0.855629 a.u.    23.283 eV
 238( 0) :     0.879988 a.u.    23.946 eV
 239( 0) :     0.885242 a.u.    24.089 eV
 240( 0) :     0.904420 a.u.    24.611 eV
 241( 0) :     0.911344 a.u.    24.799 eV
 242( 0) :     0.921027 a.u.    25.062 eV
 243( 0) :     0.932339 a.u.    25.370 eV
 244( 0) :     0.971197 a.u.    26.428 eV
 245( 0) :     1.035785 a.u.    28.185 eV
 246( 0) :     1.039644 a.u.    28.290 eV
 247( 0) :     1.069697 a.u.    29.108 eV
 248( 0) :     1.074378 a.u.    29.235 eV
 249( 0) :     1.216419 a.u.    33.100 eV
 250( 0) :     1.226047 a.u.    33.362 eV
 251( 0) :     1.237499 a.u.    33.674 eV
 252( 0) :     1.247827 a.u.    33.955 eV
 253( 0) :     1.274804 a.u.    34.689 eV
 254( 0) :     1.282402 a.u.    34.896 eV
 255( 0) :     1.290306 a.u.    35.111 eV
 256( 0) :     1.301390 a.u.    35.413 eV
 257( 0) :     1.309845 a.u.    35.643 eV
 258( 0) :     1.339422 a.u.    36.448 eV
 259( 0) :     1.340780 a.u.    36.484 eV
 260( 0) :     1.342637 a.u.    36.535 eV
 261( 0) :     1.362315 a.u.    37.070 eV
 262( 0) :     1.369609 a.u.    37.269 eV
 263( 0) :     1.374591 a.u.    37.405 eV
 264( 0) :     1.389575 a.u.    37.812 eV
 265( 0) :     1.393835 a.u.    37.928 eV
 266( 0) :     1.394996 a.u.    37.960 eV
 267( 0) :     1.398019 a.u.    38.042 eV
 268( 0) :     1.406024 a.u.    38.260 eV
 269( 0) :     1.412824 a.u.    38.445 eV
 270( 0) :     1.417924 a.u.    38.584 eV
 271( 0) :     1.427618 a.u.    38.847 eV
 272( 0) :     1.432410 a.u.    38.978 eV
 273( 0) :     1.433991 a.u.    39.021 eV
 274( 0) :     1.438380 a.u.    39.140 eV
 275( 0) :     1.441382 a.u.    39.222 eV
 276( 0) :     1.442799 a.u.    39.261 eV
 277( 0) :     1.447491 a.u.    39.388 eV
 278( 0) :     1.451095 a.u.    39.486 eV
 279( 0) :     1.454726 a.u.    39.585 eV
 280( 0) :     1.458595 a.u.    39.690 eV
 281( 0) :     1.459300 a.u.    39.710 eV
 282( 0) :     1.461804 a.u.    39.778 eV
 283( 0) :     1.467494 a.u.    39.933 eV
 284( 0) :     1.467728 a.u.    39.939 eV
 285( 0) :     1.471233 a.u.    40.034 eV
 286( 0) :     1.475210 a.u.    40.142 eV
 287( 0) :     1.475795 a.u.    40.158 eV
 288( 0) :     1.482194 a.u.    40.333 eV
 289( 0) :     1.483516 a.u.    40.369 eV
 290( 0) :     1.484969 a.u.    40.408 eV
 291( 0) :     1.489223 a.u.    40.524 eV
 292( 0) :     1.493315 a.u.    40.635 eV
 293( 0) :     1.495248 a.u.    40.688 eV
 294( 0) :     1.496464 a.u.    40.721 eV
 295( 0) :     1.497137 a.u.    40.739 eV
 296( 0) :     1.501988 a.u.    40.871 eV
 297( 0) :     1.506014 a.u.    40.981 eV
 298( 0) :     1.506103 a.u.    40.983 eV
 299( 0) :     1.507343 a.u.    41.017 eV
 300( 0) :     1.508373 a.u.    41.045 eV
 301( 0) :     1.508579 a.u.    41.051 eV
 302( 0) :     1.512162 a.u.    41.148 eV
 303( 0) :     1.515334 a.u.    41.234 eV
 304( 0) :     1.517738 a.u.    41.300 eV
 305( 0) :     1.521424 a.u.    41.400 eV
 306( 0) :     1.522894 a.u.    41.440 eV
 307( 0) :     1.523564 a.u.    41.458 eV
 308( 0) :     1.525222 a.u.    41.503 eV
 309( 0) :     1.526410 a.u.    41.536 eV
 310( 0) :     1.528476 a.u.    41.592 eV
 311( 0) :     1.529497 a.u.    41.620 eV
 312( 0) :     1.530501 a.u.    41.647 eV
 313( 0) :     1.531926 a.u.    41.686 eV
 314( 0) :     1.533800 a.u.    41.737 eV
 315( 0) :     1.534757 a.u.    41.763 eV
 316( 0) :     1.536047 a.u.    41.798 eV
 317( 0) :     1.541203 a.u.    41.938 eV
 318( 0) :     1.543909 a.u.    42.012 eV
 319( 0) :     1.544639 a.u.    42.032 eV
 320( 0) :     1.548063 a.u.    42.125 eV
 321( 0) :     1.549025 a.u.    42.151 eV
 322( 0) :     1.551561 a.u.    42.220 eV
 323( 0) :     1.554646 a.u.    42.304 eV
 324( 0) :     1.557572 a.u.    42.384 eV
 325( 0) :     1.558191 a.u.    42.401 eV
 326( 0) :     1.560302 a.u.    42.458 eV
 327( 0) :     1.564638 a.u.    42.576 eV
 328( 0) :     1.566684 a.u.    42.632 eV
 329( 0) :     1.571094 a.u.    42.752 eV
 330( 0) :     1.573325 a.u.    42.812 eV
 331( 0) :     1.575568 a.u.    42.873 eV
 332( 0) :     1.578544 a.u.    42.954 eV
 333( 0) :     1.583851 a.u.    43.099 eV
 334( 0) :     1.589501 a.u.    43.253 eV
 335( 0) :     1.591552 a.u.    43.308 eV
 336( 0) :     1.592426 a.u.    43.332 eV
 337( 0) :     1.601738 a.u.    43.586 eV
 338( 0) :     1.603039 a.u.    43.621 eV
 339( 0) :     1.606595 a.u.    43.718 eV
 340( 0) :     1.609541 a.u.    43.798 eV
 341( 0) :     1.610715 a.u.    43.830 eV
 342( 0) :     1.616627 a.u.    43.991 eV
 343( 0) :     1.620796 a.u.    44.104 eV
 344( 0) :     1.622123 a.u.    44.140 eV
 345( 0) :     1.628330 a.u.    44.309 eV
 346( 0) :     1.630794 a.u.    44.376 eV
 347( 0) :     1.632850 a.u.    44.432 eV
 348( 0) :     1.640242 a.u.    44.633 eV
 349( 0) :     1.650870 a.u.    44.922 eV
 350( 0) :     1.668013 a.u.    45.389 eV
 351( 0) :     1.682230 a.u.    45.776 eV
 352( 0) :     1.686861 a.u.    45.902 eV
 353( 0) :     1.694274 a.u.    46.104 eV
 354( 0) :     1.709851 a.u.    46.527 eV
 355( 0) :     1.715209 a.u.    46.673 eV
 356( 0) :     1.722841 a.u.    46.881 eV
 357( 0) :     1.736891 a.u.    47.263 eV
 358( 0) :     1.754402 a.u.    47.740 eV
 359( 0) :     1.762726 a.u.    47.966 eV
 360( 0) :     1.797985 a.u.    48.926 eV
 361( 0) :     1.809556 a.u.    49.241 eV
 362( 0) :     1.823080 a.u.    49.609 eV
 363( 0) :     1.827564 a.u.    49.731 eV
 364( 0) :     1.852010 a.u.    50.396 eV
 365( 0) :     1.866440 a.u.    50.788 eV
 366( 0) :     1.889400 a.u.    51.413 eV
 367( 0) :     1.906300 a.u.    51.873 eV
 368( 0) :     1.912812 a.u.    52.050 eV
 369( 0) :     1.951285 a.u.    53.097 eV
 370( 0) :     1.979387 a.u.    53.862 eV
 371( 0) :     2.058650 a.u.    56.019 eV
 372( 0) :     2.192577 a.u.    59.663 eV
 373( 0) :     2.201013 a.u.    59.893 eV
 374( 0) :     2.240141 a.u.    60.957 eV
 375( 0) :     2.292615 a.u.    62.385 eV
 376( 0) :     2.301042 a.u.    62.615 eV
 377( 0) :     2.322862 a.u.    63.208 eV
 378( 0) :     2.334774 a.u.    63.532 eV
 379( 0) :     2.393061 a.u.    65.118 eV
 380( 0) :     2.405331 a.u.    65.452 eV
 381( 0) :     2.439030 a.u.    66.369 eV
 382( 0) :     2.446865 a.u.    66.583 eV
 383( 0) :     2.466851 a.u.    67.126 eV
 384( 0) :     2.513539 a.u.    68.397 eV
 385( 0) :     2.544708 a.u.    69.245 eV
 386( 0) :     2.612079 a.u.    71.078 eV
 387( 0) :     2.807058 a.u.    76.384 eV
 388( 0) :     2.834683 a.u.    77.136 eV
 389( 0) :     2.839475 a.u.    77.266 eV
 390( 0) :     2.853100 a.u.    77.637 eV
 391( 0) :     2.858443 a.u.    77.782 eV
 392( 0) :     2.865702 a.u.    77.980 eV
 393( 0) :     2.904527 a.u.    79.036 eV
 394( 0) :     2.920123 a.u.    79.461 eV
 395( 0) :    23.577049 a.u.   641.564 eV
 396( 0) :    23.875408 a.u.   649.683 eV
 397( 0) :    23.946298 a.u.   651.612 eV
 398( 0) :    24.085476 a.u.   655.399 eV
 399( 0) :    24.337448 a.u.   662.256 eV
 400( 0) :    24.361210 a.u.   662.902 eV
 401( 0) :    24.612959 a.u.   669.753 eV
 402( 0) :    24.859611 a.u.   676.464 eV
 403( 0) :    24.994805 a.u.   680.143 eV
 404( 0) :    25.139442 a.u.   684.079 eV
 405( 0) :    25.336092 a.u.   689.430 eV
 406( 0) :    25.593637 a.u.   696.438 eV
 407( 0) :    25.675652 a.u.   698.670 eV
 408( 0) :    25.952942 a.u.   706.215 eV
 409( 0) :    26.043546 a.u.   708.681 eV
 410( 0) :    26.118590 a.u.   710.723 eV
 411( 0) :    26.205141 a.u.   713.078 eV
 412( 0) :    26.481870 a.u.   720.608 eV
 413( 0) :    26.586638 a.u.   723.459 eV
 414( 0) :    26.667797 a.u.   725.668 eV
 415( 0) :    26.875693 a.u.   731.325 eV
 416( 0) :    27.275420 a.u.   742.202 eV
 417( 0) :    27.311499 a.u.   743.184 eV
 418( 0) :    27.665370 a.u.   752.813 eV
 419( 0) :    28.034399 a.u.   762.855 eV
 420( 0) :    28.106842 a.u.   764.826 eV
 421( 0) :    28.279006 a.u.   769.511 eV
 422( 0) :    28.392597 a.u.   772.602 eV
 423( 0) :    28.458301 a.u.   774.390 eV
 424( 0) :    28.834022 a.u.   784.614 eV
 425( 0) :    43.893040 a.u.  1194.390 eV
 426( 0) :    43.947317 a.u.  1195.867 eV
 427( 0) :    43.999253 a.u.  1197.281 eV
 428( 0) :    44.006948 a.u.  1197.490 eV
 429( 0) :    44.074990 a.u.  1199.341 eV
 430( 0) :    44.076294 a.u.  1199.377 eV
 431( 0) :    44.120331 a.u.  1200.575 eV
 432( 0) :    44.126405 a.u.  1200.741 eV
 433( 0) :    44.141233 a.u.  1201.144 eV
 434( 0) :    44.165106 a.u.  1201.794 eV
 435( 0) :   205.092281 a.u.  5580.845 eV
 436( 0) :   205.112009 a.u.  5581.382 eV
 437( 0) :   205.134199 a.u.  5581.985 eV
 438( 0) :   205.140656 a.u.  5582.161 eV
 439( 0) :   205.164562 a.u.  5582.812 eV
 440( 0) :   205.170427 a.u.  5582.971 eV
 441( 0) :   205.181746 a.u.  5583.279 eV
 442( 0) :   205.188645 a.u.  5583.467 eV
 443( 0) :   205.193110 a.u.  5583.588 eV
 444( 0) :   205.198827 a.u.  5583.744 eV
-------
TIMINGS
-------

Total SCF time: 0 days 0 hours 3 min 0 sec 

Total time                  ....     180.648 sec
Sum of individual times     ....     172.529 sec  ( 95.5%)

Fock matrix formation       ....     168.419 sec  ( 93.2%)
  Split-RI-J                ....      51.783 sec  ( 30.7% of F)
  XC integration            ....     105.540 sec  ( 62.7% of F)
    Basis function eval.    ....      17.780 sec  ( 16.8% of XC)
    Density eval.           ....      39.628 sec  ( 37.5% of XC)
    XC-Functional eval.     ....       2.713 sec  (  2.6% of XC)
    XC-Potential eval.      ....      34.956 sec  ( 33.1% of XC)
Diagonalization             ....       1.321 sec  (  0.7%)
Density matrix formation    ....       0.233 sec  (  0.1%)
Population analysis         ....       0.315 sec  (  0.2%)
Initial guess               ....       0.101 sec  (  0.1%)
Orbital Transformation      ....       0.260 sec  (  0.1%)
Orbital Orthonormalization  ....       0.082 sec  (  0.0%)
DIIS solution               ....       0.000 sec  (  0.0%)
Grid generation             ....       1.878 sec  (  1.0%)

Maximum memory used throughout the entire SCF-calculation: 366.0 MB

-------------------------   --------------------
FINAL SINGLE POINT ENERGY     -2402.479076315262
-------------------------   --------------------

                                *** OPTIMIZATION RUN DONE ***

                            ***************************************
                            *     ORCA property calculations      *
                            ***************************************

                                    ---------------------
                                    Active property flags
                                    ---------------------
   (+) Dipole Moment


------------------------------------------------------------------------------
                       ORCA ELECTRIC PROPERTIES CALCULATION
------------------------------------------------------------------------------

Dipole Moment Calculation                       ... on
Quadrupole Moment Calculation                   ... off
Polarizability Calculation                      ... off
GBWName                                         ... pbe.gbw
Electron density                                ... pbe.scfp
The origin for moment calculation is the CENTER OF MASS  = (15.524557, 11.525078 14.802846)

-------------
DIPOLE MOMENT
-------------
                                X             Y             Z
Electronic contribution:     18.99681      -5.94972      -8.57246
Nuclear contribution   :    -18.75753       5.86199       8.51562
                        -----------------------------------------
Total Dipole Moment    :      0.23929      -0.08774      -0.05684
                        -----------------------------------------
Magnitude (a.u.)       :      0.26113
Magnitude (Debye)      :      0.66373



--------------------
Rotational spectrum 
--------------------
 
Rotational constants in cm-1:     0.002110     0.001614     0.001340 
Rotational constants in MHz :    63.263237    48.388752    40.158556 

 Dipole components along the rotational axes: 
x,y,z [a.u.] :     0.255803     0.000886    -0.052451 
x,y,z [Debye]:     0.650200     0.002252    -0.133321 

 

Timings for individual modules:

Sum of individual times         ...     8537.654 sec (= 142.294 min)
GTO integral calculation        ...      168.658 sec (=   2.811 min)   2.0 %
SCF iterations                  ...     6943.269 sec (= 115.721 min)  81.3 %
SCF Gradient evaluation         ...     1411.492 sec (=  23.525 min)  16.5 %
Geometry relaxation             ...       14.235 sec (=   0.237 min)   0.2 %
                             ****ORCA TERMINATED NORMALLY****
TOTAL RUN TIME: 0 days 2 hours 22 minutes 31 seconds 456 msec
