
                                 *****************
                                 * O   R   C   A *
                                 *****************

                                            #,                                       
                                            ###                                      
                                            ####                                     
                                            #####                                    
                                            ######                                   
                                           ########,                                 
                                     ,,################,,,,,                         
                               ,,#################################,,                 
                          ,,##########################################,,             
                       ,#########################################, ''#####,          
                    ,#############################################,,   '####,        
                  ,##################################################,,,,####,       
                ,###########''''           ''''###############################       
              ,#####''   ,,,,##########,,,,          '''####'''          '####       
            ,##' ,,,,###########################,,,                        '##       
           ' ,,###''''                  '''############,,,                           
         ,,##''                                '''############,,,,        ,,,,,,###''
      ,#''                                            '''#######################'''  
     '                                                          ''''####''''         
             ,#######,   #######,   ,#######,      ##                                
            ,#'     '#,  ##    ##  ,#'     '#,    #''#        ######   ,####,        
            ##       ##  ##   ,#'  ##            #'  '#       #        #'  '#        
            ##       ##  #######   ##           ,######,      #####,   #    #        
            '#,     ,#'  ##    ##  '#,     ,#' ,#      #,         ##   #,  ,#        
             '#######'   ##     ##  '#######'  #'      '#     #####' # '####'        



                  #######################################################
                  #                        -***-                        #
                  #          Department of theory and spectroscopy      #
                  #    Directorship and core code : Frank Neese         #
                  #        Max Planck Institute fuer Kohlenforschung    #
                  #                Kaiser Wilhelm Platz 1               #
                  #                 D-45470 Muelheim/Ruhr               #
                  #                      Germany                        #
                  #                                                     #
                  #                  All rights reserved                #
                  #                        -***-                        #
                  #######################################################


                         Program Version 5.0.3 -  RELEASE  -


 With contributions from (in alphabetic order):
   Daniel Aravena         : Magnetic Suceptibility
   Michael Atanasov       : Ab Initio Ligand Field Theory (pilot matlab implementation)
   Alexander A. Auer      : GIAO ZORA, VPT2 properties, NMR spectrum
   Ute Becker             : Parallelization
   Giovanni Bistoni       : ED, misc. LED, open-shell LED, HFLD
   Martin Brehm           : Molecular dynamics
   Dmytro Bykov           : SCF Hessian
   Vijay G. Chilkuri      : MRCI spin determinant printing, contributions to CSF-ICE
   Dipayan Datta          : RHF DLPNO-CCSD density
   Achintya Kumar Dutta   : EOM-CC, STEOM-CC
   Dmitry Ganyushin       : Spin-Orbit,Spin-Spin,Magnetic field MRCI
   Miquel Garcia          : C-PCM and meta-GGA Hessian, CC/C-PCM, Gaussian charge scheme
   Yang Guo               : DLPNO-NEVPT2, F12-NEVPT2, CIM, IAO-localization
   Andreas Hansen         : Spin unrestricted coupled pair/coupled cluster methods
   Benjamin Helmich-Paris : MC-RPA, TRAH-SCF, COSX integrals
   Lee Huntington         : MR-EOM, pCC
   Robert Izsak           : Overlap fitted RIJCOSX, COSX-SCS-MP3, EOM
   Marcus Kettner         : VPT2
   Christian Kollmar      : KDIIS, OOCD, Brueckner-CCSD(T), CCSD density, CASPT2, CASPT2-K
   Simone Kossmann        : Meta GGA functionals, TD-DFT gradient, OOMP2, MP2 Hessian
   Martin Krupicka        : Initial AUTO-CI
   Lucas Lang             : DCDCAS
   Marvin Lechner         : AUTO-CI (C++ implementation), FIC-MRCC
   Dagmar Lenk            : GEPOL surface, SMD
   Dimitrios Liakos       : Extrapolation schemes; Compound Job, initial MDCI parallelization
   Dimitrios Manganas     : Further ROCIS development; embedding schemes
   Dimitrios Pantazis     : SARC Basis sets
   Anastasios Papadopoulos: AUTO-CI, single reference methods and gradients
   Taras Petrenko         : DFT Hessian,TD-DFT gradient, ASA, ECA, R-Raman, ABS, FL, XAS/XES, NRVS
   Peter Pinski           : DLPNO-MP2, DLPNO-MP2 Gradient
   Christoph Reimann      : Effective Core Potentials
   Marius Retegan         : Local ZFS, SOC
   Christoph Riplinger    : Optimizer, TS searches, QM/MM, DLPNO-CCSD(T), (RO)-DLPNO pert. Triples
   Tobias Risthaus        : Range-separated hybrids, TD-DFT gradient, RPA, STAB
   Michael Roemelt        : Original ROCIS implementation
   Masaaki Saitow         : Open-shell DLPNO-CCSD energy and density
   Barbara Sandhoefer     : DKH picture change effects
   Avijit Sen             : IP-ROCIS
   Kantharuban Sivalingam : CASSCF convergence, NEVPT2, FIC-MRCI
   Bernardo de Souza      : ESD, SOC TD-DFT
   Georgi Stoychev        : AutoAux, RI-MP2 NMR, DLPNO-MP2 response
   Willem Van den Heuvel  : Paramagnetic NMR
   Boris Wezisla          : Elementary symmetry handling
   Frank Wennmohs         : Technical directorship


 We gratefully acknowledge several colleagues who have allowed us to
 interface, adapt or use parts of their codes:
   Stefan Grimme, W. Hujo, H. Kruse, P. Pracht,  : VdW corrections, initial TS optimization,
                  C. Bannwarth, S. Ehlert          DFT functionals, gCP, sTDA/sTD-DF
   Ed Valeev, F. Pavosevic, A. Kumar             : LibInt (2-el integral package), F12 methods
   Garnet Chan, S. Sharma, J. Yang, R. Olivares  : DMRG
   Ulf Ekstrom                                   : XCFun DFT Library
   Mihaly Kallay                                 : mrcc  (arbitrary order and MRCC methods)
   Jiri Pittner, Ondrej Demel                    : Mk-CCSD
   Frank Weinhold                                : gennbo (NPA and NBO analysis)
   Christopher J. Cramer and Donald G. Truhlar   : smd solvation model
   Lars Goerigk                                  : TD-DFT with DH, B97 family of functionals
   V. Asgeirsson, H. Jonsson                     : NEB implementation
   FAccTs GmbH                                   : IRC, NEB, NEB-TS, DLPNO-Multilevel, CI-OPT
                                                   MM, QMMM, 2- and 3-layer-ONIOM, Crystal-QMMM,
                                                   LR-CPCM, SF, NACMEs, symmetry and pop. for TD-DFT,
                                                   nearIR, NL-DFT gradient (VV10), updates on ESD,
                                                   ML-optimized integration grids
   S Lehtola, MJT Oliveira, MAL Marques          : LibXC Library
   Liviu Ungur et al                             : ANISO software


 Your calculation uses the libint2 library for the computation of 2-el integrals
 For citations please refer to: http://libint.valeyev.net

 Your ORCA version has been built with support for libXC version: 5.1.0
 For citations please refer to: https://tddft.org/programs/libxc/

 This ORCA versions uses:
   CBLAS   interface :  Fast vector & matrix operations
   LAPACKE interface :  Fast linear algebra routines
   SCALAPACK package :  Parallel linear algebra routines
   Shared memory     :  Shared parallel matrices
   BLAS/LAPACK       :  OpenBLAS 0.3.15  USE64BITINT DYNAMIC_ARCH NO_AFFINITY Haswell SINGLE_THREADED
        Core in use  :  Haswell
   Copyright (c) 2011-2014, The OpenBLAS Project




***************************************
The coordinates will be read from file: pbe.xyz
***************************************


================================================================================

cite the ECPs for Au [Def2-ECP] as follows:
Ce-Yb(ecp-28): M. Dolg, H. Stoll, H.Preuss, J. Chem. Phys., 1989, 90, 1730-1734.
Y-Cd(ecp-28), Hf-Hg(ecp-46): D. Andrae,U. Haeussermann, M. Dolg, H. Stoll, H. Preuss, Theor. Chim. Acta, 1990, 77, 123-141.
In-Sb(ecp-28), Tl-Bi(ecp-46): B. Metz, H. Stoll, M. Dolg, J. Chem. Phys., 2000, 113, 2563-2569.
Te-Xe(ecp-28), Po-Rn(ecp-46): K. A. Peterson, D. Figgen, E. Goll, H. Stoll, M. Dolg, J. Chem. Phys., 2003, 119, 11113-11123.
Rb(ecp-28), Cs(ecp-46): T. Leininger, A. Nicklass, W. Kuechle, H. Stoll, M. Dolg, A. Bergner, Chem. Phys. Lett., 1996, 255, 274-280.
Sr(ecp-28), Ba(ecp-46): M. Kaupp, P. V. Schleyer, H. Stoll and H. Preuss, J. Chem. Phys., 1991, 94, 1360-1366.
La(ecp-46): M. Dolg, H. Stoll, A. Savin, H. Preuss, Theor. Chim. Acta, 1989, 75, 173-194.
Lu(ecp-28): X. Cao, M. Dolg, J. Chem. Phys., 2001, 115, 7348-7355.

ECP parameters for Au [Def2-ECP] have been obtained from:
TURBOMOLE (7.0.2)

----- Orbital basis set information -----
Your calculation utilizes the basis: def2-TZVP
   F. Weigend and R. Ahlrichs, Phys. Chem. Chem. Phys. 7, 3297 (2005).

----- AuxJ basis set information -----
Your calculation utilizes the auxiliary basis: def2/J
   F. Weigend, Phys. Chem. Chem. Phys. 8, 1057 (2006).

----- AuxC basis set information -----
Your calculation utilizes the auxiliary basis: def2-TZVP/C
  H-La, Hf-Rn : A. Hellweg, C. Hattig, S. Hofener and W. Klopper, Theor. Chem. Acc. 117, 587 (2007).
        Ce-Lu : J. Chmela and M. E. Harding, Mol. Phys. (2018).

================================================================================
                                        WARNINGS
                       Please study these warnings very carefully!
================================================================================


INFO   : the flag for use of the SHARK integral package has been found!

================================================================================
                                       INPUT FILE
================================================================================
NAME = casscf.inp
|  1> !CASSCF def2-TZVP def2-TZVP/C
|  2> !MOREAD RIJCOSX
|  3> %maxcore 6000
|  4> %moinp "pbe.qro"
|  5> %pal nprocs 2 end 
|  6> 
|  7> %casscf
|  8>  mult 5,3
|  9>  bweight 1,1
| 10>  nroots 5,45
| 11>  nel 6
| 12>  norb 5
| 13> end
| 14> 
| 15> 
| 16> *xyzfile 0 5 pbe.xyz
| 17> 
| 18> 
| 19>                          ****END OF INPUT****
================================================================================

                       ****************************
                       * Single Point Calculation *
                       ****************************

---------------------------------
CARTESIAN COORDINATES (ANGSTROEM)
---------------------------------
  Au    11.452307    8.892787   10.690354
  Au     8.607598    8.987557   10.785391
  Au    10.023703   10.518630    8.842586
  Au     7.358518    9.932714    8.530301
  Au     6.798492    9.578869    5.836858
  Au     9.605747    9.604374    6.280759
  Au     8.414501    7.874159    4.380944
  Au     5.428822    8.081922    7.787489
  Au     8.804963    5.012180    8.138241
  Au    10.408386    6.762879    5.905895
  Au     8.082681    5.260395    5.437866
  Au     7.146219    6.917323    9.718091
  Au     6.160052    5.425187    7.522585
  Au    11.382527    8.258412    7.999006
  Au     9.929750    6.682322   10.015420
  Au    11.530469    5.463638    8.074955
  Cr     8.039148    7.486176    7.147554

----------------------------
CARTESIAN COORDINATES (A.U.)
----------------------------
  NO LB      ZA    FRAG     MASS         X           Y           Z
   0 Au   19.0000*   0   196.966   21.641724   16.804931   20.201841
   1 Au   19.0000*   0   196.966   16.266003   16.984022   20.381435
   2 Au   19.0000*   0   196.966   18.942053   19.877331   16.710065
   3 Au   19.0000*   0   196.966   13.905583   18.770109   16.119932
   4 Au   19.0000*   0   196.966   12.847288   18.101440   11.030064
   5 Au   19.0000*   0   196.966   18.152231   18.149636   11.868915
   6 Au   19.0000*   0   196.966   15.901103   14.880004    8.278785
   7 Au   19.0000*   0   196.966   10.258988   15.272619   14.716222
   8 Au   19.0000*   0   196.966   16.638968    9.471648   15.379046
   9 Au   19.0000*   0   196.966   19.668999   12.779989   11.160524
  10 Au   19.0000*   0   196.966   15.274053    9.940706   10.276078
  11 Au   19.0000*   0   196.966   13.504397   13.071846   18.364530
  12 Au   19.0000*   0   196.966   11.640810   10.252117   14.215625
  13 Au   19.0000*   0   196.966   21.509859   15.606137   15.115931
  14 Au   19.0000*   0   196.966   18.764509   12.627758   18.926400
  15 Au   19.0000*   0   196.966   21.789428   10.324779   15.259454
  16 Cr   24.0000    0    52.000   15.191789   14.146823   13.506919
* core charge reduced due to ECP

--------------------------------
INTERNAL COORDINATES (ANGSTROEM)
--------------------------------
 Au     0   0   0     0.000000000000     0.00000000     0.00000000
 Au     1   0   0     2.847873669326     0.00000000     0.00000000
 Au     1   2   0     2.845790717696    60.07985867     0.00000000
 Au     2   1   3     2.745715763892   116.00574273    18.29020868
 Au     4   2   1     2.773710033678   147.72356377    64.62386131
 Au     3   1   2     2.752000784614   119.39786590   259.68131166
 Au     5   4   2     2.763550068642   118.17777443   340.94006502
 Au     4   2   1     2.775053638222   107.85462435   128.20111159
 Au     8   4   2     4.576534284932    85.05831965   309.48702419
 Au     7   5   4     2.745176316141   112.44399414   359.80978523
 Au     9   8   4     2.806300682843    71.15880049   248.22793470
 Au     2   1   3     2.749659851864   119.52988972   102.02817643
 Au     9   8   4     2.746845830886    34.06923340   181.47765907
 Au    10   7   5     2.750760661673   117.37560084   329.16237310
 Au     9   8   4     2.752875124504    86.94680934    28.31209073
 Au     9   8   4     2.763367759497   128.04360532   339.63835825
 Cr     8   4   2     2.752858993461    63.07575904   281.97623908

---------------------------
INTERNAL COORDINATES (A.U.)
---------------------------
 Au     0   0   0     0.000000000000     0.00000000     0.00000000
 Au     1   0   0     5.381701299031     0.00000000     0.00000000
 Au     1   2   0     5.377765090900    60.07985867     0.00000000
 Au     2   1   3     5.188650835346   116.00574273    18.29020868
 Au     4   2   1     5.241552338562   147.72356377    64.62386131
 Au     3   1   2     5.200527803257   119.39786590   259.68131166
 Au     5   4   2     5.222352787112   118.17777443   340.94006502
 Au     4   2   1     5.244091383182   107.85462435   128.20111159
 Au     8   4   2     8.648396441023    85.05831965   309.48702419
 Au     7   5   4     5.187631426833   112.44399414   359.80978523
 Au     9   8   4     5.303139740010    71.15880049   248.22793470
 Au     2   1   3     5.196104081461   119.52988972   102.02817643
 Au     9   8   4     5.190786352477    34.06923340   181.47765907
 Au    10   7   5     5.198184310526   117.37560084   329.16237310
 Au     9   8   4     5.202180066196    86.94680934    28.31209073
 Au     9   8   4     5.222008272758   128.04360532   339.63835825
 Cr     8   4   2     5.202149582943    63.07575904   281.97623908

---------------------
BASIS SET INFORMATION
---------------------
There are 2 groups of distinct atoms

 Group   1 Type Au  : 8s7p6d1f contracted to 6s4p3d1f pattern {311111/4111/411/1}
 Group   2 Type Cr  : 17s11p7d1f contracted to 6s4p4d1f pattern {842111/6311/4111/1}

Atom   0Au   basis set group =>   1
Atom   1Au   basis set group =>   1
Atom   2Au   basis set group =>   1
Atom   3Au   basis set group =>   1
Atom   4Au   basis set group =>   1
Atom   5Au   basis set group =>   1
Atom   6Au   basis set group =>   1
Atom   7Au   basis set group =>   1
Atom   8Au   basis set group =>   1
Atom   9Au   basis set group =>   1
Atom  10Au   basis set group =>   1
Atom  11Au   basis set group =>   1
Atom  12Au   basis set group =>   1
Atom  13Au   basis set group =>   1
Atom  14Au   basis set group =>   1
Atom  15Au   basis set group =>   1
Atom  16Cr   basis set group =>   2
---------------------------------
AUXILIARY/J BASIS SET INFORMATION
---------------------------------
There are 2 groups of distinct atoms

 Group   1 Type Au  : 11s5p5d3f3g contracted to 8s5p5d2f3g pattern {41111111/11111/11111/21/111}
 Group   2 Type Cr  : 19s5p5d3f3g contracted to 8s5p5d2f3g pattern {121111111/11111/11111/21/111}

Atom   0Au   basis set group =>   1
Atom   1Au   basis set group =>   1
Atom   2Au   basis set group =>   1
Atom   3Au   basis set group =>   1
Atom   4Au   basis set group =>   1
Atom   5Au   basis set group =>   1
Atom   6Au   basis set group =>   1
Atom   7Au   basis set group =>   1
Atom   8Au   basis set group =>   1
Atom   9Au   basis set group =>   1
Atom  10Au   basis set group =>   1
Atom  11Au   basis set group =>   1
Atom  12Au   basis set group =>   1
Atom  13Au   basis set group =>   1
Atom  14Au   basis set group =>   1
Atom  15Au   basis set group =>   1
Atom  16Cr   basis set group =>   2
---------------------------------
AUXILIARY/C BASIS SET INFORMATION
---------------------------------
There are 2 groups of distinct atoms

 Group   1 Type Au  : 8s8p7d5f3g2h contracted to 8s8p7d5f3g2h pattern {11111111/11111111/1111111/11111/111/11}
 Group   2 Type Cr  : 11s9p8d6f5g2h contracted to 9s8p8d6f5g2h pattern {311111111/21111111/11111111/111111/11111/11}

Atom   0Au   basis set group =>   1
Atom   1Au   basis set group =>   1
Atom   2Au   basis set group =>   1
Atom   3Au   basis set group =>   1
Atom   4Au   basis set group =>   1
Atom   5Au   basis set group =>   1
Atom   6Au   basis set group =>   1
Atom   7Au   basis set group =>   1
Atom   8Au   basis set group =>   1
Atom   9Au   basis set group =>   1
Atom  10Au   basis set group =>   1
Atom  11Au   basis set group =>   1
Atom  12Au   basis set group =>   1
Atom  13Au   basis set group =>   1
Atom  14Au   basis set group =>   1
Atom  15Au   basis set group =>   1
Atom  16Cr   basis set group =>   2
-------------------------
ECP PARAMETER INFORMATION
-------------------------

 Group 1, Type Au ECP Def2-ECP (replacing 60 core electrons, lmax=3)

Atom   0Au   ECP group =>   1
Atom   1Au   ECP group =>   1
Atom   2Au   ECP group =>   1
Atom   3Au   ECP group =>   1
Atom   4Au   ECP group =>   1
Atom   5Au   ECP group =>   1
Atom   6Au   ECP group =>   1
Atom   7Au   ECP group =>   1
Atom   8Au   ECP group =>   1
Atom   9Au   ECP group =>   1
Atom  10Au   ECP group =>   1
Atom  11Au   ECP group =>   1
Atom  12Au   ECP group =>   1
Atom  13Au   ECP group =>   1
Atom  14Au   ECP group =>   1
Atom  15Au   ECP group =>   1



           ************************************************************
           *        Program running with 2 parallel MPI-processes     *
           *              working on a common directory               *
           ************************************************************
------------------------------------------------------------------------------
                           ORCA GTO INTEGRAL CALCULATION
                           -- RI-GTO INTEGRALS CHOSEN --
------------------------------------------------------------------------------
------------------------------------------------------------------------------
                   ___                                                        
                  /   \      - P O W E R E D   B Y -                         
                 /     \                                                     
                 |  |  |   _    _      __       _____    __    __             
                 |  |  |  | |  | |    /  \     |  _  \  |  |  /  |          
                  \  \/   | |  | |   /    \    | | | |  |  | /  /          
                 / \  \   | |__| |  /  /\  \   | |_| |  |  |/  /          
                |  |  |   |  __  | /  /__\  \  |    /   |      \           
                |  |  |   | |  | | |   __   |  |    \   |  |\   \          
                \     /   | |  | | |  |  |  |  | |\  \  |  | \   \       
                 \___/    |_|  |_| |__|  |__|  |_| \__\ |__|  \__/        
                                                                              
                      - O R C A' S   B I G   F R I E N D -                    
                                      &                                       
                       - I N T E G R A L  F E E D E R -                       
                                                                              
 v1 FN, 2020, v2 2021                                                         
------------------------------------------------------------------------------


Reading SHARK input file casscf.SHARKINP.tmp ... ok
----------------------
SHARK INTEGRAL PACKAGE
----------------------

Number of atoms                             ...     17
Number of basis functions                   ...    685
Number of shells                            ...    239
Maximum angular momentum                    ...      3
Integral batch strategy                     ... SHARK/LIBINT Hybrid
RI-J (if used) integral strategy            ... SPLIT-RIJ (Revised 2003 algorithm where possible)
Printlevel                                  ...      1
Contraction scheme used                     ... SEGMENTED contraction
Coulomb Range Separation                    ... NOT USED
Exchange Range Separation                   ... NOT USED
Finite Nucleus Model                        ... NOT USED
Auxiliary Coulomb fitting basis             ... AVAILABLE
   # of basis functions in Aux-J            ...   1513
   # of shells in Aux-J                     ...    391
   Maximum angular momentum in Aux-J        ...      4
Auxiliary J/K fitting basis                 ... NOT available
Auxiliary Correlation fitting basis         ... AVAILABLE
   # of basis functions in Aux-C            ...   2598
   # of shells in Aux-C                     ...    566
   Maximum angular momentum in Aux-C        ...      5
Auxiliary 'external' fitting basis          ... NOT available
Integral threshold                          ...     1.000000e-10
Primitive cut-off                           ...     1.000000e-11
Primitive pair pre-selection threshold      ...     1.000000e-11

Calculating pre-screening integrals         ... done (  0.3 sec) Dimension = 239
Organizing shell pair data                  ... done (  0.3 sec)
Shell pair information
Total number of shell pairs                 ...     28680
Shell pairs after pre-screening             ...     22190
Total number of primitive shell pairs       ...     75765
Primitive shell pairs kept                  ...     41970
          la=0 lb=0:   3512 shell pairs
          la=1 lb=0:   5040 shell pairs
          la=1 lb=1:   1900 shell pairs
          la=2 lb=0:   4404 shell pairs
          la=2 lb=1:   3126 shell pairs
          la=2 lb=2:   1290 shell pairs
          la=3 lb=0:   1148 shell pairs
          la=3 lb=1:    882 shell pairs
          la=3 lb=2:    772 shell pairs
          la=3 lb=3:    116 shell pairs

Calculating one electron integrals          ... done (  0.1 sec)
Calculating ECP integrals                   ... done ( 10.2 sec)
Calculating RI/J V-Matrix + Cholesky decomp.... done (  0.1 sec)
Calculating RI/C V-Matrix + Cholesky decomp.... done (  0.3 sec)
Calculating Nuclear repulsion               ... done (  0.0 sec) ENN=   6914.069775155774 Eh

SHARK setup successfully completed in  11.8 seconds

Maximum memory used throughout the entire GTOINT-calculation: 112.4 MB


           ************************************************************
           *        Program running with 2 parallel MPI-processes     *
           *              working on a common directory               *
           ************************************************************
-------------------------------------------------------------------------------
                                 ORCA SCF
-------------------------------------------------------------------------------

------------
SCF SETTINGS
------------
Hamiltonian:
 Ab initio Hamiltonian  Method          .... Hartree-Fock(GTOs)
 RI-approximation to the Coulomb term is turned on
   Number of AuxJ basis functions       .... 1513
   RIJ-COSX (HFX calculated with COS-X)).... on


General Settings:
 Integral files         IntName         .... casscf
 Hartree-Fock type      HFTyp           .... CASSCF
 Total Charge           Charge          ....    0
 Multiplicity           Mult            ....    5
 Number of Electrons    NEL             ....  328
 Basis Dimension        Dim             ....  685
 Nuclear Repulsion      ENuc            ....   6914.0697751558 Eh


Diagonalization of the overlap matrix:
Smallest eigenvalue                        ... 9.343e-05
Time for diagonalization                   ...    0.060 sec
Threshold for overlap eigenvalues          ... 1.000e-08
Number of eigenvalues below threshold      ... 0
Time for construction of square roots      ...    0.030 sec
Total time needed                          ...    0.092 sec

---------------------
INITIAL GUESS: MOREAD
---------------------
Guess MOs are being read from file: pbe.qro
Input Geometry matches current geometry (good)
Input basis set matches current basis set (good)
MOs were renormalized
Gram-Schmidt orthogonalization of all MOs with pivot on actives
                      ------------------
                      INITIAL GUESS DONE (   1.8 sec)
                      ------------------
--------------------
COSX GRID GENERATION
--------------------

GRIDX 1
-------
General Integration Accuracy     IntAcc      ... 3.816
Radial Grid Type                 RadialGrid  ... OptM3 with GC (2021)
Angular Grid (max. ang.)         AngularGrid ... 1 (Lebedev-50)
Angular grid pruning method      GridPruning ... 4 (adaptive)
Weight generation scheme         WeightScheme... Becke
Basis function cutoff            BFCut       ... 1.0000e-10
Integration weight cutoff        WCut        ... 1.0000e-14
Angular grids for H and He will be reduced by one unit
Partially contracted basis set               ... on
Rotationally invariant grid construction     ... off

Total number of grid points                  ...    19490
Total number of batches                      ...      316
Average number of points per batch           ...       61
Average number of grid points per atom       ...     1146
UseSFitting                                  ... on

GRIDX 2
-------
General Integration Accuracy     IntAcc      ... 4.020
Radial Grid Type                 RadialGrid  ... OptM3 with GC (2021)
Angular Grid (max. ang.)         AngularGrid ... 2 (Lebedev-110)
Angular grid pruning method      GridPruning ... 4 (adaptive)
Weight generation scheme         WeightScheme... Becke
Basis function cutoff            BFCut       ... 1.0000e-10
Integration weight cutoff        WCut        ... 1.0000e-14
Angular grids for H and He will be reduced by one unit
Partially contracted basis set               ... on
Rotationally invariant grid construction     ... off

Total number of grid points                  ...    59280
Total number of batches                      ...      935
Average number of points per batch           ...       63
Average number of grid points per atom       ...     3487
UseSFitting                                  ... on

GRIDX 3
-------
General Integration Accuracy     IntAcc      ... 4.338
Radial Grid Type                 RadialGrid  ... OptM3 with GC (2021)
Angular Grid (max. ang.)         AngularGrid ... 3 (Lebedev-194)
Angular grid pruning method      GridPruning ... 4 (adaptive)
Weight generation scheme         WeightScheme... Becke
Basis function cutoff            BFCut       ... 1.0000e-10
Integration weight cutoff        WCut        ... 1.0000e-14
Angular grids for H and He will be reduced by one unit
Partially contracted basis set               ... on
Rotationally invariant grid construction     ... off

Total number of grid points                  ...   107341
Total number of batches                      ...     1686
Average number of points per batch           ...       63
Average number of grid points per atom       ...     6314
UseSFitting                                  ... on

Time for X-Grid setup             =    2.421 sec



 ... the calculation is a CASSCF calculation -I'm leaving here GOOD LUCK!!!



           ************************************************************
           *        Program running with 2 parallel MPI-processes     *
           *              working on a common directory               *
           ************************************************************
-------------------------------------------------------------------------------
                              ORCA-CASSCF
-------------------------------------------------------------------------------

Setting up the integral package       ... done
Setting up the integral package (RI)  ... done
Building the CAS space                ... done (5 configurations for Mult=5)
Building the CAS space                ... done (35 configurations for Mult=3)

SYSTEM-SPECIFIC SETTINGS:
Number of active electrons          ...    6
Number of active orbitals           ...    5
Total number of electrons           ...  328
Total number of orbitals            ...  685
Total number aux. functions         ... 2598

Determined orbital ranges:
   Internal       0 -  160 ( 161 orbitals)
   Active       161 -  165 (   5 orbitals)
   External     166 -  684 ( 519 orbitals)
Number of rotation parameters      ...  86959

CI-STEP:
CI strategy                         ... General CI
Number of multiplicity blocks       ...    2
BLOCK  1 WEIGHT=   0.5000
  Multiplicity                      ...    5
  #(Configurations)                 ...    5
  #(CSFs)                           ...    5
  #(Roots)                          ...    5
    ROOT=0 WEIGHT=    0.100000
    ROOT=1 WEIGHT=    0.100000
    ROOT=2 WEIGHT=    0.100000
    ROOT=3 WEIGHT=    0.100000
    ROOT=4 WEIGHT=    0.100000

BLOCK  2 WEIGHT=   0.5000
  Multiplicity                      ...    3
  #(Configurations)                 ...   35
  #(CSFs)                           ...   45
  #(Roots)                          ...   45
    ROOT=0 WEIGHT=    0.011111
    ROOT=1 WEIGHT=    0.011111
    ROOT=2 WEIGHT=    0.011111
    ROOT=3 WEIGHT=    0.011111
    ROOT=4 WEIGHT=    0.011111
    ROOT=5 WEIGHT=    0.011111
    ROOT=6 WEIGHT=    0.011111
    ROOT=7 WEIGHT=    0.011111
    ROOT=8 WEIGHT=    0.011111
    ROOT=9 WEIGHT=    0.011111
    ROOT=10 WEIGHT=    0.011111
    ROOT=11 WEIGHT=    0.011111
    ROOT=12 WEIGHT=    0.011111
    ROOT=13 WEIGHT=    0.011111
    ROOT=14 WEIGHT=    0.011111
    ROOT=15 WEIGHT=    0.011111
    ROOT=16 WEIGHT=    0.011111
    ROOT=17 WEIGHT=    0.011111
    ROOT=18 WEIGHT=    0.011111
    ROOT=19 WEIGHT=    0.011111
    ROOT=20 WEIGHT=    0.011111
    ROOT=21 WEIGHT=    0.011111
    ROOT=22 WEIGHT=    0.011111
    ROOT=23 WEIGHT=    0.011111
    ROOT=24 WEIGHT=    0.011111
    ROOT=25 WEIGHT=    0.011111
    ROOT=26 WEIGHT=    0.011111
    ROOT=27 WEIGHT=    0.011111
    ROOT=28 WEIGHT=    0.011111
    ROOT=29 WEIGHT=    0.011111
    ROOT=30 WEIGHT=    0.011111
    ROOT=31 WEIGHT=    0.011111
    ROOT=32 WEIGHT=    0.011111
    ROOT=33 WEIGHT=    0.011111
    ROOT=34 WEIGHT=    0.011111
    ROOT=35 WEIGHT=    0.011111
    ROOT=36 WEIGHT=    0.011111
    ROOT=37 WEIGHT=    0.011111
    ROOT=38 WEIGHT=    0.011111
    ROOT=39 WEIGHT=    0.011111
    ROOT=40 WEIGHT=    0.011111
    ROOT=41 WEIGHT=    0.011111
    ROOT=42 WEIGHT=    0.011111
    ROOT=43 WEIGHT=    0.011111
    ROOT=44 WEIGHT=    0.011111

  PrintLevel                        ...    1
  N(GuessMat)                       ...       512
  MaxDim(CI)                        ...        10
  MaxIter(CI)                       ...        64
  Energy Tolerance CI               ...  1.00e-08
  Residual Tolerance CI             ...  1.00e-08
  Shift(CI)                         ...  1.00e-04

INTEGRAL-TRANSFORMATION-STEP:
  Algorithm                         ... RI-MO

ORBITAL-IMPROVEMENT-STEP:
  Algorithm                         ... SuperCI(PT)
  Default Parametrization           ... CAYLEY
  Act-Act rotations                 ... depends on algorithm used

  Note: SuperCI(PT) will ignore FreezeIE, FreezeAct and FreezeGrad. In general Default settings are encouraged.
        In conjunction with ShiftUp, ShiftDn or GradScaling the performance of SuperCI(PT) is less optimal.  

  MaxRot                            ... 2.00e-01 
  Max. no of vectors (DIIS)         ... 15
  DThresh (cut-off) metric          ... 1.00e-06
  Switch step at gradient           ...  3.00e-02 
  Switch step at iteration          ...        50   
  Switch step to                    ... SuperCI(PT)    

SCF-SETTINGS:
  Incremental                       ... off
  RIJCOSX approximation             ... on
  UseFinalGrid                      ... on
  RI-JK approximation               ... off
  AO integral handling              ... DIRECT
  Integral Neglect Thresh           ...  1.00e-10
  Primitive cutoff TCut             ...  1.00e-11
  Energy convergence tolerance      ...  1.00e-07
  Orbital gradient convergence      ...  1.00e-03
  Max. number of iterations         ...        75  


FINAL ORBITALS:
  Active   Orbitals                 ... natural 
  Internal Orbitals                 ... canonical 
  External Orbitals                 ... canonical 

------------------
CAS-SCF ITERATIONS
------------------


MACRO-ITERATION   1: 
   --- Inactive Energy E0 = -3192.40199934 Eh
CI-ITERATION   0: 
 -3199.844666679   0.000000000000 (    0.00)
 -3199.585097294   0.000000000000
 -3199.571923319   0.000000000000
 -3199.567252507   0.000000000000
 -3199.548929369   0.000000000000
   CI-PROBLEM SOLVED
   DENSITIES MADE
CI-ITERATION   0: 
 -3199.773853679   0.000000000000 (    0.00)
 -3199.773396405   0.000000000000
 -3199.772978311   0.000000000000
 -3199.772597861   0.000000000000
 -3199.763638678   0.000000000000
 -3199.761417136   0.000000000000
 -3199.761044073   0.000000000000
 -3199.755222887   0.000000000000
 -3199.748578520   0.000000000000
 -3199.747043800   0.000000000000
 -3199.744977130   0.000000000000
 -3199.719964763   0.000000000000
 -3199.708098126   0.000000000000
 -3199.705189477   0.000000000000
 -3199.702429975   0.000000000000
 -3199.570157689   0.000000000000
 -3199.558641153   0.000000000000
 -3199.554180398   0.000000000000
 -3199.544244397   0.000000000000
 -3199.539745397   0.000000000000
 -3199.536209235   0.000000000000
 -3199.532715786   0.000000000000
 -3199.532217558   0.000000000000
 -3199.528426121   0.000000000000
 -3199.527125044   0.000000000000
 -3199.516047875   0.000000000000
 -3199.513204621   0.000000000000
 -3199.511321024   0.000000000000
 -3199.506298844   0.000000000000
 -3199.501852475   0.000000000000
 -3199.495400216   0.000000000000
 -3199.492430952   0.000000000000
 -3199.480706581   0.000000000000
 -3199.480606258   0.000000000000
 -3199.478439241   0.000000000000
 -3199.427933963   0.000000000000
 -3199.423523415   0.000000000000
 -3199.401233364   0.000000000000
 -3199.397037448   0.000000000000
 -3199.052230283   0.000000000000
 -3199.042974686   0.000000000000
 -3199.015506529   0.000000000000
 -3199.014106305   0.000000000000
 -3198.966128199   0.000000000000
 -3198.955765263   0.000000000000
   CI-PROBLEM SOLVED
   DENSITIES MADE

                 <<<<<<<<<<<<<<<<<<INITIAL CI STATE CHECK>>>>>>>>>>>>>>>>>>

BLOCK  1 MULT= 5 NROOTS= 5 
ROOT   0:  E=   -3199.8446666793 Eh
      1.00000 [     4]: 21111
ROOT   1:  E=   -3199.5850972939 Eh  7.063 eV  56968.9 cm**-1
      0.81393 [     3]: 12111
      0.09928 [     0]: 11112
      0.08656 [     2]: 11211
ROOT   2:  E=   -3199.5719233185 Eh  7.422 eV  59860.2 cm**-1
      0.99970 [     1]: 11121
ROOT   3:  E=   -3199.5672525073 Eh  7.549 eV  60885.4 cm**-1
      0.89366 [     0]: 11112
      0.07342 [     3]: 12111
      0.03291 [     2]: 11211
ROOT   4:  E=   -3199.5489293692 Eh  8.047 eV  64906.8 cm**-1
      0.88052 [     2]: 11211
      0.11237 [     3]: 12111
      0.00705 [     0]: 11112

BLOCK  2 MULT= 3 NROOTS=45 
ROOT   0:  E=   -3199.7738536786 Eh
      0.64867 [    28]: 21111
      0.13957 [    31]: 21210
      0.13346 [    25]: 21012
      0.02398 [    32]: 22011
      0.02261 [    34]: 22110
      0.01451 [    22]: 20112
      0.00949 [    24]: 20211
      0.00295 [    27]: 21102
      0.00285 [    29]: 21120
ROOT   1:  E=   -3199.7733964046 Eh  0.012 eV    100.4 cm**-1
      0.27257 [    26]: 21021
      0.23246 [    30]: 21201
      0.17811 [    29]: 21120
      0.16240 [    27]: 21102
      0.09600 [    33]: 22101
      0.05085 [    23]: 20121
      0.00514 [    28]: 21111
ROOT   2:  E=   -3199.7729783106 Eh  0.024 eV    192.1 cm**-1
      0.25968 [    28]: 21111
      0.22070 [    25]: 21012
      0.20594 [    31]: 21210
      0.11806 [    34]: 22110
      0.08579 [    32]: 22011
      0.05680 [    24]: 20211
      0.04863 [    22]: 20112
      0.00252 [    33]: 22101
ROOT   3:  E=   -3199.7725978607 Eh  0.034 eV    275.6 cm**-1
      0.62228 [    28]: 21111
      0.16204 [    32]: 22011
      0.07924 [    24]: 20211
      0.05895 [    31]: 21210
      0.03340 [    25]: 21012
      0.01898 [    22]: 20112
      0.01527 [    34]: 22110
      0.00347 [    27]: 21102
      0.00339 [    29]: 21120
ROOT   4:  E=   -3199.7636386775 Eh  0.278 eV   2241.9 cm**-1
      0.40246 [    33]: 22101
      0.27410 [    29]: 21120
      0.14388 [    27]: 21102
      0.13022 [    23]: 20121
      0.03241 [    30]: 21201
      0.01118 [    28]: 21111
      0.00326 [    34]: 22110
ROOT   5:  E=   -3199.7614171361 Eh  0.338 eV   2729.5 cm**-1
      0.30063 [    26]: 21021
      0.25176 [    33]: 22101
      0.20254 [    27]: 21102
      0.15254 [    30]: 21201
      0.05386 [    29]: 21120
      0.02944 [    23]: 20121
      0.00325 [    25]: 21012
      0.00274 [    28]: 21111
ROOT   6:  E=   -3199.7610440729 Eh  0.349 eV   2811.4 cm**-1
      0.35137 [    28]: 21111
      0.30562 [    34]: 22110
      0.17227 [    32]: 22011
      0.06848 [    22]: 20112
      0.04987 [    31]: 21210
      0.03128 [    25]: 21012
      0.01628 [    24]: 20211
      0.00333 [    26]: 21021
ROOT   7:  E=   -3199.7552228865 Eh  0.507 eV   4089.0 cm**-1
      0.74171 [    28]: 21111
      0.08682 [    32]: 22011
      0.04626 [    31]: 21210
      0.04352 [    24]: 20211
      0.03890 [    34]: 22110
      0.02552 [    22]: 20112
      0.01547 [    25]: 21012
ROOT   8:  E=   -3199.7485785199 Eh  0.688 eV   5547.3 cm**-1
      0.27576 [    28]: 21111
      0.24179 [    32]: 22011
      0.20036 [    34]: 22110
      0.12506 [    31]: 21210
      0.11667 [    22]: 20112
      0.02219 [    25]: 21012
      0.00995 [    24]: 20211
ROOT   9:  E=   -3199.7470438000 Eh  0.730 eV   5884.1 cm**-1
      0.33938 [    30]: 21201
      0.22327 [    23]: 20121
      0.15830 [    27]: 21102
      0.14517 [    29]: 21120
      0.12730 [    26]: 21021
      0.00301 [    22]: 20112
ROOT  10:  E=   -3199.7449771303 Eh  0.786 eV   6337.7 cm**-1
      0.42802 [    25]: 21012
      0.22841 [    24]: 20211
      0.21343 [    31]: 21210
      0.07002 [    28]: 21111
      0.05031 [    22]: 20112
      0.00277 [    34]: 22110
      0.00260 [    29]: 21120
ROOT  11:  E=   -3199.7199647626 Eh  1.466 eV  11827.2 cm**-1
      0.32490 [    29]: 21120
      0.31885 [    27]: 21102
      0.12008 [    23]: 20121
      0.08300 [    26]: 21021
      0.07808 [    30]: 21201
      0.06811 [    33]: 22101
ROOT  12:  E=   -3199.7080981261 Eh  1.789 eV  14431.7 cm**-1
      0.43808 [    23]: 20121
      0.20652 [    26]: 21021
      0.17195 [    33]: 22101
      0.16026 [    30]: 21201
      0.01184 [    29]: 21120
      0.00306 [    27]: 21102
ROOT  13:  E=   -3199.7051894774 Eh  1.868 eV  15070.1 cm**-1
      0.64604 [    22]: 20112
      0.27760 [    34]: 22110
      0.03435 [    24]: 20211
      0.01320 [    31]: 21210
      0.01224 [    25]: 21012
      0.00696 [    32]: 22011
      0.00297 [    23]: 20121
ROOT  14:  E=   -3199.7024299746 Eh  1.944 eV  15675.7 cm**-1
      0.52096 [    24]: 20211
      0.21647 [    32]: 22011
      0.14345 [    31]: 21210
      0.09531 [    25]: 21012
      0.01148 [    34]: 22110
      0.00681 [    28]: 21111
ROOT  15:  E=   -3199.5701576890 Eh  5.543 eV  44706.1 cm**-1
      0.81924 [    18]: 12111
      0.09154 [    13]: 11211
      0.08704 [    10]: 11112
ROOT  16:  E=   -3199.5586411535 Eh  5.856 eV  47233.7 cm**-1
      0.99749 [    11]: 11121
ROOT  17:  E=   -3199.5541803985 Eh  5.978 eV  48212.7 cm**-1
      0.90350 [    10]: 11112
      0.06252 [    18]: 12111
      0.03243 [    13]: 11211
ROOT  18:  E=   -3199.5442443973 Eh  6.248 eV  50393.4 cm**-1
      0.57583 [    16]: 12021
      0.34904 [    11]: 11121
      0.04168 [    20]: 12201
      0.02267 [     9]: 11022
ROOT  19:  E=   -3199.5397453974 Eh  6.370 eV  51380.8 cm**-1
      0.54854 [    15]: 12012
      0.29280 [    18]: 12111
      0.06501 [    10]: 11112
      0.04718 [    21]: 12210
      0.03578 [    13]: 11211
      0.00637 [     7]: 10212
ROOT  20:  E=   -3199.5362092345 Eh  6.467 eV  52156.9 cm**-1
      0.87339 [    13]: 11211
      0.11677 [    18]: 12111
      0.00808 [    10]: 11112
ROOT  21:  E=   -3199.5327157865 Eh  6.562 eV  52923.6 cm**-1
      0.40293 [    19]: 12120
      0.25772 [    17]: 12102
      0.19562 [    14]: 11220
      0.08111 [    11]: 11121
      0.01349 [     8]: 10221
      0.01252 [    18]: 12111
      0.01113 [    12]: 11202
      0.00912 [    20]: 12201
      0.00771 [     9]: 11022
      0.00363 [    13]: 11211
ROOT  22:  E=   -3199.5322175581 Eh  6.575 eV  53033.0 cm**-1
      0.52275 [    18]: 12111
      0.18505 [    15]: 12012
      0.12472 [    10]: 11112
      0.07740 [    13]: 11211
      0.06641 [    21]: 12210
      0.01930 [     7]: 10212
ROOT  23:  E=   -3199.5284261211 Eh  6.678 eV  53865.1 cm**-1
      0.64633 [     9]: 11022
      0.20048 [    11]: 11121
      0.03489 [    14]: 11220
      0.02865 [    12]: 11202
      0.02300 [     8]: 10221
      0.02010 [    16]: 12021
      0.01673 [    19]: 12120
      0.01076 [    20]: 12201
      0.00824 [     6]: 10122
      0.00410 [    10]: 11112
ROOT  24:  E=   -3199.5271250436 Eh  6.714 eV  54150.7 cm**-1
      0.64932 [    18]: 12111
      0.15119 [    13]: 11211
      0.09526 [    15]: 12012
      0.05596 [    10]: 11112
      0.01508 [    21]: 12210
      0.01043 [     7]: 10212
      0.00738 [    19]: 12120
      0.00379 [    11]: 11121
      0.00358 [    17]: 12102
      0.00276 [    12]: 11202
      0.00265 [     9]: 11022
ROOT  25:  E=   -3199.5160478750 Eh  7.015 eV  56581.8 cm**-1
      0.34349 [    17]: 12102
      0.27814 [    20]: 12201
      0.15434 [    11]: 11121
      0.10426 [    14]: 11220
      0.04970 [     6]: 10122
      0.03812 [    19]: 12120
      0.01442 [    12]: 11202
      0.00841 [     8]: 10221
      0.00385 [    16]: 12021
      0.00254 [    21]: 12210
ROOT  26:  E=   -3199.5132046211 Eh  7.093 eV  57205.9 cm**-1
      0.32859 [    13]: 11211
      0.30349 [    21]: 12210
      0.22984 [    10]: 11112
      0.09684 [    18]: 12111
      0.01368 [    15]: 12012
      0.01041 [    11]: 11121
      0.00602 [    19]: 12120
      0.00389 [     6]: 10122
      0.00265 [    17]: 12102
ROOT  27:  E=   -3199.5113210238 Eh  7.144 eV  57619.3 cm**-1
      0.25593 [    11]: 11121
      0.18394 [    17]: 12102
      0.13783 [     6]: 10122
      0.13224 [    12]: 11202
      0.10085 [    20]: 12201
      0.09925 [    19]: 12120
      0.04174 [     9]: 11022
      0.01809 [    16]: 12021
      0.01036 [    10]: 11112
      0.00556 [    14]: 11220
      0.00525 [    13]: 11211
      0.00268 [    21]: 12210
      0.00255 [     8]: 10221
ROOT  28:  E=   -3199.5062988441 Eh  7.281 eV  58721.5 cm**-1
      0.49555 [    11]: 11121
      0.13328 [     8]: 10221
      0.08476 [    19]: 12120
      0.07592 [    20]: 12201
      0.06665 [    12]: 11202
      0.05777 [    17]: 12102
      0.05586 [    16]: 12021
      0.01972 [     6]: 10122
      0.00425 [    14]: 11220
ROOT  29:  E=   -3199.5018524752 Eh  7.402 eV  59697.4 cm**-1
      0.81791 [    10]: 11112
      0.08988 [    15]: 12012
      0.03909 [    21]: 12210
      0.03241 [    13]: 11211
      0.01304 [    18]: 12111
ROOT  30:  E=   -3199.4954002161 Eh  7.577 eV  61113.5 cm**-1
      0.20242 [    16]: 12021
      0.15483 [     8]: 10221
      0.14687 [    20]: 12201
      0.14673 [    14]: 11220
      0.11535 [     9]: 11022
      0.08755 [    12]: 11202
      0.08136 [    11]: 11121
      0.02249 [    19]: 12120
      0.01692 [    17]: 12102
      0.01176 [     6]: 10122
      0.00677 [    13]: 11211
ROOT  31:  E=   -3199.4924309522 Eh  7.658 eV  61765.1 cm**-1
      0.60137 [    10]: 11112
      0.21756 [    18]: 12111
      0.13185 [    13]: 11211
      0.01813 [     7]: 10212
      0.01322 [    15]: 12012
      0.01092 [    21]: 12210
      0.00301 [    11]: 11121
ROOT  32:  E=   -3199.4807065811 Eh  7.977 eV  64338.4 cm**-1
      0.23022 [     6]: 10122
      0.18254 [    11]: 11121
      0.14566 [    12]: 11202
      0.13722 [    14]: 11220
      0.12160 [     8]: 10221
      0.08955 [    20]: 12201
      0.04859 [     9]: 11022
      0.03513 [    19]: 12120
      0.00324 [    13]: 11211
ROOT  33:  E=   -3199.4806062579 Eh  7.980 eV  64360.4 cm**-1
      0.69055 [    13]: 11211
      0.16964 [    18]: 12111
      0.06006 [     7]: 10212
      0.03684 [    10]: 11112
      0.03176 [    21]: 12210
ROOT  34:  E=   -3199.4784392414 Eh  8.039 eV  64836.0 cm**-1
      0.35709 [    13]: 11211
      0.32766 [    21]: 12210
      0.24193 [     7]: 10212
      0.04219 [    10]: 11112
      0.01534 [    18]: 12111
      0.00451 [    14]: 11220
      0.00404 [    12]: 11202
ROOT  35:  E=   -3199.4279339626 Eh  9.413 eV  75920.6 cm**-1
      0.41078 [     6]: 10122
      0.27948 [    19]: 12120
      0.18498 [    14]: 11220
      0.08766 [    17]: 12102
      0.01096 [    11]: 11121
      0.00793 [    12]: 11202
      0.00704 [    16]: 12021
      0.00336 [     8]: 10221
ROOT  36:  E=   -3199.4235234145 Eh  9.533 eV  76888.6 cm**-1
      0.49521 [    12]: 11202
      0.16610 [    20]: 12201
      0.11997 [    14]: 11220
      0.07973 [     9]: 11022
      0.06385 [     6]: 10122
      0.03965 [    17]: 12102
      0.01813 [    11]: 11121
      0.00996 [     8]: 10221
      0.00262 [    16]: 12021
ROOT  37:  E=   -3199.4012333642 Eh 10.140 eV  81780.7 cm**-1
      0.52256 [     8]: 10221
      0.14893 [    11]: 11121
      0.10780 [    16]: 12021
      0.07408 [    20]: 12201
      0.05665 [     6]: 10122
      0.05263 [    14]: 11220
      0.03044 [     9]: 11022
      0.00452 [    19]: 12120
ROOT  38:  E=   -3199.3970374480 Eh 10.254 eV  82701.6 cm**-1
      0.63404 [     7]: 10212
      0.16820 [    13]: 11211
      0.14875 [    21]: 12210
      0.04326 [    15]: 12012
      0.00257 [    10]: 11112
ROOT  39:  E=   -3199.0522302829 Eh 19.636 eV 158378.0 cm**-1
      0.75914 [     4]: 02121
      0.20557 [     2]: 01221
      0.03443 [     0]: 01122
ROOT  40:  E=   -3199.0429746861 Eh 19.888 eV 160409.4 cm**-1
      0.87975 [     3]: 02112
      0.06879 [     5]: 02211
      0.05045 [     1]: 01212
ROOT  41:  E=   -3199.0155065287 Eh 20.636 eV 166438.0 cm**-1
      0.93463 [     0]: 01122
      0.05921 [     4]: 02121
      0.00504 [     2]: 01221
ROOT  42:  E=   -3199.0141063051 Eh 20.674 eV 166745.3 cm**-1
      0.69384 [     5]: 02211
      0.19089 [     1]: 01212
      0.11336 [     3]: 02112
ROOT  43:  E=   -3198.9661281993 Eh 21.979 eV 177275.3 cm**-1
      0.78730 [     2]: 01221
      0.18048 [     4]: 02121
      0.02993 [     0]: 01122
ROOT  44:  E=   -3198.9557652625 Eh 22.261 eV 179549.7 cm**-1
      0.75695 [     1]: 01212
      0.23661 [     5]: 02211
      0.00525 [     3]: 02112

                 <<<<<<<<<<<<<<<<<<INITIAL CI STATE CHECK>>>>>>>>>>>>>>>>>>

   E(CAS)= -3199.570751818 Eh DE=    0.000000e+00
   --- Energy gap subspaces: Ext-Act = 0.178   Act-Int = 0.105
   N(occ)=  1.20000 1.20000 1.20000 1.20000 1.20000
   ||g|| =     2.995676e+00 Max(G)=   -4.233078e-01 Rot=604,1
   --- Orbital Update [SuperCI(PT)]
   --- Canonicalize Internal Space
   --- Canonicalize External Space
   --- SX_PT (Skipped TA=0 IT=0): ||X|| =      1.070093267 Max(X)(170,164) =     -0.296826891 
   --- SFit(Active Orbitals)

MACRO-ITERATION   2: 
   --- Inactive Energy E0 = -3190.86016489 Eh
CI-ITERATION   0: 
 -3199.535001669   0.000000000000 (    0.00)
 -3199.514605314   0.000000000000
 -3199.509078400   0.000000000000
 -3199.476495609   0.000000000000
 -3199.171258048   0.000000000000
   CI-PROBLEM SOLVED
   DENSITIES MADE
CI-ITERATION   0: 
 -3199.702622737   0.000000000000 (    0.00)
 -3199.695894932   0.000000000000
 -3199.679516789   0.000000000000
 -3199.667552644   0.000000000000
 -3199.647518222   0.000000000000
 -3199.645748882   0.000000000000
 -3199.532177487   0.000000000000
 -3199.525773492   0.000000000000
 -3199.523825496   0.000000000000
 -3199.505737220   0.000000000000
 -3199.505383684   0.000000000000
 -3199.503698641   0.000000000000
 -3199.499902041   0.000000000000
 -3199.499547979   0.000000000000
 -3199.496492618   0.000000000000
 -3199.486538369   0.000000000000
 -3199.476586917   0.000000000000
 -3199.473882393   0.000000000000
 -3199.472490478   0.000000000000
 -3199.468692963   0.000000000000
 -3199.467287432   0.000000000000
 -3199.461287907   0.000000000000
 -3199.458603769   0.000000000000
 -3199.439216703   0.000000000000
 -3199.437828432   0.000000000000
 -3199.433853249   0.000000000000
 -3199.414343382   0.000000000000
 -3199.411584784   0.000000000000
 -3199.382347620   0.000000000000
 -3199.378646003   0.000000000000
 -3199.186648210   0.000000000000
 -3199.170534395   0.000000000000
 -3199.161146284   0.000000000000
 -3199.145414777   0.000000000000
 -3199.138617345   0.000000000000
 -3199.127905197   0.000000000000
 -3199.125729224   0.000000000000
 -3199.123779751   0.000000000000
 -3199.118775473   0.000000000000
 -3199.104385980   0.000000000000
 -3199.076714993   0.000000000000
 -3199.071471279   0.000000000000
 -3199.062257136   0.000000000000
 -3199.058658899   0.000000000000
 -3199.021568630   0.000000000000
   CI-PROBLEM SOLVED
   DENSITIES MADE
   E(CAS)= -3199.409401580 Eh DE=    1.613502e-01
   --- Energy gap subspaces: Ext-Act = -0.207   Act-Int = -0.362
   N(occ)=  1.20000 1.20000 1.20000 1.20000 1.20000
   ||g|| =     3.624621e+00 Max(G)=   -5.852625e-01 Rot=604,21
   --- Orbital Update [SuperCI(PT)]
   --- Canonicalize Internal Space
   --- Canonicalize External Space
   --- SX_PT (Skipped TA=0 IT=0): ||X|| =     29.354718593 Max(X)(166,109) =     27.787531072 
   --- SFit(Active Orbitals)

MACRO-ITERATION   3: 
   --- Inactive Energy E0 = -3191.15443485 Eh
CI-ITERATION   0: 
 -3199.626455755   0.000000000000 (    0.00)
 -3199.608259447   0.000000000000
 -3199.601723575   0.000000000000
 -3199.580062932   0.000000000000
 -3199.315974921   0.000000000000
   CI-PROBLEM SOLVED
   DENSITIES MADE
CI-ITERATION   0: 
 -3199.728417310   0.000000000000 (    0.00)
 -3199.721364403   0.000000000000
 -3199.712580359   0.000000000000
 -3199.697034719   0.000000000000
 -3199.680871263   0.000000000000
 -3199.678807754   0.000000000000
 -3199.617594278   0.000000000000
 -3199.612280261   0.000000000000
 -3199.604605319   0.000000000000
 -3199.599952345   0.000000000000
 -3199.595541348   0.000000000000
 -3199.593970655   0.000000000000
 -3199.593000832   0.000000000000
 -3199.589560547   0.000000000000
 -3199.581941563   0.000000000000
 -3199.576024043   0.000000000000
 -3199.571369722   0.000000000000
 -3199.569177332   0.000000000000
 -3199.566825199   0.000000000000
 -3199.565070228   0.000000000000
 -3199.560164944   0.000000000000
 -3199.557841423   0.000000000000
 -3199.557400512   0.000000000000
 -3199.540267760   0.000000000000
 -3199.537658752   0.000000000000
 -3199.535751340   0.000000000000
 -3199.510372133   0.000000000000
 -3199.506503498   0.000000000000
 -3199.480596332   0.000000000000
 -3199.479962359   0.000000000000
 -3199.315102425   0.000000000000
 -3199.300139238   0.000000000000
 -3199.290756318   0.000000000000
 -3199.286644584   0.000000000000
 -3199.280543674   0.000000000000
 -3199.269754547   0.000000000000
 -3199.268363644   0.000000000000
 -3199.265502962   0.000000000000
 -3199.260940214   0.000000000000
 -3199.246028030   0.000000000000
 -3199.222143966   0.000000000000
 -3199.215190719   0.000000000000
 -3199.212066019   0.000000000000
 -3199.210560280   0.000000000000
 -3199.175516607   0.000000000000
   CI-PROBLEM SOLVED
   DENSITIES MADE
   E(CAS)= -3199.512600571 Eh DE=   -1.031990e-01
   --- Energy gap subspaces: Ext-Act = -0.119   Act-Int = -0.295
   N(occ)=  1.20000 1.20000 1.20000 1.20000 1.20000
   ||g|| =     3.082502e+00 Max(G)=   -4.836156e-01 Rot=604,21
   --- Orbital Update [SuperCI(PT)]
   --- Canonicalize Internal Space
   --- Canonicalize External Space
   --- SX_PT (Skipped TA=0 IT=0): ||X|| =      5.204566212 Max(X)(165,157) =     -2.682606320 
   --- SFit(Active Orbitals)

MACRO-ITERATION   4: 
   --- Inactive Energy E0 = -3192.05719337 Eh
CI-ITERATION   0: 
 -3199.935817728   0.000000000000 (    0.00)
 -3199.917491882   0.000000000000
 -3199.913637045   0.000000000000
 -3199.903659175   0.000000000000
 -3199.785465474   0.000000000000
   CI-PROBLEM SOLVED
   DENSITIES MADE
CI-ITERATION   0: 
 -3199.929564566   0.000000000000 (    0.00)
 -3199.911379002   0.000000000000
 -3199.907498115   0.000000000000
 -3199.907403222   0.000000000000
 -3199.906040909   0.000000000000
 -3199.898698354   0.000000000000
 -3199.896826544   0.000000000000
 -3199.896551197   0.000000000000
 -3199.893720540   0.000000000000
 -3199.885601673   0.000000000000
 -3199.880541225   0.000000000000
 -3199.877853831   0.000000000000
 -3199.877190326   0.000000000000
 -3199.868651968   0.000000000000
 -3199.867084091   0.000000000000
 -3199.865812890   0.000000000000
 -3199.861335827   0.000000000000
 -3199.854850768   0.000000000000
 -3199.851840661   0.000000000000
 -3199.851215137   0.000000000000
 -3199.838466725   0.000000000000
 -3199.837569054   0.000000000000
 -3199.823661710   0.000000000000
 -3199.815436170   0.000000000000
 -3199.807970582   0.000000000000
 -3199.795313986   0.000000000000
 -3199.793217323   0.000000000000
 -3199.784890013   0.000000000000
 -3199.779298495   0.000000000000
 -3199.772809183   0.000000000000
 -3199.747522451   0.000000000000
 -3199.742906921   0.000000000000
 -3199.738693016   0.000000000000
 -3199.735931447   0.000000000000
 -3199.734405386   0.000000000000
 -3199.729899447   0.000000000000
 -3199.726137432   0.000000000000
 -3199.723277584   0.000000000000
 -3199.719392759   0.000000000000
 -3199.705734074   0.000000000000
 -3199.698465440   0.000000000000
 -3199.688737250   0.000000000000
 -3199.678228564   0.000000000000
 -3199.675796429   0.000000000000
 -3199.658505890   0.000000000000
   CI-PROBLEM SOLVED
   DENSITIES MADE
   E(CAS)= -3199.850517443 Eh DE=   -3.379169e-01
   --- Energy gap subspaces: Ext-Act = 0.127   Act-Int = -0.089
   N(occ)=  1.20000 1.20000 1.20000 1.20000 1.20000
   ||g|| =     1.499527e+00 Max(G)=   -2.359571e-01 Rot=169,163
   --- Orbital Update [SuperCI(PT)]
   --- Canonicalize Internal Space
   --- Canonicalize External Space
   --- SX_PT (Skipped TA=0 IT=0): ||X|| =      0.884184722 Max(X)(166,161) =      0.285789188 
   --- SFit(Active Orbitals)

MACRO-ITERATION   5: 
   --- Inactive Energy E0 = -3192.44135942 Eh
CI-ITERATION   0: 
 -3200.184828950   0.000000000000 (    0.00)
 -3200.113252459   0.000000000000
 -3200.099501604   0.000000000000
 -3200.096604363   0.000000000000
 -3200.093126700   0.000000000000
   CI-PROBLEM SOLVED
   DENSITIES MADE
CI-ITERATION   0: 
 -3200.120256507   0.000000000000 (    0.00)
 -3200.119603568   0.000000000000
 -3200.119253799   0.000000000000
 -3200.117507851   0.000000000000
 -3200.112309172   0.000000000000
 -3200.110339167   0.000000000000
 -3200.107820854   0.000000000000
 -3200.104232493   0.000000000000
 -3200.100535275   0.000000000000
 -3200.098544710   0.000000000000
 -3200.093283000   0.000000000000
 -3200.090915673   0.000000000000
 -3200.087651188   0.000000000000
 -3200.084968132   0.000000000000
 -3200.083875849   0.000000000000
 -3200.069655643   0.000000000000
 -3200.067970036   0.000000000000
 -3200.067636896   0.000000000000
 -3200.066049323   0.000000000000
 -3200.064514105   0.000000000000
 -3200.058877423   0.000000000000
 -3200.058076097   0.000000000000
 -3200.055545261   0.000000000000
 -3200.054138996   0.000000000000
 -3200.053988662   0.000000000000
 -3200.053476738   0.000000000000
 -3200.051051543   0.000000000000
 -3200.046193229   0.000000000000
 -3200.037676993   0.000000000000
 -3200.034967352   0.000000000000
 -3200.030010390   0.000000000000
 -3200.027936953   0.000000000000
 -3200.026066791   0.000000000000
 -3200.024918655   0.000000000000
 -3200.021488967   0.000000000000
 -3199.972341469   0.000000000000
 -3199.965366989   0.000000000000
 -3199.949869968   0.000000000000
 -3199.944708583   0.000000000000
 -3199.753037162   0.000000000000
 -3199.749322078   0.000000000000
 -3199.746815166   0.000000000000
 -3199.726404931   0.000000000000
 -3199.697296104   0.000000000000
 -3199.692483318   0.000000000000
   CI-PROBLEM SOLVED
   DENSITIES MADE
   E(CAS)= -3200.066720108 Eh DE=   -2.162027e-01
   --- Energy gap subspaces: Ext-Act = 0.279   Act-Int = 0.091
   N(occ)=  1.20000 1.20000 1.20000 1.20000 1.20000
   ||g|| =     7.041774e-01 Max(G)=   -7.863898e-02 Rot=166,112
   --- Orbital Update [SuperCI(PT)]
   --- Canonicalize Internal Space
   --- Canonicalize External Space
   --- SX_PT (Skipped TA=0 IT=0): ||X|| =      0.278062971 Max(X)(170,164) =      0.052111364 
   --- SFit(Active Orbitals)

MACRO-ITERATION   6: 
   --- Inactive Energy E0 = -3191.86424539 Eh
CI-ITERATION   0: 
 -3200.189587446   0.000000000000 (    0.00)
 -3200.167645806   0.000000000000
 -3200.153284479   0.000000000000
 -3200.151811713   0.000000000000
 -3200.148723434   0.000000000000
   CI-PROBLEM SOLVED
   DENSITIES MADE
CI-ITERATION   0: 
 -3200.160155998   0.000000000000 (    0.00)
 -3200.146994951   0.000000000000
 -3200.145438105   0.000000000000
 -3200.141860919   0.000000000000
 -3200.123005632   0.000000000000
 -3200.122371292   0.000000000000
 -3200.121508153   0.000000000000
 -3200.120923964   0.000000000000
 -3200.120181576   0.000000000000
 -3200.119129851   0.000000000000
 -3200.118898951   0.000000000000
 -3200.116763592   0.000000000000
 -3200.113726269   0.000000000000
 -3200.112132618   0.000000000000
 -3200.111696841   0.000000000000
 -3200.108917404   0.000000000000
 -3200.107311012   0.000000000000
 -3200.106916859   0.000000000000
 -3200.106783903   0.000000000000
 -3200.104299872   0.000000000000
 -3200.099935826   0.000000000000
 -3200.098143787   0.000000000000
 -3200.090478043   0.000000000000
 -3200.089574261   0.000000000000
 -3200.088723544   0.000000000000
 -3200.086342539   0.000000000000
 -3200.082175614   0.000000000000
 -3200.079772118   0.000000000000
 -3200.079486755   0.000000000000
 -3200.077076366   0.000000000000
 -3200.071615970   0.000000000000
 -3200.060371197   0.000000000000
 -3200.045617458   0.000000000000
 -3200.044230396   0.000000000000
 -3200.038359437   0.000000000000
 -3200.019776881   0.000000000000
 -3200.011472891   0.000000000000
 -3199.994918688   0.000000000000
 -3199.991904602   0.000000000000
 -3199.820851135   0.000000000000
 -3199.820236674   0.000000000000
 -3199.815170662   0.000000000000
 -3199.794714907   0.000000000000
 -3199.769153018   0.000000000000
 -3199.767469630   0.000000000000
   CI-PROBLEM SOLVED
   DENSITIES MADE
   E(CAS)= -3200.107400734 Eh DE=   -4.068063e-02
   --- Energy gap subspaces: Ext-Act = 0.300   Act-Int = 0.080
   N(occ)=  1.20000 1.20000 1.20000 1.20000 1.20000
   ||g|| =     4.701045e-01 Max(G)=    5.227467e-02 Rot=167,162
   --- Orbital Update [SuperCI(PT)]
   --- Canonicalize Internal Space
   --- Canonicalize External Space
   --- SX_PT (Skipped TA=0 IT=0): ||X|| =      0.229604837 Max(X)(166,162) =     -0.062952313 
   --- SFit(Active Orbitals)

MACRO-ITERATION   7: 
   --- Inactive Energy E0 = -3191.77417813 Eh
CI-ITERATION   0: 
 -3200.244580160   0.000000000000 (    0.00)
 -3200.196810326   0.000000000000
 -3200.181774811   0.000000000000
 -3200.181309301   0.000000000000
 -3200.178557195   0.000000000000
   CI-PROBLEM SOLVED
   DENSITIES MADE
CI-ITERATION   0: 
 -3200.190416790   0.000000000000 (    0.00)
 -3200.176940464   0.000000000000
 -3200.176618510   0.000000000000
 -3200.173354476   0.000000000000
 -3200.172096227   0.000000000000
 -3200.170010017   0.000000000000
 -3200.169918329   0.000000000000
 -3200.168455279   0.000000000000
 -3200.161753817   0.000000000000
 -3200.160435582   0.000000000000
 -3200.155832960   0.000000000000
 -3200.148619976   0.000000000000
 -3200.147848973   0.000000000000
 -3200.146269224   0.000000000000
 -3200.145409582   0.000000000000
 -3200.144440863   0.000000000000
 -3200.141778631   0.000000000000
 -3200.136621307   0.000000000000
 -3200.135275703   0.000000000000
 -3200.134727272   0.000000000000
 -3200.133451388   0.000000000000
 -3200.132378105   0.000000000000
 -3200.131061388   0.000000000000
 -3200.129762947   0.000000000000
 -3200.114414925   0.000000000000
 -3200.113672542   0.000000000000
 -3200.113032185   0.000000000000
 -3200.104412549   0.000000000000
 -3200.102989059   0.000000000000
 -3200.101787577   0.000000000000
 -3200.097940481   0.000000000000
 -3200.094715146   0.000000000000
 -3200.085854874   0.000000000000
 -3200.085090231   0.000000000000
 -3200.078832036   0.000000000000
 -3200.039489772   0.000000000000
 -3200.028943217   0.000000000000
 -3200.011251087   0.000000000000
 -3200.009825342   0.000000000000
 -3199.791533588   0.000000000000
 -3199.788226019   0.000000000000
 -3199.781180870   0.000000000000
 -3199.762015985   0.000000000000
 -3199.738185217   0.000000000000
 -3199.735907093   0.000000000000
   CI-PROBLEM SOLVED
   DENSITIES MADE
   E(CAS)= -3200.136778486 Eh DE=   -2.937775e-02
   --- Energy gap subspaces: Ext-Act = 0.308   Act-Int = 0.086
   N(occ)=  1.20000 1.20000 1.20000 1.20000 1.20000
   ||g|| =     4.797289e-01 Max(G)=   -2.499227e-02 Rot=190,160
   --- Orbital Update [SuperCI(PT)]
   --- Canonicalize Internal Space
   --- Canonicalize External Space
   --- SX_PT (Skipped TA=0 IT=0): ||X|| =      0.140239013 Max(X)(166,165) =     -0.024829421 
   --- SFit(Active Orbitals)

MACRO-ITERATION   8: 
   --- Inactive Energy E0 = -3191.46899423 Eh
CI-ITERATION   0: 
 -3200.260398497   0.000000000000 (    0.00)
 -3200.214887695   0.000000000000
 -3200.200565618   0.000000000000
 -3200.199592330   0.000000000000
 -3200.197002299   0.000000000000
   CI-PROBLEM SOLVED
   DENSITIES MADE
CI-ITERATION   0: 
 -3200.209360291   0.000000000000 (    0.00)
 -3200.196164833   0.000000000000
 -3200.195281846   0.000000000000
 -3200.192391120   0.000000000000
 -3200.184713180   0.000000000000
 -3200.182504045   0.000000000000
 -3200.182140484   0.000000000000
 -3200.180737570   0.000000000000
 -3200.174215878   0.000000000000
 -3200.172151155   0.000000000000
 -3200.167565926   0.000000000000
 -3200.163947334   0.000000000000
 -3200.161668095   0.000000000000
 -3200.160510237   0.000000000000
 -3200.160011616   0.000000000000
 -3200.157593327   0.000000000000
 -3200.156449682   0.000000000000
 -3200.151969064   0.000000000000
 -3200.151171910   0.000000000000
 -3200.149602894   0.000000000000
 -3200.147272597   0.000000000000
 -3200.145706963   0.000000000000
 -3200.144466464   0.000000000000
 -3200.142439739   0.000000000000
 -3200.129354166   0.000000000000
 -3200.128428582   0.000000000000
 -3200.124682724   0.000000000000
 -3200.118698316   0.000000000000
 -3200.117556840   0.000000000000
 -3200.116393691   0.000000000000
 -3200.110619030   0.000000000000
 -3200.109442529   0.000000000000
 -3200.093959785   0.000000000000
 -3200.093319763   0.000000000000
 -3200.085681441   0.000000000000
 -3200.051324104   0.000000000000
 -3200.040036227   0.000000000000
 -3200.022005509   0.000000000000
 -3200.020735081   0.000000000000
 -3199.787289535   0.000000000000
 -3199.782779428   0.000000000000
 -3199.775196973   0.000000000000
 -3199.756674596   0.000000000000
 -3199.732069710   0.000000000000
 -3199.730453977   0.000000000000
   CI-PROBLEM SOLVED
   DENSITIES MADE
   E(CAS)= -3200.151208402 Eh DE=   -1.442992e-02
   --- Energy gap subspaces: Ext-Act = 0.317   Act-Int = 0.085
   N(occ)=  1.20000 1.20000 1.20000 1.20000 1.20000
   ||g|| =     1.871205e-01 Max(G)=    1.707232e-02 Rot=166,116
   --- Orbital Update [SuperCI(PT)]
   --- Canonicalize Internal Space
   --- Canonicalize External Space
   --- SX_PT (Skipped TA=0 IT=0): ||X|| =      0.060228093 Max(X)(162,160) =      0.010461791 
   --- SFit(Active Orbitals)

MACRO-ITERATION   9: 
   --- Inactive Energy E0 = -3191.49491546 Eh
CI-ITERATION   0: 
 -3200.261875986   0.000000000000 (    0.00)
 -3200.215835548   0.000000000000
 -3200.201419492   0.000000000000
 -3200.200394669   0.000000000000
 -3200.197725079   0.000000000000
   CI-PROBLEM SOLVED
   DENSITIES MADE
CI-ITERATION   0: 
 -3200.210292796   0.000000000000 (    0.00)
 -3200.197026776   0.000000000000
 -3200.196101543   0.000000000000
 -3200.193111668   0.000000000000
 -3200.186221544   0.000000000000
 -3200.184125968   0.000000000000
 -3200.183740758   0.000000000000
 -3200.182359734   0.000000000000
 -3200.175899228   0.000000000000
 -3200.173874559   0.000000000000
 -3200.169320828   0.000000000000
 -3200.164993673   0.000000000000
 -3200.162745895   0.000000000000
 -3200.161602163   0.000000000000
 -3200.161509171   0.000000000000
 -3200.158841622   0.000000000000
 -3200.158074794   0.000000000000
 -3200.153070192   0.000000000000
 -3200.152222800   0.000000000000
 -3200.150587715   0.000000000000
 -3200.148227420   0.000000000000
 -3200.146717030   0.000000000000
 -3200.146381397   0.000000000000
 -3200.144257228   0.000000000000
 -3200.130373092   0.000000000000
 -3200.129486903   0.000000000000
 -3200.126052458   0.000000000000
 -3200.119682909   0.000000000000
 -3200.118626483   0.000000000000
 -3200.117404914   0.000000000000
 -3200.112053573   0.000000000000
 -3200.110435018   0.000000000000
 -3200.095824060   0.000000000000
 -3200.095055697   0.000000000000
 -3200.087704476   0.000000000000
 -3200.052522496   0.000000000000
 -3200.041254532   0.000000000000
 -3200.023173335   0.000000000000
 -3200.021817139   0.000000000000
 -3199.788263823   0.000000000000
 -3199.784109911   0.000000000000
 -3199.776453670   0.000000000000
 -3199.758014534   0.000000000000
 -3199.733184360   0.000000000000
 -3199.731483912   0.000000000000
   CI-PROBLEM SOLVED
   DENSITIES MADE
   E(CAS)= -3200.152328231 Eh DE=   -1.119828e-03
   --- Energy gap subspaces: Ext-Act = 0.316   Act-Int = 0.083
   N(occ)=  1.20000 1.20000 1.20000 1.20000 1.20000
   ||g|| =     1.604331e-01 Max(G)=    1.352678e-02 Rot=166,116
   --- Orbital Update [SuperCI(PT)]
   --- Canonicalize Internal Space
   --- Canonicalize External Space
   --- SX_PT (Skipped TA=0 IT=0): ||X|| =      0.052308725 Max(X)(166,160) =      0.010971989 
   --- SFit(Active Orbitals)

MACRO-ITERATION  10: 
   --- Inactive Energy E0 = -3191.51762545 Eh
CI-ITERATION   0: 
 -3200.264454091   0.000000000000 (    0.00)
 -3200.216297956   0.000000000000
 -3200.202001606   0.000000000000
 -3200.201017065   0.000000000000
 -3200.198351028   0.000000000000
   CI-PROBLEM SOLVED
   DENSITIES MADE
CI-ITERATION   0: 
 -3200.210750570   0.000000000000 (    0.00)
 -3200.197666343   0.000000000000
 -3200.196805642   0.000000000000
 -3200.193769235   0.000000000000
 -3200.188602666   0.000000000000
 -3200.186598681   0.000000000000
 -3200.186240898   0.000000000000
 -3200.184941914   0.000000000000
 -3200.178204684   0.000000000000
 -3200.176143188   0.000000000000
 -3200.171891348   0.000000000000
 -3200.165430131   0.000000000000
 -3200.163938699   0.000000000000
 -3200.163240787   0.000000000000
 -3200.162033073   0.000000000000
 -3200.160932459   0.000000000000
 -3200.159020270   0.000000000000
 -3200.153631226   0.000000000000
 -3200.152812348   0.000000000000
 -3200.151196860   0.000000000000
 -3200.149033684   0.000000000000
 -3200.148917627   0.000000000000
 -3200.147301412   0.000000000000
 -3200.146935517   0.000000000000
 -3200.131133166   0.000000000000
 -3200.130213524   0.000000000000
 -3200.127620819   0.000000000000
 -3200.120340012   0.000000000000
 -3200.119329918   0.000000000000
 -3200.118083804   0.000000000000
 -3200.113580138   0.000000000000
 -3200.111146476   0.000000000000
 -3200.098464974   0.000000000000
 -3200.097747270   0.000000000000
 -3200.090649989   0.000000000000
 -3200.053142474   0.000000000000
 -3200.041975009   0.000000000000
 -3200.023890807   0.000000000000
 -3200.022605741   0.000000000000
 -3199.786724821   0.000000000000
 -3199.782817640   0.000000000000
 -3199.775237856   0.000000000000
 -3199.756964828   0.000000000000
 -3199.731789437   0.000000000000
 -3199.730136993   0.000000000000
   CI-PROBLEM SOLVED
   DENSITIES MADE
   E(CAS)= -3200.153319229 Eh DE=   -9.909990e-04
   --- Energy gap subspaces: Ext-Act = 0.316   Act-Int = 0.086
   N(occ)=  1.20000 1.20000 1.20000 1.20000 1.20000
   ||g|| =     1.370242e-01 Max(G)=    1.174808e-02 Rot=166,116
   --- Orbital Update [SuperCI(PT)]
   --- Canonicalize Internal Space
   --- Canonicalize External Space
   --- SX_PT (Skipped TA=0 IT=0): ||X|| =      0.040056231 Max(X)(166,162) =     -0.007352626 
   --- SFit(Active Orbitals)

MACRO-ITERATION  11: 
   --- Inactive Energy E0 = -3191.51976393 Eh
CI-ITERATION   0: 
 -3200.269643243   0.000000000000 (    0.00)
 -3200.216338723   0.000000000000
 -3200.202362683   0.000000000000
 -3200.201188875   0.000000000000
 -3200.198584846   0.000000000000
   CI-PROBLEM SOLVED
   DENSITIES MADE
CI-ITERATION   0: 
 -3200.210853114   0.000000000000 (    0.00)
 -3200.198257865   0.000000000000
 -3200.197357305   0.000000000000
 -3200.194231077   0.000000000000
 -3200.192968312   0.000000000000
 -3200.191186581   0.000000000000
 -3200.190842284   0.000000000000
 -3200.189683658   0.000000000000
 -3200.182366367   0.000000000000
 -3200.180389395   0.000000000000
 -3200.176530033   0.000000000000
 -3200.168204877   0.000000000000
 -3200.165602720   0.000000000000
 -3200.165252704   0.000000000000
 -3200.162937752   0.000000000000
 -3200.161874490   0.000000000000
 -3200.158962107   0.000000000000
 -3200.154737699   0.000000000000
 -3200.153137973   0.000000000000
 -3200.152641905   0.000000000000
 -3200.151523744   0.000000000000
 -3200.150724619   0.000000000000
 -3200.148965805   0.000000000000
 -3200.147250718   0.000000000000
 -3200.131529202   0.000000000000
 -3200.130272460   0.000000000000
 -3200.129960434   0.000000000000
 -3200.120222358   0.000000000000
 -3200.119479015   0.000000000000
 -3200.118030211   0.000000000000
 -3200.115085211   0.000000000000
 -3200.111061879   0.000000000000
 -3200.102634586   0.000000000000
 -3200.101941123   0.000000000000
 -3200.095363831   0.000000000000
 -3200.052743761   0.000000000000
 -3200.041466190   0.000000000000
 -3200.023501108   0.000000000000
 -3200.022133268   0.000000000000
 -3199.779311569   0.000000000000
 -3199.775475968   0.000000000000
 -3199.767977290   0.000000000000
 -3199.749867818   0.000000000000
 -3199.724166527   0.000000000000
 -3199.722813421   0.000000000000
   CI-PROBLEM SOLVED
   DENSITIES MADE
   E(CAS)= -3200.154162063 Eh DE=   -8.428333e-04
   --- Energy gap subspaces: Ext-Act = 0.316   Act-Int = 0.086
   N(occ)=  1.20000 1.20000 1.20000 1.20000 1.20000
   ||g|| =     1.145738e-01 Max(G)=   -1.063740e-02 Rot=166,127
   --- Orbital Update [SuperCI(PT)]
   --- Canonicalize Internal Space
   --- Canonicalize External Space
   --- SX_PT (Skipped TA=0 IT=0): ||X|| =      0.031105534 Max(X)(165,157) =      0.005980709 
   --- SFit(Active Orbitals)

MACRO-ITERATION  12: 
   --- Inactive Energy E0 = -3191.52414079 Eh
CI-ITERATION   0: 
 -3200.270694177   0.000000000000 (    0.00)
 -3200.216525102   0.000000000000
 -3200.202722529   0.000000000000
 -3200.201445120   0.000000000000
 -3200.198884563   0.000000000000
   CI-PROBLEM SOLVED
   DENSITIES MADE
CI-ITERATION   0: 
 -3200.211055046   0.000000000000 (    0.00)
 -3200.198663141   0.000000000000
 -3200.197717824   0.000000000000
 -3200.194596729   0.000000000000
 -3200.193889967   0.000000000000
 -3200.192179366   0.000000000000
 -3200.191812681   0.000000000000
 -3200.190707611   0.000000000000
 -3200.183296334   0.000000000000
 -3200.181372984   0.000000000000
 -3200.177539509   0.000000000000
 -3200.169141222   0.000000000000
 -3200.166595797   0.000000000000
 -3200.165434671   0.000000000000
 -3200.163134319   0.000000000000
 -3200.162069799   0.000000000000
 -3200.159157038   0.000000000000
 -3200.155542691   0.000000000000
 -3200.153707421   0.000000000000
 -3200.153044870   0.000000000000
 -3200.152251962   0.000000000000
 -3200.150951945   0.000000000000
 -3200.149254352   0.000000000000
 -3200.147516422   0.000000000000
 -3200.132065165   0.000000000000
 -3200.130567120   0.000000000000
 -3200.130518474   0.000000000000
 -3200.120434393   0.000000000000
 -3200.119829639   0.000000000000
 -3200.118298023   0.000000000000
 -3200.115578857   0.000000000000
 -3200.111366537   0.000000000000
 -3200.103513895   0.000000000000
 -3200.102828916   0.000000000000
 -3200.096337939   0.000000000000
 -3200.053014652   0.000000000000
 -3200.041701420   0.000000000000
 -3200.023815419   0.000000000000
 -3200.022385857   0.000000000000
 -3199.778391208   0.000000000000
 -3199.774514219   0.000000000000
 -3199.767208862   0.000000000000
 -3199.749260122   0.000000000000
 -3199.723285423   0.000000000000
 -3199.722201477   0.000000000000
   CI-PROBLEM SOLVED
   DENSITIES MADE
   E(CAS)= -3200.154557719 Eh DE=   -3.956563e-04
   --- Energy gap subspaces: Ext-Act = 0.316   Act-Int = 0.087
   N(occ)=  1.20000 1.20000 1.20000 1.20000 1.20000
   ||g|| =     1.006410e-01 Max(G)=   -9.682862e-03 Rot=166,127
   --- Orbital Update [SuperCI(PT)]
   --- Canonicalize Internal Space
   --- Canonicalize External Space
   --- SX_PT (Skipped TA=0 IT=0): ||X|| =      0.027565638 Max(X)(165,157) =      0.005287421 
   --- SFit(Active Orbitals)

MACRO-ITERATION  13: 
   --- Inactive Energy E0 = -3191.52880859 Eh
CI-ITERATION   0: 
 -3200.271092459   0.000000000000 (    0.00)
 -3200.216592406   0.000000000000
 -3200.202998186   0.000000000000
 -3200.201637608   0.000000000000
 -3200.199167370   0.000000000000
   CI-PROBLEM SOLVED
   DENSITIES MADE
CI-ITERATION   0: 
 -3200.211127858   0.000000000000 (    0.00)
 -3200.198948109   0.000000000000
 -3200.197958281   0.000000000000
 -3200.194908663   0.000000000000
 -3200.194317110   0.000000000000
 -3200.192639997   0.000000000000
 -3200.192236330   0.000000000000
 -3200.191166257   0.000000000000
 -3200.183738088   0.000000000000
 -3200.181870106   0.000000000000
 -3200.177981504   0.000000000000
 -3200.169580395   0.000000000000
 -3200.167042454   0.000000000000
 -3200.165543899   0.000000000000
 -3200.163243272   0.000000000000
 -3200.162207488   0.000000000000
 -3200.159275610   0.000000000000
 -3200.155901772   0.000000000000
 -3200.154066644   0.000000000000
 -3200.153242740   0.000000000000
 -3200.152558733   0.000000000000
 -3200.151134509   0.000000000000
 -3200.149500814   0.000000000000
 -3200.147756256   0.000000000000
 -3200.132454739   0.000000000000
 -3200.130845482   0.000000000000
 -3200.130794005   0.000000000000
 -3200.120629246   0.000000000000
 -3200.120125319   0.000000000000
 -3200.118575748   0.000000000000
 -3200.115948580   0.000000000000
 -3200.111686121   0.000000000000
 -3200.103871015   0.000000000000
 -3200.103199302   0.000000000000
 -3200.096676771   0.000000000000
 -3200.053350736   0.000000000000
 -3200.041985695   0.000000000000
 -3200.024224657   0.000000000000
 -3200.022749901   0.000000000000
 -3199.778474332   0.000000000000
 -3199.774452402   0.000000000000
 -3199.767414878   0.000000000000
 -3199.749658869   0.000000000000
 -3199.723549477   0.000000000000
 -3199.722711618   0.000000000000
   CI-PROBLEM SOLVED
   DENSITIES MADE
   E(CAS)= -3200.154830200 Eh DE=   -2.724813e-04
   --- Energy gap subspaces: Ext-Act = 0.316   Act-Int = 0.087
   N(occ)=  1.20000 1.20000 1.20000 1.20000 1.20000
   ||g|| =     9.043352e-02 Max(G)=   -8.699307e-03 Rot=166,127
   --- Orbital Update [SuperCI(PT)]
   --- Canonicalize Internal Space
   --- Canonicalize External Space
   --- SX_PT (Skipped TA=0 IT=0): ||X|| =      0.024718914 Max(X)(165,157) =      0.004456528 
   --- SFit(Active Orbitals)

MACRO-ITERATION  14: 
   --- Inactive Energy E0 = -3191.52877859 Eh
CI-ITERATION   0: 
 -3200.271402147   0.000000000000 (    0.00)
 -3200.216642245   0.000000000000
 -3200.203211047   0.000000000000
 -3200.201791443   0.000000000000
 -3200.199391810   0.000000000000
   CI-PROBLEM SOLVED
   DENSITIES MADE
CI-ITERATION   0: 
 -3200.211187419   0.000000000000 (    0.00)
 -3200.199161674   0.000000000000
 -3200.198138356   0.000000000000
 -3200.195162448   0.000000000000
 -3200.194606993   0.000000000000
 -3200.192936816   0.000000000000
 -3200.192521616   0.000000000000
 -3200.191463679   0.000000000000
 -3200.184024700   0.000000000000
 -3200.182195728   0.000000000000
 -3200.178254899   0.000000000000
 -3200.169853844   0.000000000000
 -3200.167308337   0.000000000000
 -3200.165598468   0.000000000000
 -3200.163297100   0.000000000000
 -3200.162275436   0.000000000000
 -3200.159333740   0.000000000000
 -3200.156115163   0.000000000000
 -3200.154290740   0.000000000000
 -3200.153355998   0.000000000000
 -3200.152733370   0.000000000000
 -3200.151238137   0.000000000000
 -3200.149625509   0.000000000000
 -3200.147914607   0.000000000000
 -3200.132669351   0.000000000000
 -3200.131022975   0.000000000000
 -3200.130925684   0.000000000000
 -3200.120731118   0.000000000000
 -3200.120278976   0.000000000000
 -3200.118752249   0.000000000000
 -3200.116180327   0.000000000000
 -3200.111873881   0.000000000000
 -3200.104041291   0.000000000000
 -3200.103379414   0.000000000000
 -3200.096825610   0.000000000000
 -3200.053522893   0.000000000000
 -3200.042091364   0.000000000000
 -3200.024432364   0.000000000000
 -3200.022934149   0.000000000000
 -3199.778214840   0.000000000000
 -3199.774057812   0.000000000000
 -3199.767177645   0.000000000000
 -3199.749554204   0.000000000000
 -3199.723413157   0.000000000000
 -3199.722705813   0.000000000000
   CI-PROBLEM SOLVED
   DENSITIES MADE
   E(CAS)= -3200.154992534 Eh DE=   -1.623340e-04
   --- Energy gap subspaces: Ext-Act = 0.316   Act-Int = 0.087
   N(occ)=  1.20000 1.20000 1.20000 1.20000 1.20000
   ||g|| =     8.368884e-02 Max(G)=   -8.024763e-03 Rot=166,127
   --- Orbital Update [SuperCI(PT)]
   --- Canonicalize Internal Space
   --- Canonicalize External Space
   --- SX_PT (Skipped TA=0 IT=0): ||X|| =      0.022828226 Max(X)(165,157) =      0.004042206 
Warning: badly conditioned DIIS matrix, 1 vectors out of 14 destroyed
Warning: badly conditioned DIIS matrix, 1 vectors out of 13 destroyed
   --- SFit(Active Orbitals)

[...]
      f+3     :     0.000634
      f-3     :     0.000683
 16 Crs       :     6.210780  s :     6.210780
      pz      :     4.151122  p :    12.478508
      px      :     4.150740
      py      :     4.176646
      dz2     :     1.526253  d :     6.480511
      dxz     :     1.103707
      dyz     :     1.325013
      dx2y2   :     0.972733
      dxy     :     1.552806
      f0      :     0.000220  f :     0.001397
      f+1     :     0.000164
      f-1     :     0.000163
      f+2     :     0.000194
      f-2     :     0.000219
      f+3     :     0.000250
      f-3     :     0.000186

SPIN
  0 Aus       :     0.001601  s :     0.001601
      pz      :     0.001332  p :     0.004154
      px      :     0.001098
      py      :     0.001723
      dz2     :     0.000361  d :     0.000943
      dxz     :     0.000065
      dyz     :     0.000111
      dx2y2   :     0.000106
      dxy     :     0.000301
      f0      :     0.000003  f :     0.000010
      f+1     :     0.000000
      f-1     :     0.000001
      f+2     :     0.000000
      f-2     :     0.000001
      f+3     :     0.000002
      f-3     :     0.000001
  1 Aus       :     0.007455  s :     0.007455
      pz      :     0.001198  p :     0.009087
      px      :     0.004982
      py      :     0.002907
      dz2     :     0.000434  d :     0.004742
      dxz     :     0.001291
      dyz     :     0.000346
      dx2y2   :     0.002261
      dxy     :     0.000408
      f0      :     0.000002  f :     0.000026
      f+1     :     0.000003
      f-1     :     0.000002
      f+2     :     0.000007
      f-2     :     0.000002
      f+3     :     0.000004
      f-3     :     0.000006
  2 Aus       :     0.006791  s :     0.006791
      pz      :     0.004293  p :     0.008845
      px      :     0.002432
      py      :     0.002120
      dz2     :     0.000529  d :     0.004557
      dxz     :     0.003149
      dyz     :     0.000235
      dx2y2   :     0.000323
      dxy     :     0.000320
      f0      :     0.000002  f :     0.000025
      f+1     :     0.000003
      f-1     :     0.000003
      f+2     :     0.000006
      f-2     :     0.000009
      f+3     :     0.000002
      f-3     :     0.000001
  3 Aus       :     0.001490  s :     0.001490
      pz      :     0.014457  p :     0.031744
      px      :     0.007275
      py      :     0.010012
      dz2     :     0.003830  d :     0.011995
      dxz     :     0.001577
      dyz     :     0.001528
      dx2y2   :     0.002167
      dxy     :     0.002893
      f0      :     0.000040  f :     0.000219
      f+1     :     0.000009
      f-1     :     0.000022
      f+2     :     0.000045
      f-2     :     0.000036
      f+3     :     0.000045
      f-3     :     0.000023
  4 Aus       :     0.025471  s :     0.025471
      pz      :     0.003654  p :     0.015960
      px      :     0.005812
      py      :     0.006495
      dz2     :     0.001648  d :     0.011190
      dxz     :     0.002520
      dyz     :     0.003233
      dx2y2   :     0.003092
      dxy     :     0.000697
      f0      :     0.000033  f :     0.000262
      f+1     :     0.000015
      f-1     :     0.000041
      f+2     :     0.000047
      f-2     :     0.000044
      f+3     :     0.000046
      f-3     :     0.000036
  5 Aus       :     0.008387  s :     0.008387
      pz      :     0.000718  p :     0.029007
      px      :     0.014705
      py      :     0.013584
      dz2     :     0.001158  d :     0.013511
      dxz     :     0.002053
      dyz     :     0.002460
      dx2y2   :     0.005247
      dxy     :     0.002593
      f0      :     0.000035  f :     0.000302
      f+1     :     0.000024
      f-1     :     0.000041
      f+2     :     0.000034
      f-2     :     0.000072
      f+3     :     0.000084
      f-3     :     0.000012
  6 Aus       :     0.000538  s :     0.000538
      pz      :     0.001399  p :     0.030648
      px      :     0.011745
      py      :     0.017504
      dz2     :     0.002343  d :     0.013109
      dxz     :     0.004713
      dyz     :     0.004068
      dx2y2   :     0.001409
      dxy     :     0.000575
      f0      :     0.000152  f :     0.000293
      f+1     :     0.000060
      f-1     :     0.000039
      f+2     :     0.000019
      f-2     :     0.000019
      f+3     :     0.000002
      f-3     :     0.000002
  7 Aus       :     0.027296  s :     0.027296
      pz      :     0.009962  p :     0.013758
      px      :     0.002088
      py      :     0.001707
      dz2     :     0.000777  d :     0.011116
      dxz     :     0.005310
      dyz     :     0.001733
      dx2y2   :     0.001626
      dxy     :     0.001670
      f0      :     0.000033  f :     0.000271
      f+1     :     0.000028
      f-1     :     0.000007
      f+2     :     0.000054
      f-2     :     0.000040
      f+3     :     0.000066
      f-3     :     0.000044
  8 Aus       :     0.032043  s :     0.032043
      pz      :     0.003351  p :     0.009575
      px      :     0.001608
      py      :     0.004616
      dz2     :     0.001027  d :     0.011432
      dxz     :     0.003897
      dyz     :     0.002390
      dx2y2   :     0.003131
      dxy     :     0.000987
      f0      :     0.000024  f :     0.000254
      f+1     :     0.000004
      f-1     :     0.000043
      f+2     :     0.000058
      f-2     :     0.000025
      f+3     :     0.000025
      f-3     :     0.000075
  9 Aus       :     0.033056  s :     0.033056
      pz      :     0.003293  p :     0.008470
      px      :     0.003948
      py      :     0.001229
      dz2     :     0.000954  d :     0.011485
      dxz     :     0.005336
      dyz     :     0.001857
      dx2y2   :     0.001739
      dxy     :     0.001599
      f0      :     0.000017  f :     0.000255
      f+1     :     0.000065
      f-1     :     0.000015
      f+2     :     0.000059
      f-2     :     0.000035
      f+3     :     0.000042
      f-3     :     0.000021
 10 Aus       :     0.000902  s :     0.000902
      pz      :     0.008850  p :     0.021862
      px      :     0.006189
      py      :     0.006823
      dz2     :     0.004420  d :     0.012948
      dxz     :     0.000946
      dyz     :     0.002605
      dx2y2   :     0.001801
      dxy     :     0.003176
      f0      :     0.000044  f :     0.000317
      f+1     :     0.000008
      f-1     :     0.000054
      f+2     :     0.000104
      f-2     :     0.000030
      f+3     :     0.000025
      f-3     :     0.000051
 11 Aus       :     0.005916  s :     0.005916
      pz      :     0.003493  p :     0.031863
      px      :     0.013392
      py      :     0.014978
      dz2     :     0.002439  d :     0.013399
      dxz     :     0.006264
      dyz     :     0.003312
      dx2y2   :     0.000342
      dxy     :     0.001042
      f0      :     0.000082  f :     0.000294
      f+1     :     0.000105
      f-1     :     0.000038
      f+2     :     0.000025
      f-2     :     0.000037
      f+3     :     0.000001
      f-3     :     0.000006
 12 Aus       :     0.000903  s :     0.000903
      pz      :     0.002234  p :     0.028383
      px      :     0.011297
      py      :     0.014852
      dz2     :     0.001027  d :     0.013469
      dxz     :     0.002138
      dyz     :     0.002733
      dx2y2   :     0.005703
      dxy     :     0.001867
      f0      :     0.000024  f :     0.000300
      f+1     :     0.000034
      f-1     :     0.000038
      f+2     :     0.000023
      f-2     :     0.000048
      f+3     :     0.000091
      f-3     :     0.000043
 13 Aus       :     0.007123  s :     0.007123
      pz      :     0.004600  p :     0.010498
      px      :     0.002684
      py      :     0.003213
      dz2     :     0.002201  d :     0.006762
      dxz     :     0.000525
      dyz     :     0.002392
      dx2y2   :     0.001002
      dxy     :     0.000642
      f0      :     0.000002  f :     0.000039
      f+1     :     0.000010
      f-1     :     0.000001
      f+2     :     0.000002
      f-2     :     0.000008
      f+3     :     0.000008
      f-3     :     0.000008
 14 Aus       :     0.008061  s :     0.008061
      pz      :     0.001828  p :     0.010931
      px      :     0.001889
      py      :     0.007214
      dz2     :     0.000703  d :     0.007001
      dxz     :     0.002111
      dyz     :     0.001623
      dx2y2   :     0.000563
      dxy     :     0.002001
      f0      :     0.000002  f :     0.000040
      f+1     :     0.000015
      f-1     :     0.000007
      f+2     :     0.000002
      f-2     :     0.000007
      f+3     :     0.000003
      f-3     :     0.000005
 15 Aus       :     0.004122  s :     0.004122
      pz      :     0.009790  p :     0.020264
      px      :     0.005120
      py      :     0.005354
      dz2     :     0.000626  d :     0.007588
      dxz     :     0.001849
      dyz     :     0.001484
      dx2y2   :     0.003204
      dxy     :     0.000425
      f0      :     0.000001  f :     0.000034
      f+1     :     0.000009
      f-1     :     0.000003
      f+2     :     0.000001
      f-2     :     0.000014
      f+3     :     0.000006
      f-3     :     0.000001
 16 Crs       :     0.001175  s :     0.001175
      pz      :     0.000402  p :     0.001637
      px      :     0.000557
      py      :     0.000679
      dz2     :     0.548237  d :     2.382791
      dxz     :     0.459972
      dyz     :     0.466585
      dx2y2   :     0.352555
      dxy     :     0.555442
      f0      :     0.000000  f :     0.000001
      f+1     :     0.000000
      f-1     :     0.000000
      f+2     :     0.000000
      f-2     :     0.000000
      f+3     :     0.000000
      f-3     :     0.000000


                      *****************************
                      * MAYER POPULATION ANALYSIS *
                      *****************************

  NA   - Mulliken gross atomic population
  ZA   - Total nuclear charge
  QA   - Mulliken gross atomic charge
  VA   - Mayer's total valence
  BVA  - Mayer's bonded valence
  FA   - Mayer's free valence

  ATOM       NA         ZA         QA         VA         BVA        FA
  0 Au    18.5732    19.0000     0.4268     1.1059     1.1014     0.0045
  1 Au    18.7185    19.0000     0.2815     1.3191     1.3037     0.0154
  2 Au    18.7180    19.0000     0.2820     1.3237     1.3094     0.0143
  3 Au    18.9877    19.0000     0.0123     1.6269     1.6108     0.0162
  4 Au    18.4695    19.0000     0.5305     1.1840     1.1607     0.0233
  5 Au    18.7708    19.0000     0.2292     1.6223     1.5952     0.0271
  6 Au    18.4100    19.0000     0.5900     1.1571     1.1377     0.0194
  7 Au    18.4700    19.0000     0.5300     1.1860     1.1625     0.0234
  8 Au    18.7620    19.0000     0.2380     1.6728     1.6328     0.0400
  9 Au    18.7543    19.0000     0.2457     1.6722     1.6306     0.0416
 10 Au    18.4704    19.0000     0.5296     1.1280     1.1151     0.0129
 11 Au    18.7723    19.0000     0.2277     1.6139     1.5887     0.0251
 12 Au    18.4079    19.0000     0.5921     1.1558     1.1373     0.0185
 13 Au    19.3034    19.0000    -0.3034     1.9800     1.9611     0.0189
 14 Au    19.3018    19.0000    -0.3018     1.9874     1.9661     0.0213
 15 Au    18.4914    19.0000     0.5086     0.9913     0.9760     0.0154
 16 Cr    28.6186    24.0000    -4.6186     8.8656     4.7354     4.1302

  Mayer bond orders larger than 0.100000
B(  0-Au,  1-Au) :   0.1669 B(  0-Au,  2-Au) :   0.1685 B(  0-Au, 13-Au) :   0.2980 
B(  0-Au, 14-Au) :   0.2972 B(  1-Au,  2-Au) :   0.1670 B(  1-Au,  3-Au) :   0.1782 
B(  1-Au, 11-Au) :   0.1621 B(  1-Au, 14-Au) :   0.2920 B(  1-Au, 16-Cr) :   0.2798 
B(  2-Au,  3-Au) :   0.1899 B(  2-Au,  5-Au) :   0.1626 B(  2-Au, 13-Au) :   0.2851 
B(  2-Au, 16-Cr) :   0.2790 B(  3-Au,  4-Au) :   0.1426 B(  3-Au,  5-Au) :   0.1224 
B(  3-Au,  7-Au) :   0.1410 B(  3-Au, 10-Au) :   0.1154 B(  3-Au, 11-Au) :   0.1124 
B(  3-Au, 16-Cr) :   0.3758 B(  4-Au,  6-Au) :   0.1635 B(  4-Au,  7-Au) :   0.1838 
B(  4-Au,  8-Au) :   0.1489 B(  4-Au, 16-Cr) :   0.2945 B(  5-Au,  6-Au) :   0.1324 
B(  5-Au,  9-Au) :   0.1183 B(  5-Au, 12-Au) :   0.1427 B(  5-Au, 13-Au) :   0.2308 
B(  5-Au, 16-Cr) :   0.3396 B(  6-Au,  9-Au) :   0.1641 B(  6-Au, 10-Au) :   0.1536 
B(  6-Au, 11-Au) :   0.1407 B(  6-Au, 16-Cr) :   0.2633 B(  7-Au,  9-Au) :   0.1514 
B(  7-Au, 12-Au) :   0.1621 B(  7-Au, 16-Cr) :   0.2976 B(  8-Au,  9-Au) :   0.1550 
B(  8-Au, 10-Au) :   0.1359 B(  8-Au, 11-Au) :   0.1121 B(  8-Au, 12-Au) :   0.1636 
B(  8-Au, 14-Au) :   0.1777 B(  8-Au, 15-Au) :   0.1860 B(  8-Au, 16-Cr) :   0.3303 
B(  9-Au, 10-Au) :   0.1350 B(  9-Au, 13-Au) :   0.1799 B(  9-Au, 15-Au) :   0.1791 
B(  9-Au, 16-Cr) :   0.3293 B( 10-Au, 12-Au) :   0.1525 B( 10-Au, 16-Cr) :   0.3088 
B( 11-Au, 12-Au) :   0.1314 B( 11-Au, 14-Au) :   0.2353 B( 11-Au, 16-Cr) :   0.3454 
B( 12-Au, 16-Cr) :   0.2640 B( 13-Au, 14-Au) :   0.3521 B( 13-Au, 15-Au) :   0.1581 
B( 13-Au, 16-Cr) :   0.3657 B( 14-Au, 15-Au) :   0.1627 B( 14-Au, 16-Cr) :   0.3577 
B( 15-Au, 16-Cr) :   0.2883 


-------------------------------------------------------------
 Forming the transition density       ... done in 0.022635 sec
-------------------------------------------------------------



==========================================
CASSCF UV, CD spectra and dipole moments
==========================================
-------------------
ABSORPTION SPECTRUM
-------------------

Center of mass           = ( 16.6451, 14.5505, 14.8531)
Nuclear contribution to the dipole moment =   -27.590374,   -7.663956,  -25.555612 au

Calculating the Dipole integrals                  ... done
Transforming integrals                            ... done
Calculating the Linear Momentum integrals         ... done
Transforming integrals                            ... done
Calculating the Angular Momentum integrals        ... done
Transforming integrals                            ... done

------------------------------------------------------------------------------------------
                                ABSORPTION SPECTRUM
------------------------------------------------------------------------------------------
  States           Energy   Wavelength   fosc          T2        TX         TY        TZ  
                   (cm-1)     (nm)                   (D**2)      (D)        (D)       (D) 
------------------------------------------------------------------------------------------
  0( 0)-> 1( 0) 5   11827.6    845.5   0.000323441   0.05807  -0.10930  -0.11399   0.18202
  0( 0)-> 2( 0) 5   14835.1    674.1   0.000029273   0.00419  -0.01377  -0.03244   0.05430
  0( 0)-> 3( 0) 5   15095.6    662.4   0.000060480   0.00851  -0.06847   0.00558  -0.06155
  0( 0)-> 4( 0) 5   15514.5    644.6   0.000368118   0.05039  -0.11128  -0.13051   0.14481
------------------------------------------------------------------------------------------



------------------------------------------------------------------------------
                             CD SPECTRUM
------------------------------------------------------------------------------
      States        Energy   Wavelength   R*T        RX        RY        RZ   
                    (cm-1)      (nm)   (1e40*sgs)   (au)      (au)      (au)  
------------------------------------------------------------------------------
  0( 0)-> 1( 0) 5   11827.6    845.5    -0.26635  -0.04849  -0.06172  -0.07566
  0( 0)-> 2( 0) 5   14835.1    674.1    -0.00646   0.05926  -0.07111  -0.02810
  0( 0)-> 3( 0) 5   15095.6    662.4    -0.17565  -0.04671  -0.05211   0.06263
  0( 0)-> 4( 0) 5   15514.5    644.6     0.55964   0.02650  -0.05854  -0.01156
------------------------------------------------------------------------------

------------------------------------------------------------------------------
                                 DIPOLE MOMENTS
------------------------------------------------------------------------------
  Root  Block           TX        TY        TZ           |T|
                      (Debye)   (Debye)   (Debye)      (Debye)
------------------------------------------------------------------------------
    0    0           -0.83011  -1.22988  -1.56515      2.15671

--------------
CASSCF TIMINGS
--------------

Total time                       ...     3944.6 sec
Sum of individual times          ...     3935.7 sec ( 99.8%)

Calculation of AO operators
   F(Core) operator              ...     1933.3 sec ( 49.0%)
   G(Act) operator               ...     1842.7 sec ( 46.7%)
   J(AO) operators               ...        0.0 sec (  0.0%)
Calculation of MO transformed quantities
   J(MO) operators               ...      150.7 sec (  3.8%)
   (pq|rs) integrals             ...        0.0 sec (  0.0%)
   AO->MO one electron integrals ...        1.2 sec (  0.0%)
Configuration interaction steps
   CI-setup phase                ...        0.0 sec (  0.0%)
   CI-solution phase             ...        0.5 sec (  0.0%)
   Generation of densities       ...        0.1 sec (  0.0%)
Orbital improvement steps
   Orbital gradient              ...        0.1 sec (  0.0%)
   O(1) converger                ...        7.1 sec (  0.2%)
Properties                       ...        0.0 sec (  0.0%)
   SOC integral calculation      ...        0.0 sec (  0.0%)
   SSC RMEs (incl. integrals)    ...        0.0 sec (  0.0%)
   SOC RMEs                      ...        0.0 sec (  0.0%)

Maximum memory used throughout the entire CASSCF-calculation: 446.3 MB

-------------------------   --------------------
FINAL SINGLE POINT ENERGY     -3200.155999872010
-------------------------   --------------------


                            ***************************************
                            *     ORCA property calculations      *
                            ***************************************

                                    ---------------------
                                    Active property flags
                                    ---------------------
   (+) Dipole Moment


------------------------------------------------------------------------------
                       ORCA ELECTRIC PROPERTIES CALCULATION
------------------------------------------------------------------------------

Dipole Moment Calculation                       ... on
Quadrupole Moment Calculation                   ... off
Polarizability Calculation                      ... off
GBWName                                         ... casscf.gbw
Electron density                                ... casscf.scfp
The origin for moment calculation is the CENTER OF MASS  = (16.645144, 14.550531 14.853091)

-------------
DIPOLE MOMENT
-------------
                                X             Y             Z
Electronic contribution:     27.45067       7.18994      25.07240
Nuclear contribution   :    -27.59037      -7.66396     -25.55561
                        -----------------------------------------
Total Dipole Moment    :     -0.13971      -0.47402      -0.48321
                        -----------------------------------------
Magnitude (a.u.)       :      0.69116
Magnitude (Debye)      :      1.75679



--------------------
Rotational spectrum 
--------------------
 
Rotational constants in cm-1:     0.000942     0.000782     0.000720 
Rotational constants in MHz :    28.235713    23.457344    21.580422 

 Dipole components along the rotational axes: 
x,y,z [a.u.] :    -0.583502    -0.370162    -0.014441 
x,y,z [Debye]:    -1.483145    -0.940876    -0.036705 

 

Timings for individual modules:

Sum of individual times         ...     3964.053 sec (=  66.068 min)
GTO integral calculation        ...       11.911 sec (=   0.199 min)   0.3 %
SCF iterations                  ...        4.948 sec (=   0.082 min)   0.1 %
CASSCF iterations               ...     3947.194 sec (=  65.787 min)  99.6 %
                             ****ORCA TERMINATED NORMALLY****
TOTAL RUN TIME: 0 days 1 hours 6 minutes 4 seconds 676 msec
