
                                 *****************
                                 * O   R   C   A *
                                 *****************

                                            #,                                       
                                            ###                                      
                                            ####                                     
                                            #####                                    
                                            ######                                   
                                           ########,                                 
                                     ,,################,,,,,                         
                               ,,#################################,,                 
                          ,,##########################################,,             
                       ,#########################################, ''#####,          
                    ,#############################################,,   '####,        
                  ,##################################################,,,,####,       
                ,###########''''           ''''###############################       
              ,#####''   ,,,,##########,,,,          '''####'''          '####       
            ,##' ,,,,###########################,,,                        '##       
           ' ,,###''''                  '''############,,,                           
         ,,##''                                '''############,,,,        ,,,,,,###''
      ,#''                                            '''#######################'''  
     '                                                          ''''####''''         
             ,#######,   #######,   ,#######,      ##                                
            ,#'     '#,  ##    ##  ,#'     '#,    #''#        ######   ,####,        
            ##       ##  ##   ,#'  ##            #'  '#       #        #'  '#        
            ##       ##  #######   ##           ,######,      #####,   #    #        
            '#,     ,#'  ##    ##  '#,     ,#' ,#      #,         ##   #,  ,#        
             '#######'   ##     ##  '#######'  #'      '#     #####' # '####'        



                  #######################################################
                  #                        -***-                        #
                  #          Department of theory and spectroscopy      #
                  #    Directorship and core code : Frank Neese         #
                  #        Max Planck Institute fuer Kohlenforschung    #
                  #                Kaiser Wilhelm Platz 1               #
                  #                 D-45470 Muelheim/Ruhr               #
                  #                      Germany                        #
                  #                                                     #
                  #                  All rights reserved                #
                  #                        -***-                        #
                  #######################################################


                         Program Version 5.0.3 -  RELEASE  -


 With contributions from (in alphabetic order):
   Daniel Aravena         : Magnetic Suceptibility
   Michael Atanasov       : Ab Initio Ligand Field Theory (pilot matlab implementation)
   Alexander A. Auer      : GIAO ZORA, VPT2 properties, NMR spectrum
   Ute Becker             : Parallelization
   Giovanni Bistoni       : ED, misc. LED, open-shell LED, HFLD
   Martin Brehm           : Molecular dynamics
   Dmytro Bykov           : SCF Hessian
   Vijay G. Chilkuri      : MRCI spin determinant printing, contributions to CSF-ICE
   Dipayan Datta          : RHF DLPNO-CCSD density
   Achintya Kumar Dutta   : EOM-CC, STEOM-CC
   Dmitry Ganyushin       : Spin-Orbit,Spin-Spin,Magnetic field MRCI
   Miquel Garcia          : C-PCM and meta-GGA Hessian, CC/C-PCM, Gaussian charge scheme
   Yang Guo               : DLPNO-NEVPT2, F12-NEVPT2, CIM, IAO-localization
   Andreas Hansen         : Spin unrestricted coupled pair/coupled cluster methods
   Benjamin Helmich-Paris : MC-RPA, TRAH-SCF, COSX integrals
   Lee Huntington         : MR-EOM, pCC
   Robert Izsak           : Overlap fitted RIJCOSX, COSX-SCS-MP3, EOM
   Marcus Kettner         : VPT2
   Christian Kollmar      : KDIIS, OOCD, Brueckner-CCSD(T), CCSD density, CASPT2, CASPT2-K
   Simone Kossmann        : Meta GGA functionals, TD-DFT gradient, OOMP2, MP2 Hessian
   Martin Krupicka        : Initial AUTO-CI
   Lucas Lang             : DCDCAS
   Marvin Lechner         : AUTO-CI (C++ implementation), FIC-MRCC
   Dagmar Lenk            : GEPOL surface, SMD
   Dimitrios Liakos       : Extrapolation schemes; Compound Job, initial MDCI parallelization
   Dimitrios Manganas     : Further ROCIS development; embedding schemes
   Dimitrios Pantazis     : SARC Basis sets
   Anastasios Papadopoulos: AUTO-CI, single reference methods and gradients
   Taras Petrenko         : DFT Hessian,TD-DFT gradient, ASA, ECA, R-Raman, ABS, FL, XAS/XES, NRVS
   Peter Pinski           : DLPNO-MP2, DLPNO-MP2 Gradient
   Christoph Reimann      : Effective Core Potentials
   Marius Retegan         : Local ZFS, SOC
   Christoph Riplinger    : Optimizer, TS searches, QM/MM, DLPNO-CCSD(T), (RO)-DLPNO pert. Triples
   Tobias Risthaus        : Range-separated hybrids, TD-DFT gradient, RPA, STAB
   Michael Roemelt        : Original ROCIS implementation
   Masaaki Saitow         : Open-shell DLPNO-CCSD energy and density
   Barbara Sandhoefer     : DKH picture change effects
   Avijit Sen             : IP-ROCIS
   Kantharuban Sivalingam : CASSCF convergence, NEVPT2, FIC-MRCI
   Bernardo de Souza      : ESD, SOC TD-DFT
   Georgi Stoychev        : AutoAux, RI-MP2 NMR, DLPNO-MP2 response
   Willem Van den Heuvel  : Paramagnetic NMR
   Boris Wezisla          : Elementary symmetry handling
   Frank Wennmohs         : Technical directorship


 We gratefully acknowledge several colleagues who have allowed us to
 interface, adapt or use parts of their codes:
   Stefan Grimme, W. Hujo, H. Kruse, P. Pracht,  : VdW corrections, initial TS optimization,
                  C. Bannwarth, S. Ehlert          DFT functionals, gCP, sTDA/sTD-DF
   Ed Valeev, F. Pavosevic, A. Kumar             : LibInt (2-el integral package), F12 methods
   Garnet Chan, S. Sharma, J. Yang, R. Olivares  : DMRG
   Ulf Ekstrom                                   : XCFun DFT Library
   Mihaly Kallay                                 : mrcc  (arbitrary order and MRCC methods)
   Jiri Pittner, Ondrej Demel                    : Mk-CCSD
   Frank Weinhold                                : gennbo (NPA and NBO analysis)
   Christopher J. Cramer and Donald G. Truhlar   : smd solvation model
   Lars Goerigk                                  : TD-DFT with DH, B97 family of functionals
   V. Asgeirsson, H. Jonsson                     : NEB implementation
   FAccTs GmbH                                   : IRC, NEB, NEB-TS, DLPNO-Multilevel, CI-OPT
                                                   MM, QMMM, 2- and 3-layer-ONIOM, Crystal-QMMM,
                                                   LR-CPCM, SF, NACMEs, symmetry and pop. for TD-DFT,
                                                   nearIR, NL-DFT gradient (VV10), updates on ESD,
                                                   ML-optimized integration grids
   S Lehtola, MJT Oliveira, MAL Marques          : LibXC Library
   Liviu Ungur et al                             : ANISO software


 Your calculation uses the libint2 library for the computation of 2-el integrals
 For citations please refer to: http://libint.valeyev.net

 Your ORCA version has been built with support for libXC version: 5.1.0
 For citations please refer to: https://tddft.org/programs/libxc/

 This ORCA versions uses:
   CBLAS   interface :  Fast vector & matrix operations
   LAPACKE interface :  Fast linear algebra routines
   SCALAPACK package :  Parallel linear algebra routines
   Shared memory     :  Shared parallel matrices
   BLAS/LAPACK       :  OpenBLAS 0.3.15  USE64BITINT DYNAMIC_ARCH NO_AFFINITY Sandybridge SINGLE_THREADED
        Core in use  :  Sandybridge
   Copyright (c) 2011-2014, The OpenBLAS Project




***************************************
The coordinates will be read from file: pbe.xyz
***************************************


================================================================================

cite the ECPs for Au [Def2-ECP] as follows:
Ce-Yb(ecp-28): M. Dolg, H. Stoll, H.Preuss, J. Chem. Phys., 1989, 90, 1730-1734.
Y-Cd(ecp-28), Hf-Hg(ecp-46): D. Andrae,U. Haeussermann, M. Dolg, H. Stoll, H. Preuss, Theor. Chim. Acta, 1990, 77, 123-141.
In-Sb(ecp-28), Tl-Bi(ecp-46): B. Metz, H. Stoll, M. Dolg, J. Chem. Phys., 2000, 113, 2563-2569.
Te-Xe(ecp-28), Po-Rn(ecp-46): K. A. Peterson, D. Figgen, E. Goll, H. Stoll, M. Dolg, J. Chem. Phys., 2003, 119, 11113-11123.
Rb(ecp-28), Cs(ecp-46): T. Leininger, A. Nicklass, W. Kuechle, H. Stoll, M. Dolg, A. Bergner, Chem. Phys. Lett., 1996, 255, 274-280.
Sr(ecp-28), Ba(ecp-46): M. Kaupp, P. V. Schleyer, H. Stoll and H. Preuss, J. Chem. Phys., 1991, 94, 1360-1366.
La(ecp-46): M. Dolg, H. Stoll, A. Savin, H. Preuss, Theor. Chim. Acta, 1989, 75, 173-194.
Lu(ecp-28): X. Cao, M. Dolg, J. Chem. Phys., 2001, 115, 7348-7355.

ECP parameters for Au [Def2-ECP] have been obtained from:
TURBOMOLE (7.0.2)

----- Orbital basis set information -----
Your calculation utilizes the basis: def2-TZVP
   F. Weigend and R. Ahlrichs, Phys. Chem. Chem. Phys. 7, 3297 (2005).

----- AuxJ basis set information -----
Your calculation utilizes the auxiliary basis: def2/J
   F. Weigend, Phys. Chem. Chem. Phys. 8, 1057 (2006).

----- AuxC basis set information -----
Your calculation utilizes the auxiliary basis: def2-TZVP/C
  H-La, Hf-Rn : A. Hellweg, C. Hattig, S. Hofener and W. Klopper, Theor. Chem. Acc. 117, 587 (2007).
        Ce-Lu : J. Chmela and M. E. Harding, Mol. Phys. (2018).

================================================================================
                                        WARNINGS
                       Please study these warnings very carefully!
================================================================================


WARNING: your system is open-shell and RHF/RKS was chosen
  ===> : WILL SWITCH to UHF/UKS


WARNING: No MP2 level density has been requested!
         To caclulate MP2 level properties use
         %mp2 Density relaxed end
         or
         %mp2 Density unrelaxed end
         Otherwise for double-hybrid DFT only the energy is correct!

WARNING: The frozen-core approximation is turned on by default for 
         the MP2 part of double-hybrid DFT.

INFO   : the flag for use of the SHARK integral package has been found!



***************************************
The coordinates will be read from file: pbe.xyz
***************************************


================================================================================

cite the ECPs for Au [Def2-ECP] as follows:
Ce-Yb(ecp-28): M. Dolg, H. Stoll, H.Preuss, J. Chem. Phys., 1989, 90, 1730-1734.
Y-Cd(ecp-28), Hf-Hg(ecp-46): D. Andrae,U. Haeussermann, M. Dolg, H. Stoll, H. Preuss, Theor. Chim. Acta, 1990, 77, 123-141.
In-Sb(ecp-28), Tl-Bi(ecp-46): B. Metz, H. Stoll, M. Dolg, J. Chem. Phys., 2000, 113, 2563-2569.
Te-Xe(ecp-28), Po-Rn(ecp-46): K. A. Peterson, D. Figgen, E. Goll, H. Stoll, M. Dolg, J. Chem. Phys., 2003, 119, 11113-11123.
Rb(ecp-28), Cs(ecp-46): T. Leininger, A. Nicklass, W. Kuechle, H. Stoll, M. Dolg, A. Bergner, Chem. Phys. Lett., 1996, 255, 274-280.
Sr(ecp-28), Ba(ecp-46): M. Kaupp, P. V. Schleyer, H. Stoll and H. Preuss, J. Chem. Phys., 1991, 94, 1360-1366.
La(ecp-46): M. Dolg, H. Stoll, A. Savin, H. Preuss, Theor. Chim. Acta, 1989, 75, 173-194.
Lu(ecp-28): X. Cao, M. Dolg, J. Chem. Phys., 2001, 115, 7348-7355.

ECP parameters for Au [Def2-ECP] have been obtained from:
TURBOMOLE (7.0.2)

----- Orbital basis set information -----
Your calculation utilizes the basis: def2-TZVP
   F. Weigend and R. Ahlrichs, Phys. Chem. Chem. Phys. 7, 3297 (2005).

----- AuxJ basis set information -----
Your calculation utilizes the auxiliary basis: def2/J
   F. Weigend, Phys. Chem. Chem. Phys. 8, 1057 (2006).

----- AuxC basis set information -----
Your calculation utilizes the auxiliary basis: def2-TZVP/C
  H-La, Hf-Rn : A. Hellweg, C. Hattig, S. Hofener and W. Klopper, Theor. Chem. Acc. 117, 587 (2007).
        Ce-Lu : J. Chmela and M. E. Harding, Mol. Phys. (2018).

================================================================================
                                        WARNINGS
                       Please study these warnings very carefully!
================================================================================


WARNING: No MP2 level density has been requested!
         To caclulate MP2 level properties use
         %mp2 Density relaxed end
         or
         %mp2 Density unrelaxed end
         Otherwise for double-hybrid DFT only the energy is correct!

WARNING: The frozen-core approximation is turned on by default for 
         the MP2 part of double-hybrid DFT.

INFO   : the flag for use of the SHARK integral package has been found!

================================================================================
                                       INPUT FILE
================================================================================
NAME = b2plyp.inp
|  1> !RI-B2PLYP def2-TZVP def2-TZVP/C
|  2> !RIJCOSX
|  3> %pal nprocs 16 end 
|  4> 
|  5> *xyzfile 0 5 pbe.xyz
|  6> 
|  7> $new_job
|  8> 
|  9> !RI-B2PLYP def2-TZVP def2-TZVP/C
| 10> !RIJCOSX
| 11> %pal nprocs 16 end 
| 12> 
| 13> *xyzfile 0 3 pbe.xyz
| 14> 
| 15> 
| 16> 
| 17> 
| 18> 
| 19>                          ****END OF INPUT****
================================================================================


                 $$$$$$$$$$$$$$$$$$$$$$$$$$$$$$$$$$$$$$$$$$$$$$ 
                 $ THERE ARE  2 JOBS TO BE PROCESSED THIS RUN $
                 $$$$$$$$$$$$$$$$$$$$$$$$$$$$$$$$$$$$$$$$$$$$$$ 




                 $$$$$$$$$$$$$$$$  JOB NUMBER  1 $$$$$$$$$$$$$$


                       ****************************
                       * Single Point Calculation *
                       ****************************

---------------------------------
CARTESIAN COORDINATES (ANGSTROEM)
---------------------------------
  Au     5.351958    7.517900    6.880027
  Au     8.837850   10.372008    5.739613
  Au     6.073943   10.276160    6.559835
  Au     7.158828    8.205903    4.903312
  Au     9.789491    7.674940    5.551541
  Au     7.698052    5.943720    6.458251
  Au     6.002180    9.341175    9.275365
  Au     9.690030    6.511274    8.461579
  Au     8.666124    8.714644   10.054581
  Au     8.115421   10.927882    8.434487
  Au     7.119025    6.409889    9.235051
  Au     4.501695    7.047858    9.447988
  Au    10.438875    9.498533    7.964135
  Au    11.945648    7.330675    7.214945
  Fe     7.919797    8.417364    7.482168

----------------------------
CARTESIAN COORDINATES (A.U.)
----------------------------
  NO LB      ZA    FRAG     MASS         X           Y           Z
   0 Au   19.0000*   0   196.966   10.113736   14.206772   13.001366
   1 Au   19.0000*   0   196.966   16.701117   19.600254   10.846297
   2 Au   19.0000*   0   196.966   11.478089   19.419128   12.396292
   3 Au   19.0000*   0   196.966   13.528225   15.506909    9.265916
   4 Au   19.0000*   0   196.966   18.499457   14.503534   10.490892
   5 Au   19.0000*   0   196.966   14.547209   11.232003   12.204325
   6 Au   19.0000*   0   196.966   11.342476   17.652262   17.527899
   7 Au   19.0000*   0   196.966   18.311503   12.304525   15.990067
   8 Au   19.0000*   0   196.966   16.376601   16.468290   19.000404
   9 Au   19.0000*   0   196.966   15.335923   20.650703   15.938870
  10 Au   19.0000*   0   196.966   13.453007   12.112935   17.451717
  11 Au   19.0000*   0   196.966    8.506972   13.318522   17.854110
  12 Au   19.0000*   0   196.966   19.726616   17.949627   15.050034
  13 Au   19.0000*   0   196.966   22.574003   13.852968   13.634270
  14 Fe   26.0000    0    55.850   14.966248   15.906514   14.139249
* core charge reduced due to ECP

--------------------------------
INTERNAL COORDINATES (ANGSTROEM)
--------------------------------
 Au     0   0   0     0.000000000000     0.00000000     0.00000000
 Au     1   0   0     4.647355937526     0.00000000     0.00000000
 Au     1   2   0     2.869107990698    36.24027284     0.00000000
 Au     1   2   3     2.765054980319    35.07613453   121.32875271
 Au     4   1   2     2.760888938681   114.01286142    66.90101468
 Au     4   1   2     2.797511129760    61.79626852   101.57933320
 Au     3   1   2     2.872881406378    64.87141486   258.35233420
 Au     6   4   1     2.881565869517   111.12477258   257.77587901
 Au     7   3   1     2.845402666253   107.88614953    98.25915391
 Au     7   3   1     2.773175539909    60.53726973   135.97385583
 Au     8   6   4     2.686746439096    62.04403525   102.26501147
 Au    11   8   6     2.702362080269   160.15032935   295.11718586
 Au    10   7   3     2.768159432962   113.30918109   256.91001092
 Au     8   6   4     2.704315961409   108.40799527   300.88194806
 Fe     6   4   1     2.686353647924    58.87920669   288.04436855

---------------------------
INTERNAL COORDINATES (A.U.)
---------------------------
 Au     0   0   0     0.000000000000     0.00000000     0.00000000
 Au     1   0   0     8.782229968777     0.00000000     0.00000000
 Au     1   2   0     5.421828351064    36.24027284     0.00000000
 Au     1   2   3     5.225196658037    35.07613453   121.32875271
 Au     4   1   2     5.217323980279   114.01286142    66.90101468
 Au     4   1   2     5.286529891844    61.79626852   101.57933320
 Au     3   1   2     5.428959073289    64.87141486   258.35233420
 Au     6   4   1     5.445370330242   111.12477258   257.77587901
 Au     7   3   1     5.377031779947   107.88614953    98.25915391
 Au     7   3   1     5.240542291717    60.53726973   135.97385583
 Au     8   6   4     5.077214961179    62.04403525   102.26501147
 Au    11   8   6     5.106724246402   160.15032935   295.11718586
 Au    10   7   3     5.231063223329   113.30918109   256.91001092
 Au     8   6   4     5.110416546656   108.40799527   300.88194806
 Fe     6   4   1     5.076472693436    58.87920669   288.04436855

---------------------
BASIS SET INFORMATION
---------------------
There are 2 groups of distinct atoms

 Group   1 Type Au  : 8s7p6d1f contracted to 6s4p3d1f pattern {311111/4111/411/1}
 Group   2 Type Fe  : 17s11p7d1f contracted to 6s4p4d1f pattern {842111/6311/4111/1}

Atom   0Au   basis set group =>   1
Atom   1Au   basis set group =>   1
Atom   2Au   basis set group =>   1
Atom   3Au   basis set group =>   1
Atom   4Au   basis set group =>   1
Atom   5Au   basis set group =>   1
Atom   6Au   basis set group =>   1
Atom   7Au   basis set group =>   1
Atom   8Au   basis set group =>   1
Atom   9Au   basis set group =>   1
Atom  10Au   basis set group =>   1
Atom  11Au   basis set group =>   1
Atom  12Au   basis set group =>   1
Atom  13Au   basis set group =>   1
Atom  14Fe   basis set group =>   2
---------------------------------
AUXILIARY/J BASIS SET INFORMATION
---------------------------------
There are 2 groups of distinct atoms

 Group   1 Type Au  : 11s5p5d3f3g contracted to 8s5p5d2f3g pattern {41111111/11111/11111/21/111}
 Group   2 Type Fe  : 19s5p5d3f3g contracted to 8s5p5d2f3g pattern {121111111/11111/11111/21/111}

Atom   0Au   basis set group =>   1
Atom   1Au   basis set group =>   1
Atom   2Au   basis set group =>   1
Atom   3Au   basis set group =>   1
Atom   4Au   basis set group =>   1
Atom   5Au   basis set group =>   1
Atom   6Au   basis set group =>   1
Atom   7Au   basis set group =>   1
Atom   8Au   basis set group =>   1
Atom   9Au   basis set group =>   1
Atom  10Au   basis set group =>   1
Atom  11Au   basis set group =>   1
Atom  12Au   basis set group =>   1
Atom  13Au   basis set group =>   1
Atom  14Fe   basis set group =>   2
---------------------------------
AUXILIARY/C BASIS SET INFORMATION
---------------------------------
There are 2 groups of distinct atoms

 Group   1 Type Au  : 8s8p7d5f3g2h contracted to 8s8p7d5f3g2h pattern {11111111/11111111/1111111/11111/111/11}
 Group   2 Type Fe  : 11s9p8d6f5g2h contracted to 9s8p8d6f5g2h pattern {311111111/21111111/11111111/111111/11111/11}

Atom   0Au   basis set group =>   1
Atom   1Au   basis set group =>   1
Atom   2Au   basis set group =>   1
Atom   3Au   basis set group =>   1
Atom   4Au   basis set group =>   1
Atom   5Au   basis set group =>   1
Atom   6Au   basis set group =>   1
Atom   7Au   basis set group =>   1
Atom   8Au   basis set group =>   1
Atom   9Au   basis set group =>   1
Atom  10Au   basis set group =>   1
Atom  11Au   basis set group =>   1
Atom  12Au   basis set group =>   1
Atom  13Au   basis set group =>   1
Atom  14Fe   basis set group =>   2
-------------------------
ECP PARAMETER INFORMATION
-------------------------

 Group 1, Type Au ECP Def2-ECP (replacing 60 core electrons, lmax=3)

Atom   0Au   ECP group =>   1
Atom   1Au   ECP group =>   1
Atom   2Au   ECP group =>   1
Atom   3Au   ECP group =>   1
Atom   4Au   ECP group =>   1
Atom   5Au   ECP group =>   1
Atom   6Au   ECP group =>   1
Atom   7Au   ECP group =>   1
Atom   8Au   ECP group =>   1
Atom   9Au   ECP group =>   1
Atom  10Au   ECP group =>   1
Atom  11Au   ECP group =>   1
Atom  12Au   ECP group =>   1
Atom  13Au   ECP group =>   1



           ************************************************************
           *        Program running with 16 parallel MPI-processes    *
           *              working on a common directory               *
           ************************************************************
------------------------------------------------------------------------------
                           ORCA GTO INTEGRAL CALCULATION
                           -- RI-GTO INTEGRALS CHOSEN --
------------------------------------------------------------------------------
------------------------------------------------------------------------------
                   ___                                                        
                  /   \      - P O W E R E D   B Y -                         
                 /     \                                                     
                 |  |  |   _    _      __       _____    __    __             
                 |  |  |  | |  | |    /  \     |  _  \  |  |  /  |          
                  \  \/   | |  | |   /    \    | | | |  |  | /  /          
                 / \  \   | |__| |  /  /\  \   | |_| |  |  |/  /          
                |  |  |   |  __  | /  /__\  \  |    /   |      \           
                |  |  |   | |  | | |   __   |  |    \   |  |\   \          
                \     /   | |  | | |  |  |  |  | |\  \  |  | \   \       
                 \___/    |_|  |_| |__|  |__|  |_| \__\ |__|  \__/        
                                                                              
                      - O R C A' S   B I G   F R I E N D -                    
                                      &                                       
                       - I N T E G R A L  F E E D E R -                       
                                                                              
 v1 FN, 2020, v2 2021                                                         
------------------------------------------------------------------------------


Reading SHARK input file b2plyp.SHARKINP.tmp ... ok
----------------------
SHARK INTEGRAL PACKAGE
----------------------

Number of atoms                             ...     15
Number of basis functions                   ...    605
Number of shells                            ...    211
Maximum angular momentum                    ...      3
Integral batch strategy                     ... SHARK/LIBINT Hybrid
RI-J (if used) integral strategy            ... SPLIT-RIJ (Revised 2003 algorithm where possible)
Printlevel                                  ...      1
Contraction scheme used                     ... SEGMENTED contraction
Coulomb Range Separation                    ... NOT USED
Exchange Range Separation                   ... NOT USED
Finite Nucleus Model                        ... NOT USED
Auxiliary Coulomb fitting basis             ... AVAILABLE
   # of basis functions in Aux-J            ...   1335
   # of shells in Aux-J                     ...    345
   Maximum angular momentum in Aux-J        ...      4
Auxiliary J/K fitting basis                 ... NOT available
Auxiliary Correlation fitting basis         ... AVAILABLE
   # of basis functions in Aux-C            ...   2296
   # of shells in Aux-C                     ...    500
   Maximum angular momentum in Aux-C        ...      5
Auxiliary 'external' fitting basis          ... NOT available
Integral threshold                          ...     1.000000e-10
Primitive cut-off                           ...     1.000000e-11
Primitive pair pre-selection threshold      ...     1.000000e-11

Calculating pre-screening integrals         ... done (  0.1 sec) Dimension = 211
Organizing shell pair data                  ... done (  0.7 sec)
Shell pair information
Total number of shell pairs                 ...     22366
Shell pairs after pre-screening             ...     18000
Total number of primitive shell pairs       ...     59609
Primitive shell pairs kept                  ...     34862
          la=0 lb=0:   2826 shell pairs
          la=1 lb=0:   4104 shell pairs
          la=1 lb=1:   1539 shell pairs
          la=2 lb=0:   3600 shell pairs
          la=2 lb=1:   2488 shell pairs
          la=2 lb=2:   1030 shell pairs
          la=3 lb=0:    946 shell pairs
          la=3 lb=1:    732 shell pairs
          la=3 lb=2:    634 shell pairs
          la=3 lb=3:    101 shell pairs

Calculating one electron integrals          ... done (  0.0 sec)
Calculating ECP integrals                   ... done ( 11.9 sec)
Calculating RI/J V-Matrix + Cholesky decomp.... done (  0.1 sec)
Calculating RI/C V-Matrix + Cholesky decomp.... done (  0.3 sec)
Calculating Nuclear repulsion               ... done (  0.0 sec) ENN=   5765.054810391361 Eh

SHARK setup successfully completed in  13.7 seconds

Maximum memory used throughout the entire GTOINT-calculation: 38.1 MB


           ************************************************************
           *        Program running with 16 parallel MPI-processes    *
           *              working on a common directory               *
           ************************************************************
-------------------------------------------------------------------------------
                                 ORCA SCF
-------------------------------------------------------------------------------

------------
SCF SETTINGS
------------
Hamiltonian:
 Density Functional     Method          .... DFT(GTOs)
 Exchange Functional    Exchange        .... B88
   X-Alpha parameter    XAlpha          ....  0.666667
   Becke's b parameter  XBeta           ....  0.004200
 Correlation Functional Correlation     .... LYP
 LDA part of GGA corr.  LDAOpt          .... VWN-3
 Gradients option       PostSCFGGA      .... off
 Hybrid DFT is turned on
   Fraction HF Exchange ScalHFX         ....  0.530000
   Scaling of DF-GGA-X  ScalDFX         ....  0.470000
   Scaling of DF-GGA-C  ScalDFC         ....  0.730000
   Scaling of DF-LDA-C  ScalLDAC        ....  0.730000
   Perturbative correction              ....  0.270000
   Density functional embedding theory  .... OFF
   NL short-range parameter             ....  7.800000
 RI-approximation to the Coulomb term is turned on
   Number of AuxJ basis functions       .... 1335
   RIJ-COSX (HFX calculated with COS-X)).... on


General Settings:
 Integral files         IntName         .... b2plyp
 Hartree-Fock type      HFTyp           .... UHF
 Total Charge           Charge          ....    0
 Multiplicity           Mult            ....    5
 Number of Electrons    NEL             ....  292
 Basis Dimension        Dim             ....  605
 Nuclear Repulsion      ENuc            ....   5765.0548103914 Eh

Convergence Acceleration:
 DIIS                   CNVDIIS         .... on
   Start iteration      DIISMaxIt       ....    12
   Startup error        DIISStart       ....  0.200000
   # of expansion vecs  DIISMaxEq       ....     5
   Bias factor          DIISBfac        ....   1.050
   Max. coefficient     DIISMaxC        ....  10.000
 Trust-Rad. Augm. Hess. CNVTRAH         .... auto
   Auto Start mean grad. ratio tolernc. ....  1.125000
   Auto Start start iteration           ....    20
   Auto Start num. interpolation iter.  ....    10
   Max. Number of Micro iterations      ....    16
   Max. Number of Macro iterations      .... Maxiter - #DIIS iter
   Number of Davidson start vectors     ....     2
   Converg. threshold I  (grad. norm)   ....   5.000e-05
   Converg. threshold II (energy diff.) ....   1.000e-06
   Grad. Scal. Fac. for Micro threshold ....   0.100
   Minimum threshold for Micro iter.    ....   0.010
   NR start threshold (gradient norm)   ....   0.001
   Initial trust radius                 ....   0.400
   Minimum AH scaling param. (alpha)    ....   1.000
   Maximum AH scaling param. (alpha)    .... 1000.000
   Orbital update algorithm             .... Taylor
   White noise on init. David. guess    .... on
   Maximum white noise                  ....   0.010
   Quad. conv. algorithm                .... NR
 SOSCF                  CNVSOSCF        .... off
 Level Shifting         CNVShift        .... on
   Level shift para.    LevelShift      ....    0.2500
   Turn off err/grad.   ShiftErr        ....    0.0010
 Zerner damping         CNVZerner       .... off
 Static damping         CNVDamp         .... on
   Fraction old density DampFac         ....    0.7000
   Max. Damping (<1)    DampMax         ....    0.9800
   Min. Damping (>=0)   DampMin         ....    0.0000
   Turn off err/grad.   DampErr         ....    0.1000
 Fernandez-Rico         CNVRico         .... off

SCF Procedure:
 Maximum # iterations   MaxIter         ....   125
 SCF integral mode      SCFMode         .... Direct
   Integral package                     .... SHARK and LIBINT hybrid scheme
 Reset frequency        DirectResetFreq ....    20
 Integral Threshold     Thresh          ....  1.000e-10 Eh
 Primitive CutOff       TCut            ....  1.000e-11 Eh

Convergence Tolerance:
 Convergence Check Mode ConvCheckMode   .... Total+1el-Energy
 Convergence forced     ConvForced      .... 0
 Energy Change          TolE            ....  1.000e-06 Eh
 1-El. energy change                    ....  1.000e-03 Eh
 DIIS Error             TolErr          ....  1.000e-06


Diagonalization of the overlap matrix:
Smallest eigenvalue                        ... 2.666e-04
Time for diagonalization                   ...    0.106 sec
Threshold for overlap eigenvalues          ... 1.000e-08
Number of eigenvalues below threshold      ... 0
Time for construction of square roots      ...    0.072 sec
Total time needed                          ...    0.181 sec

Time for model grid setup =    0.459 sec

------------------------------
INITIAL GUESS: MODEL POTENTIAL
------------------------------
Loading Hartree-Fock densities                     ... done
  calling /home/ehlert/src/miniconda3/envs/orca500/Programs/ORCA501/orca b2plyp_atom79.inp > b2plyp_atom79.out in order to generate an atomic fitting density for atom 0 (Au with ECP) on-the-fly... 
    atom 0 (Au), assumed electronic state with S=2: 1s2 2s2 2p6 3s2 3p6 4s2 3d10 4p6 5s2 4d10 5p6 6s1 4f14 5d10           ... done
Calculating cut-offs                               ... done
Initializing the effective Hamiltonian             ... done
Setting up the integral package (SHARK)            ... done
Starting the Coulomb interaction                   ... done (   0.3 sec)
Reading the grid                                   ... done
Mapping shells                                     ... done
Starting the XC term evaluation                    ... done (   0.2 sec)
  promolecular density results
     # of electrons  =   1132.014437323
     EX              =  -5197.676553525
     EC              =    -23.020425183
     EX+EC           =  -5220.696978707
Transforming the Hamiltonian                       ... done (   0.1 sec)
Diagonalizing the Hamiltonian                      ... done (   0.1 sec)
Back transforming the eigenvectors                 ... done (   0.0 sec)
Now organizing SCF variables                       ... done
                      ------------------
                      INITIAL GUESS DONE (   2.0 sec)
                      ------------------
-------------------
DFT GRID GENERATION
-------------------

General Integration Accuracy     IntAcc      ... 4.388
Radial Grid Type                 RadialGrid  ... OptM3 with GC (2021)
Angular Grid (max. ang.)         AngularGrid ... 4 (Lebedev-302)
Angular grid pruning method      GridPruning ... 4 (adaptive)
Weight generation scheme         WeightScheme... Becke
Basis function cutoff            BFCut       ... 1.0000e-10
Integration weight cutoff        WCut        ... 1.0000e-14
Angular grids for H and He will be reduced by one unit
Partially contracted basis set               ... off
Rotationally invariant grid construction     ... off

Total number of grid points                  ...   165653
Total number of batches                      ...     2596
Average number of points per batch           ...       63
Average number of grid points per atom       ...    11044
Time for grid setup =    1.597 sec

--------------------
COSX GRID GENERATION
--------------------

GRIDX 1
-------
General Integration Accuracy     IntAcc      ... 3.816
Radial Grid Type                 RadialGrid  ... OptM3 with GC (2021)
Angular Grid (max. ang.)         AngularGrid ... 1 (Lebedev-50)
Angular grid pruning method      GridPruning ... 4 (adaptive)
Weight generation scheme         WeightScheme... Becke
Basis function cutoff            BFCut       ... 1.0000e-10
Integration weight cutoff        WCut        ... 1.0000e-14
Angular grids for H and He will be reduced by one unit
Partially contracted basis set               ... on
Rotationally invariant grid construction     ... off

Total number of grid points                  ...    17392
Total number of batches                      ...      280
Average number of points per batch           ...       62
Average number of grid points per atom       ...     1159
UseSFitting                                  ... on

GRIDX 2
-------
General Integration Accuracy     IntAcc      ... 4.020
Radial Grid Type                 RadialGrid  ... OptM3 with GC (2021)
Angular Grid (max. ang.)         AngularGrid ... 2 (Lebedev-110)
Angular grid pruning method      GridPruning ... 4 (adaptive)
Weight generation scheme         WeightScheme... Becke
Basis function cutoff            BFCut       ... 1.0000e-10
Integration weight cutoff        WCut        ... 1.0000e-14
Angular grids for H and He will be reduced by one unit
Partially contracted basis set               ... on
Rotationally invariant grid construction     ... off

Total number of grid points                  ...    52547
Total number of batches                      ...      829
Average number of points per batch           ...       63
Average number of grid points per atom       ...     3503
UseSFitting                                  ... on

GRIDX 3
-------
General Integration Accuracy     IntAcc      ... 4.338
Radial Grid Type                 RadialGrid  ... OptM3 with GC (2021)
Angular Grid (max. ang.)         AngularGrid ... 3 (Lebedev-194)
Angular grid pruning method      GridPruning ... 4 (adaptive)
Weight generation scheme         WeightScheme... Becke
Basis function cutoff            BFCut       ... 1.0000e-10
Integration weight cutoff        WCut        ... 1.0000e-14
Angular grids for H and He will be reduced by one unit
Partially contracted basis set               ... on
Rotationally invariant grid construction     ... off

Total number of grid points                  ...    95720
Total number of batches                      ...     1503
Average number of points per batch           ...       63
Average number of grid points per atom       ...     6381
UseSFitting                                  ... on

Time for X-Grid setup             =    1.307 sec

--------------
SCF ITERATIONS
--------------
ITER       Energy         Delta-E        Max-DP      RMS-DP      [F,P]     Damp
               ***  Starting incremental Fock matrix formation  ***
  0  -3155.8473620584   0.000000000000 0.26200620  0.00203830  0.5290707 0.7000
  1  -3157.4936456669  -1.646283608528 0.10092521  0.00099146  0.1939667 0.7000
                               ***Turning on DIIS***
  2  -3157.9629870683  -0.469341401463 0.12312653  0.00075407  0.1356369 0.7000
  3  -3158.3362023933  -0.373215324960 0.16625400  0.00169753  0.0953464 0.0000
  4  -3159.1621969314  -0.825994538104 0.02546743  0.00014444  0.1410159 0.7000
  5  -3159.2282468987  -0.066049967289 0.05644063  0.00047472  0.0965136 0.0000
  6  -3159.3106691730  -0.082422274306 0.02137941  0.00022679  0.0736800 0.0000
  7  -3159.3465736030  -0.035904430040 0.03782136  0.00022855  0.0406663 0.0000
  8  -3159.3726135296  -0.026039926587 0.02249626  0.00021953  0.0248668 0.0000
  9  -3159.3950249148  -0.022411385150 0.02250515  0.00020632  0.0211104 0.0000
 10  -3159.4126701059  -0.017645191123 0.02369146  0.00023638  0.0150350 0.0000
 11  -3159.4248992536  -0.012229147693 0.01248322  0.00009547  0.0068790 0.0000
 12  -3159.4276528766  -0.002753622975 0.01132716  0.00007750  0.0033921 0.0000
 13  -3159.4289928058  -0.001339929252 0.00734505  0.00005131  0.0033710 0.0000
 14  -3159.4296372224  -0.000644416606 0.00501497  0.00004173  0.0021984 0.0000
 15  -3159.4300635355  -0.000426313059 0.00291832  0.00003226  0.0017272 0.0000
 16  -3159.4303669596  -0.000303424141 0.00329988  0.00002999  0.0016444 0.0000
 17  -3159.4306664755  -0.000299515865 0.00251712  0.00002086  0.0016791 0.0000
 18  -3159.4308766416  -0.000210166123 0.00152355  0.00001184  0.0018555 0.0000
 19  -3159.4309874658  -0.000110824209 0.00087850  0.00000660  0.0020529 0.0000
               *** Restarting incremental Fock matrix formation ***
                                   *** Resetting DIIS ***

 WARNING: the maximum gradient error descreased on average only by a factor   1.1
          during the last 20 iterations

                      *** Initiating the TRAH-SCF procedure ***


TRAH GRIDX
----------

General Integration Accuracy     IntAcc      ... 3.067
Radial Grid Type                 RadialGrid  ... OptM3 with GC (2021)
Angular Grid (max. ang.)         AngularGrid ... 1 (Lebedev-50)
Angular grid pruning method      GridPruning ... 4 (adaptive)
Weight generation scheme         WeightScheme... Becke
Basis function cutoff            BFCut       ... 1.0000e-10
Integration weight cutoff        WCut        ... 1.0000e-14
Angular grids for H and He will be reduced by one unit
Partially contracted basis set               ... on
Rotationally invariant grid construction     ... off

Total number of grid points                  ...    13055
Total number of batches                      ...      212
Average number of points per batch           ...       61
Average number of grid points per atom       ...      870


TRAH GRID
---------

General Integration Accuracy     IntAcc      ... 3.467
Radial Grid Type                 RadialGrid  ... OptM3 with GC (2021)
Angular Grid (max. ang.)         AngularGrid ... 1 (Lebedev-50)
Angular grid pruning method      GridPruning ... 4 (adaptive)
Weight generation scheme         WeightScheme... Becke
Basis function cutoff            BFCut       ... 1.0000e-10
Integration weight cutoff        WCut        ... 1.0000e-14
Angular grids for H and He will be reduced by one unit
Partially contracted basis set               ... off
Rotationally invariant grid construction     ... off

Total number of grid points                  ...    71456
Total number of batches                      ...     1124
Average number of points per batch           ...       63
Average number of grid points per atom       ...     4764

 --------------------------------------------------------------------------------------------
   Iter.        energy            ||Error||_2        Shift      TRadius  Mac/Mic        Rej.
 --------------------------------------------------------------------------------------------
    0      -3159.431160199597     1.054872e-02                     0.400 (TRAH MAcro)   No
    0     dE    -7.021026e-05     2.664553e-02    -7.0207e-05      0.007 (TRAH MIcro)
    0     dE    -8.677334e-03     4.858292e-02    -6.3128e-02      0.310 (TRAH MIcro)
    0     dE    -9.842585e-03     1.769264e-02    -6.6909e-02      0.325 (TRAH MIcro)
    0     dE    -1.060750e-02     1.519984e-02    -6.8953e-02      0.335 (TRAH MIcro)
    0     dE    -1.089444e-02     6.000506e-03    -6.9569e-02      0.339 (TRAH MIcro)
    0     dE    -1.099414e-02     3.025513e-03    -6.9671e-02      0.341 (TRAH MIcro)
    0     dE    -1.105574e-02     1.498728e-03    -6.9711e-02      0.342 (TRAH MIcro)
    0     dE    -1.107305e-02     7.645633e-04    -6.9718e-02      0.342 (TRAH MIcro)
    1      -3159.440085747223     1.798993e-02                     0.480 (TRAH MAcro)   No
    1     dE    -1.860506e-04     3.794284e-02    -1.8603e-04      0.010 (TRAH MIcro)
    1     dE    -4.125350e-03     9.066040e-02    -3.8549e-03      0.265 (TRAH MIcro)
    1     dE    -7.022236e-03     5.500449e-02    -6.0044e-03      0.412 (TRAH MIcro)
    1     dE    -8.740690e-03     2.962398e-02    -7.6491e-03      0.480 (TRAH MIcro)
    1     dE    -9.167099e-03     1.099409e-02    -9.6754e-03      0.480 (TRAH MIcro)
    1     dE    -9.215839e-03     4.407712e-03    -9.9145e-03      0.480 (TRAH MIcro)
    1     dE    -9.226514e-03     2.726902e-03    -9.9592e-03      0.480 (TRAH MIcro)
    1     dE    -9.234073e-03     3.262615e-03    -1.0014e-02      0.480 (TRAH MIcro)
    1     dE    -9.252711e-03     7.005205e-03    -1.0276e-02      0.480 (TRAH MIcro)
    1     dE    -9.324192e-03     1.284130e-02    -1.1933e-02      0.480 (TRAH MIcro)
    1     dE    -7.855617e-03     4.799486e-03    -2.0226e-02      0.364 (TRAH MIcro)
    1     dE    -8.403527e-03     8.119504e-03    -2.0317e-02      0.397 (TRAH MIcro)
    1     dE    -6.299623e-03     2.835206e-03    -3.3799e-02      0.268 (TRAH MIcro)
    1     dE    -6.295156e-03     1.370768e-03    -3.3824e-02      0.267 (TRAH MIcro)
    2      -3159.444839517349     1.199432e-02                     0.576 (TRAH MAcro)   No
    2     dE    -2.910169e-05     1.783057e-02    -2.9102e-05      0.002 (TRAH MIcro)
    2     dE    -1.004267e-04     9.099135e-03    -1.0040e-04      0.017 (TRAH MIcro)
    2     dE    -1.308356e-04     4.942366e-03    -1.3073e-04      0.028 (TRAH MIcro)
    2     dE    -1.479385e-04     4.511487e-03    -1.4770e-04      0.041 (TRAH MIcro)
    2     dE    -1.981971e-04     6.941632e-03    -1.9639e-04      0.096 (TRAH MIcro)
    2     dE    -2.494700e-04     7.566096e-03    -2.4337e-04      0.158 (TRAH MIcro)
    2     dE    -4.222990e-04     1.501447e-02    -3.7627e-04      0.350 (TRAH MIcro)
    2     dE    -8.181928e-04     1.694236e-02    -9.0126e-04      0.576 (TRAH MIcro)
    2     dE    -9.927790e-04     1.195451e-02    -1.4639e-03      0.576 (TRAH MIcro)
    2     dE    -1.095447e-03     1.331234e-02    -1.9129e-03      0.563 (TRAH MIcro)
    2     dE    -1.232233e-03     1.148598e-02    -2.2235e-03      0.576 (TRAH MIcro)
    2     dE    -1.429345e-03     2.271189e-02    -2.8432e-03      0.576 (TRAH MIcro)
    2     dE    -1.324691e-03     1.402455e-02    -3.6925e-03      0.494 (TRAH MIcro)
    2     dE    -1.826307e-03     1.916699e-02    -4.1097e-03      0.576 (TRAH MIcro)
    3      -3159.444905806296     3.109113e-02                     0.403 (TRAH MAcro)   No
    3     dE    -1.363856e-05     4.737967e-02    -1.3639e-05      0.000 (TRAH MIcro)
    3     dE    -5.239753e-04     1.675387e-02    -5.2344e-04      0.032 (TRAH MIcro)
    3     dE    -8.417032e-04     1.234630e-02    -8.3802e-04      0.066 (TRAH MIcro)
    3     dE    -9.047558e-04     6.374121e-03    -8.9931e-04      0.078 (TRAH MIcro)
    3     dE    -9.449072e-04     5.763756e-03    -9.3763e-04      0.088 (TRAH MIcro)
    3     dE    -9.777409e-04     5.020586e-03    -9.6833e-04      0.099 (TRAH MIcro)
    3     dE    -1.004126e-03     4.232221e-03    -9.9256e-04      0.108 (TRAH MIcro)
    3     dE    -1.029838e-03     5.461661e-03    -1.0159e-03      0.117 (TRAH MIcro)
    3     dE    -1.058355e-03     4.989994e-03    -1.0415e-03      0.127 (TRAH MIcro)
    3     dE    -1.082844e-03     5.233317e-03    -1.0630e-03      0.137 (TRAH MIcro)
    3     dE    -1.117589e-03     6.416786e-03    -1.0923e-03      0.152 (TRAH MIcro)
    3     dE    -1.148424e-03     4.273143e-03    -1.1168e-03      0.168 (TRAH MIcro)
    3     dE    -1.157663e-03     2.477470e-03    -1.1240e-03      0.173 (TRAH MIcro)
    4      -3159.446090808859     4.887959e-03                     0.484 (TRAH MAcro)   No
    4     dE    -2.849057e-06     1.398378e-02    -2.8491e-06      0.001 (TRAH MIcro)
    4     dE    -1.673854e-05     3.895619e-03    -1.6737e-05      0.009 (TRAH MIcro)
    4     dE    -2.972444e-05     9.508676e-03    -2.9713e-05      0.020 (TRAH MIcro)
    4     dE    -3.850274e-05     3.485320e-03    -3.8465e-05      0.031 (TRAH MIcro)
    4     dE    -4.588738e-05     5.831414e-03    -4.5805e-05      0.042 (TRAH MIcro)
    4     dE    -5.151892e-05     5.200358e-03    -5.1385e-05      0.051 (TRAH MIcro)
    4     dE    -6.193811e-05     4.242181e-03    -6.1662e-05      0.067 (TRAH MIcro)
    4     dE    -8.374674e-05     1.123720e-02    -8.2895e-05      0.101 (TRAH MIcro)
    4     dE    -1.073543e-04     8.408599e-03    -1.0534e-04      0.138 (TRAH MIcro)
    4     dE    -1.355309e-04     5.620363e-03    -1.3121e-04      0.181 (TRAH MIcro)
    4     dE    -1.574603e-04     9.517482e-03    -1.5061e-04      0.213 (TRAH MIcro)
    4     dE    -1.699445e-04     3.986013e-03    -1.6138e-04      0.230 (TRAH MIcro)
    4     dE    -1.734856e-04     1.301413e-03    -1.6441e-04      0.235 (TRAH MIcro)
    4     dE    -1.746782e-04     1.543518e-03    -1.6545e-04      0.236 (TRAH MIcro)
    5      -3159.446246853664     5.911502e-03                     0.581 (TRAH MAcro)   No
    5     dE    -1.675744e-06     1.809844e-02    -1.6758e-06      0.000 (TRAH MIcro)
    5     dE    -4.153856e-05     6.681414e-03    -4.1531e-05      0.013 (TRAH MIcro)
    5     dE    -5.046999e-05     4.111508e-03    -5.0455e-05      0.017 (TRAH MIcro)
    5     dE    -5.296986e-05     1.429722e-03    -5.2950e-05      0.019 (TRAH MIcro)
    5     dE    -5.429031e-05     1.582409e-03    -5.4267e-05      0.021 (TRAH MIcro)
    5     dE    -5.481506e-05     9.816340e-04    -5.4789e-05      0.022 (TRAH MIcro)
    5     dE    -5.555210e-05     1.357111e-03    -5.5523e-05      0.023 (TRAH MIcro)
    5     dE    -5.654499e-05     2.327182e-03    -5.6507e-05      0.026 (TRAH MIcro)
    5     dE    -5.798807e-05     1.407847e-03    -5.7929e-05      0.032 (TRAH MIcro)
    5     dE    -5.940592e-05     1.900063e-03    -5.9318e-05      0.039 (TRAH MIcro)
    5     dE    -6.035812e-05     1.436594e-03    -6.0248e-05      0.043 (TRAH MIcro)
    5     dE    -6.120896e-05     9.184259e-04    -6.1078e-05      0.046 (TRAH MIcro)
    5     dE    -6.188843e-05     1.473021e-03    -6.1741e-05      0.049 (TRAH MIcro)
    5     dE    -6.299101e-05     1.036297e-03    -6.2815e-05      0.053 (TRAH MIcro)
    6      -3159.446314642620     1.040721e-03                     0.697 (TRAH MAcro)   No
    6     dE    -1.506608e-08     1.897360e-03    -1.5529e-08      0.000 (TRAH MIcro)
    6     dE    -6.228208e-07     7.343773e-04    -6.2282e-07      0.001 (TRAH MIcro)
    6     dE    -1.113567e-06     9.251616e-04    -1.1136e-06      0.003 (TRAH MIcro)
    6     dE    -1.428494e-06     5.679123e-04    -1.4285e-06      0.005 (TRAH MIcro)
    6     dE    -1.758282e-06     6.669548e-04    -1.7582e-06      0.008 (TRAH MIcro)
    6     dE    -2.202068e-06     7.353765e-04    -2.2018e-06      0.011 (TRAH MIcro)
    6     dE    -2.731995e-06     7.794482e-04    -2.7314e-06      0.015 (TRAH MIcro)
    6     dE    -3.621035e-06     1.133834e-03    -3.6194e-06      0.021 (TRAH MIcro)
    6     dE    -4.569988e-06     1.131787e-03    -4.5663e-06      0.028 (TRAH MIcro)
    6     dE    -5.431034e-06     8.311905e-04    -5.4245e-06      0.035 (TRAH MIcro)
    6     dE    -6.192558e-06     1.005867e-03    -6.1824e-06      0.040 (TRAH MIcro)
    6     dE    -7.173154e-06     1.122242e-03    -7.1566e-06      0.048 (TRAH MIcro)
    6     dE    -7.843056e-06     7.310499e-04    -7.8206e-06      0.054 (TRAH MIcro)
    6     dE    -8.292389e-06     6.763192e-04    -8.2648e-06      0.058 (TRAH MIcro)
    7      -3159.446323341006     8.044077e-04                           (NR   MAcro)
    7     dE    -3.258139e-07     4.774280e-04                           (NR   MIcro)
    7     dE    -5.956863e-07     4.156332e-04                           (NR   MIcro)
    7     dE    -7.244114e-07     3.327916e-04                           (NR   MIcro)
    7     dE    -8.236267e-07     3.125972e-04                           (NR   MIcro)
    7     dE    -8.973218e-07     2.288006e-04                           (NR   MIcro)
    7     dE    -9.287742e-07     1.803859e-04                           (NR   MIcro)
    7     dE    -9.524630e-07     1.527863e-04                           (NR   MIcro)
    7     dE    -9.689831e-07     1.338711e-04                           (NR   MIcro)
    7     dE    -9.822341e-07     1.091273e-04                           (NR   MIcro)
    7     dE    -9.957267e-07     1.211821e-04                           (NR   MIcro)
    7     dE    -1.006804e-06     1.213129e-04                           (NR   MIcro)
    7     dE    -1.019968e-06     1.164289e-04                           (NR   MIcro)
    7     dE    -1.042101e-06     2.044217e-04                           (NR   MIcro)
    7     dE    -1.091936e-06     2.635028e-04                           (NR   MIcro)
    7     dE    -1.144194e-06     1.747148e-04                           (NR   MIcro)
    8      -3159.446324481429     1.741250e-04                           (NR   MAcro)
    8     dE    -1.465817e-08     8.150064e-05                           (NR   MIcro)
    8     dE    -2.440957e-08     9.938295e-05                           (NR   MIcro)
    8     dE    -3.139509e-08     8.328878e-05                           (NR   MIcro)
    8     dE    -3.863601e-08     8.071334e-05                           (NR   MIcro)
    8     dE    -4.457067e-08     7.672058e-05                           (NR   MIcro)
    8     dE    -4.879153e-08     5.605689e-05                           (NR   MIcro)
    8     dE    -5.079024e-08     4.219649e-05                           (NR   MIcro)
    8     dE    -5.236339e-08     4.634442e-05                           (NR   MIcro)
    8     dE    -5.418668e-08     4.138486e-05                           (NR   MIcro)
    8     dE    -5.599937e-08     4.397266e-05                           (NR   MIcro)
    8     dE    -5.873797e-08     7.218691e-05                           (NR   MIcro)
    8     dE    -6.305072e-08     7.224848e-05                           (NR   MIcro)
    8     dE    -6.962630e-08     8.285746e-05                           (NR   MIcro)
    8     dE    -7.745322e-08     8.741140e-05                           (NR   MIcro)
    8     dE    -8.185380e-08     5.852909e-05                           (NR   MIcro)
    9      -3159.446324583616     5.916424e-05                           (NR   MAcro)
    9     dE    -1.818765e-09     3.044904e-05                           (NR   MIcro)
    9     dE    -3.132673e-09     3.168737e-05                           (NR   MIcro)
    9     dE    -3.918468e-09     2.532656e-05                           (NR   MIcro)
    9     dE    -4.519602e-09     2.211087e-05                           (NR   MIcro)
    9     dE    -4.997202e-09     1.750373e-05                           (NR   MIcro)
    9     dE    -5.237739e-09     1.346600e-05                           (NR   MIcro)
    9     dE    -5.397711e-09     1.130766e-05                           (NR   MIcro)
    9     dE    -5.484789e-09     9.290261e-06                           (NR   MIcro)
    9     dE    -5.563192e-09     8.358979e-06                           (NR   MIcro)
    9     dE    -5.662656e-09     1.068118e-05                           (NR   MIcro)
    9     dE    -5.754438e-09     1.158329e-05                           (NR   MIcro)
    9     dE    -5.871208e-09     1.091708e-05                           (NR   MIcro)
    9     dE    -6.041298e-09     1.523996e-05                           (NR   MIcro)
    9     dE    -6.282705e-09     1.504941e-05                           (NR   MIcro)
    9     dE    -6.523341e-09     1.567706e-05                           (NR   MIcro)
   10      -3159.446324588524     1.567346e-05                           (NR   MAcro)

               *****************************************************
               *                     SUCCESS                       *
               *           SCF CONVERGED AFTER 167 CYCLES          *
               *****************************************************

Old exchange energy                            =   -117.371608278 Eh
New exchange energy                            =   -117.371413888 Eh
Exchange energy change after final integration =      0.000194390 Eh
Total energy after final integration           =  -3159.446130199 Eh
Final COS-X integration done in                =    13.060 sec

----------------
TOTAL SCF ENERGY
----------------

Total Energy       :        -3159.44613020 Eh          -85972.89998 eV

Components:
Nuclear Repulsion  :         5765.05481039 Eh          156875.11677 eV
Electronic Energy  :        -8924.50094059 Eh         -242848.01675 eV
One Electron Energy:       -16610.52056066 Eh         -451995.24345 eV
Two Electron Energy:         7686.01962007 Eh          209147.22670 eV
Max COSX asymmetry :            0.00001080 Eh               0.00029 eV

Virial components:
Potential Energy   :        -5065.01517082 Eh         -137826.06974 eV
Kinetic Energy     :         1905.56904062 Eh           51853.16976 eV
Virial Ratio       :            2.65800664


DFT components:
N(Alpha)           :      148.000013260945 electrons
N(Beta)            :      144.000011853189 electrons
N(Total)           :      292.000025114134 electrons
E(X)               :     -105.729319558323 Eh       
E(C)               :       -8.065845313683 Eh       
E(XC)              :     -113.795164872006 Eh       
DFET-embed. en.    :        0.000000000000 Eh       

---------------
SCF CONVERGENCE
---------------

  Last Energy change         ...   -4.9072e-09  Tolerance :   1.0000e-06
  Last Orbital Gradient      ...    1.5673e-05  Tolerance :   5.0000e-05
  Last Orbital Rotation      ...    9.3253e-04

             **** THE GBW FILE WAS UPDATED (b2plyp.gbw) ****
             **** DENSITY b2plyp.scfp WAS UPDATED ****
             **** ENERGY FILE WAS UPDATED (b2plyp.en.tmp) ****
----------------------
UHF SPIN CONTAMINATION
----------------------

Warning: in a DFT calculation there is little theoretical justification to 
         calculate <S**2> as in Hartree-Fock theory. We will do it anyways
         but you should keep in mind that the values have only limited relevance

Expectation value of <S**2>     :     6.745355
Ideal value S*(S+1) for S=2.0   :     6.000000
Deviation                       :     0.745355

             **** THE GBW FILE WAS UPDATED (b2plyp.gbw) ****
             **** DENSITY b2plyp.scfp WAS UPDATED ****
----------------
ORBITAL ENERGIES
----------------
                 SPIN UP ORBITALS
  NO   OCC          E(Eh)            E(eV) 
   0   1.0000    -258.347241     -7029.9858 
   1   1.0000     -30.908456      -841.0618 
   2   1.0000     -26.625275      -724.5106 
   3   1.0000     -26.598243      -723.7750 
   4   1.0000     -26.596373      -723.7241 
   5   1.0000      -4.406062      -119.8950 
   6   1.0000      -4.405457      -119.8786 
   7   1.0000      -4.402940      -119.8101 
   8   1.0000      -4.401724      -119.7770 
   9   1.0000      -4.401580      -119.7731 
  10   1.0000      -4.400371      -119.7402 
  11   1.0000      -4.398918      -119.7006 
  12   1.0000      -4.398835      -119.6984 
  13   1.0000      -4.397999      -119.6756 
  14   1.0000      -4.397780      -119.6697 
  15   1.0000      -4.391115      -119.4883 
  16   1.0000      -4.390330      -119.4670 
  17   1.0000      -4.389454      -119.4431 
  18   1.0000      -4.388512      -119.4175 
  19   1.0000      -3.921121      -106.6991 
  20   1.0000      -2.668281       -72.6076 
  21   1.0000      -2.612542       -71.0909 
  22   1.0000      -2.609009       -70.9947 
  23   1.0000      -2.526970       -68.7623 
  24   1.0000      -2.526566       -68.7514 
  25   1.0000      -2.526273       -68.7434 
  26   1.0000      -2.524286       -68.6893 
  27   1.0000      -2.523891       -68.6786 
  28   1.0000      -2.523131       -68.6579 
  29   1.0000      -2.522734       -68.6471 
  30   1.0000      -2.521212       -68.6057 
  31   1.0000      -2.520922       -68.5978 
  32   1.0000      -2.520182       -68.5776 
  33   1.0000      -2.519148       -68.5495 
  34   1.0000      -2.518917       -68.5432 
  35   1.0000      -2.518375       -68.5285 
  36   1.0000      -2.518178       -68.5231 
  37   1.0000      -2.517994       -68.5181 
  38   1.0000      -2.517945       -68.5168 
  39   1.0000      -2.517754       -68.5116 
  40   1.0000      -2.516681       -68.4824 
  41   1.0000      -2.516527       -68.4782 
  42   1.0000      -2.516397       -68.4747 
  43   1.0000      -2.516162       -68.4683 
  44   1.0000      -2.515380       -68.4470 
  45   1.0000      -2.515272       -68.4440 
  46   1.0000      -2.514907       -68.4341 
  47   1.0000      -2.514396       -68.4202 
  48   1.0000      -2.513902       -68.4067 
  49   1.0000      -2.513331       -68.3912 
  50   1.0000      -2.512718       -68.3745 
  51   1.0000      -2.512467       -68.3677 
  52   1.0000      -2.511868       -68.3514 
  53   1.0000      -2.509545       -68.2882 
  54   1.0000      -2.509285       -68.2811 
  55   1.0000      -2.508517       -68.2602 
  56   1.0000      -2.506822       -68.2141 
  57   1.0000      -2.506216       -68.1976 
  58   1.0000      -2.506093       -68.1943 
  59   1.0000      -2.506027       -68.1925 
  60   1.0000      -2.505804       -68.1864 
  61   1.0000      -2.505511       -68.1784 
  62   1.0000      -2.504365       -68.1472 
  63   1.0000      -2.503440       -68.1221 
  64   1.0000      -2.503183       -68.1151 
  65   1.0000      -0.569901       -15.5078 
  66   1.0000      -0.563540       -15.3347 
  67   1.0000      -0.562307       -15.3012 
  68   1.0000      -0.546833       -14.8801 
  69   1.0000      -0.525506       -14.2997 
  70   1.0000      -0.520414       -14.1612 
  71   1.0000      -0.476323       -12.9614 
  72   1.0000      -0.472592       -12.8599 
  73   1.0000      -0.471691       -12.8354 
  74   1.0000      -0.469251       -12.7690 
  75   1.0000      -0.459524       -12.5043 
  76   1.0000      -0.459091       -12.4925 
  77   1.0000      -0.458942       -12.4884 
  78   1.0000      -0.457278       -12.4432 
  79   1.0000      -0.456180       -12.4133 
  80   1.0000      -0.455907       -12.4059 
  81   1.0000      -0.452587       -12.3155 
  82   1.0000      -0.449637       -12.2352 
  83   1.0000      -0.447651       -12.1812 
  84   1.0000      -0.445956       -12.1351 
  85   1.0000      -0.441924       -12.0254 
  86   1.0000      -0.441077       -12.0023 
  87   1.0000      -0.439328       -11.9547 
  88   1.0000      -0.438766       -11.9394 
  89   1.0000      -0.437611       -11.9080 
  90   1.0000      -0.437082       -11.8936 
  91   1.0000      -0.433494       -11.7960 
  92   1.0000      -0.432614       -11.7720 
  93   1.0000      -0.425483       -11.5780 
  94   1.0000      -0.425289       -11.5727 
  95   1.0000      -0.417973       -11.3736 
  96   1.0000      -0.417259       -11.3542 
  97   1.0000      -0.416306       -11.3283 
  98   1.0000      -0.414935       -11.2909 
  99   1.0000      -0.411661       -11.2019 
 100   1.0000      -0.410940       -11.1822 
 101   1.0000      -0.405188       -11.0257 
 102   1.0000      -0.401564       -10.9271 
 103   1.0000      -0.399341       -10.8666 
 104   1.0000      -0.397516       -10.8170 
 105   1.0000      -0.388574       -10.5736 
 106   1.0000      -0.387127       -10.5343 
 107   1.0000      -0.380282       -10.3480 
 108   1.0000      -0.375970       -10.2307 
 109   1.0000      -0.375261       -10.2114 
 110   1.0000      -0.374827       -10.1995 
 111   1.0000      -0.373768       -10.1707 
 112   1.0000      -0.372544       -10.1374 
 113   1.0000      -0.369701       -10.0601 
 114   1.0000      -0.369616       -10.0578 
 115   1.0000      -0.369380       -10.0514 
 116   1.0000      -0.368814       -10.0359 
 117   1.0000      -0.366285        -9.9671 
 118   1.0000      -0.366082        -9.9616 
 119   1.0000      -0.364391        -9.9156 
 120   1.0000      -0.363540        -9.8924 
 121   1.0000      -0.362764        -9.8713 
 122   1.0000      -0.362604        -9.8670 
 123   1.0000      -0.362394        -9.8612 
 124   1.0000      -0.358786        -9.7631 
 125   1.0000      -0.358598        -9.7580 
 126   1.0000      -0.358203        -9.7472 
 127   1.0000      -0.356382        -9.6976 
 128   1.0000      -0.352819        -9.6007 
 129   1.0000      -0.352532        -9.5929 
 130   1.0000      -0.351849        -9.5743 
 131   1.0000      -0.347322        -9.4511 
 132   1.0000      -0.345060        -9.3896 
 133   1.0000      -0.342866        -9.3298 
 134   1.0000      -0.342768        -9.3272 
 135   1.0000      -0.342365        -9.3162 
 136   1.0000      -0.340600        -9.2682 
 137   1.0000      -0.339257        -9.2316 
 138   1.0000      -0.329590        -8.9686 
 139   1.0000      -0.327034        -8.8991 
 140   1.0000      -0.319212        -8.6862 
 141   1.0000      -0.317025        -8.6267 
 142   1.0000      -0.311547        -8.4776 
 143   1.0000      -0.307596        -8.3701 
 144   1.0000      -0.254960        -6.9378 
 145   1.0000      -0.225026        -6.1233 
 146   1.0000      -0.206578        -5.6213 
 147   1.0000      -0.206382        -5.6159 
 148   0.0000      -0.119874        -3.2619 
 149   0.0000      -0.086430        -2.3519 
 150   0.0000      -0.075700        -2.0599 
 151   0.0000      -0.052366        -1.4249 
 152   0.0000      -0.051048        -1.3891 
 153   0.0000      -0.048465        -1.3188 
 154   0.0000      -0.026978        -0.7341 
 155   0.0000      -0.010220        -0.2781 
 156   0.0000      -0.008050        -0.2191 
 157   0.0000      -0.005856        -0.1593 
 158   0.0000      -0.005364        -0.1460 
 159   0.0000       0.001277         0.0347 
 160   0.0000       0.007228         0.1967 
 161   0.0000       0.026394         0.7182 
 162   0.0000       0.038985         1.0608 
 163   0.0000       0.039072         1.0632 
 164   0.0000       0.055845         1.5196 
 165   0.0000       0.056432         1.5356 
 166   0.0000       0.057895         1.5754 
 167   0.0000       0.078619         2.1393 
 168   0.0000       0.080264         2.1841 
 169   0.0000       0.082376         2.2416 
 170   0.0000       0.083089         2.2610 
 171   0.0000       0.086773         2.3612 
 172   0.0000       0.097891         2.6638 
 173   0.0000       0.100754         2.7416 
 174   0.0000       0.100785         2.7425 
 175   0.0000       0.103056         2.8043 
 176   0.0000       0.108141         2.9427 
 177   0.0000       0.109179         2.9709 
 178   0.0000       0.111536         3.0350 
 179   0.0000       0.115785         3.1507 
 180   0.0000       0.125864         3.4249 
 181   0.0000       0.128713         3.5025 
 182   0.0000       0.129532         3.5247 
 183   0.0000       0.135189         3.6787 
 184   0.0000       0.137282         3.7356 
 185   0.0000       0.141299         3.8450 
 186   0.0000       0.147667         4.0182 
 187   0.0000       0.162767         4.4291 
 188   0.0000       0.165506         4.5036 
 189   0.0000       0.166104         4.5199 
 190   0.0000       0.172129         4.6839 
 191   0.0000       0.181787         4.9467 
 192   0.0000       0.183079         4.9818 
 193   0.0000       0.203991         5.5509 
 194   0.0000       0.204313         5.5596 
 195   0.0000       0.208756         5.6805 
 196   0.0000       0.212026         5.7695 
 197   0.0000       0.212679         5.7873 
 198   0.0000       0.217217         5.9108 
 199   0.0000       0.222185         6.0460 
 200   0.0000       0.236986         6.4487 
 201   0.0000       0.239438         6.5154 
 202   0.0000       0.242295         6.5932 
 203   0.0000       0.244266         6.6468 
 204   0.0000       0.247942         6.7468 
 205   0.0000       0.263482         7.1697 
 206   0.0000       0.284783         7.7493 
 207   0.0000       0.288155         7.8411 
 208   0.0000       0.289135         7.8678 
 209   0.0000       0.290694         7.9102 
 210   0.0000       0.297568         8.0972 
 211   0.0000       0.300509         8.1773 
 212   0.0000       0.301023         8.1912 
 213   0.0000       0.303184         8.2500 
 214   0.0000       0.308046         8.3824 
 215   0.0000       0.309523         8.4226 
 216   0.0000       0.319190         8.6856 
 217   0.0000       0.326042         8.8721 
 218   0.0000       0.327877         8.9220 
 219   0.0000       0.330029         8.9806 
 220   0.0000       0.331032         9.0078 
 221   0.0000       0.346819         9.4374 
 222   0.0000       0.355562         9.6753 
 223   0.0000       0.358167         9.7462 
 224   0.0000       0.367648        10.0042 
 225   0.0000       0.368635        10.0311 
 226   0.0000       0.372863        10.1461 
 227   0.0000       0.383438        10.4339 
 228   0.0000       0.389143        10.5891 
 229   0.0000       0.392016        10.6673 
 230   0.0000       0.397339        10.8121 
 231   0.0000       0.401536        10.9263 
 232   0.0000       0.412760        11.2318 
 233   0.0000       0.415961        11.3189 
 234   0.0000       0.421551        11.4710 
 235   0.0000       0.423172        11.5151 
 236   0.0000       0.425286        11.5726 
 237   0.0000       0.426179        11.5969 
 238   0.0000       0.428216        11.6524 
 239   0.0000       0.444306        12.0902 
 240   0.0000       0.451713        12.2917 
 241   0.0000       0.452072        12.3015 
 242   0.0000       0.455099        12.3839 
 243   0.0000       0.456060        12.4100 
 244   0.0000       0.463623        12.6158 
 245   0.0000       0.465918        12.6783 
 246   0.0000       0.467407        12.7188 
 247   0.0000       0.470701        12.8084 
 248   0.0000       0.473659        12.8889 
 249   0.0000       0.479114        13.0374 
 250   0.0000       0.486994        13.2518 
 251   0.0000       0.499581        13.5943 
 252   0.0000       0.501695        13.6518 
 253   0.0000       0.516531        14.0555 
 254   0.0000       0.517264        14.0755 
 255   0.0000       0.520017        14.1504 
 256   0.0000       0.525531        14.3004 
 257   0.0000       0.525991        14.3129 
 258   0.0000       0.540957        14.7202 
 259   0.0000       0.552349        15.0302 
 260   0.0000       0.554250        15.0819 
 261   0.0000       0.555597        15.1186 
 262   0.0000       0.558278        15.1915 
 263   0.0000       0.564777        15.3684 
 264   0.0000       0.566316        15.4102 
 265   0.0000       0.567256        15.4358 
 266   0.0000       0.573558        15.6073 
 267   0.0000       0.575797        15.6682 
 268   0.0000       0.576243        15.6804 
 269   0.0000       0.585815        15.9408 
 270   0.0000       0.588504        16.0140 
 271   0.0000       0.591072        16.0839 
 272   0.0000       0.593946        16.1621 
 273   0.0000       0.595085        16.1931 
 274   0.0000       0.595840        16.2136 
 275   0.0000       0.605780        16.4841 
 276   0.0000       0.611395        16.6369 
 277   0.0000       0.613541        16.6953 
 278   0.0000       0.614972        16.7342 
 279   0.0000       0.617929        16.8147 
 280   0.0000       0.624598        16.9962 
 281   0.0000       0.628771        17.1097 
 282   0.0000       0.650794        17.7090 
 283   0.0000       0.651749        17.7350 
 284   0.0000       0.657049        17.8792 
 285   0.0000       0.658001        17.9051 
 286   0.0000       0.658729        17.9249 
 287   0.0000       0.670091        18.2341 
 288   0.0000       0.678415        18.4606 
 289   0.0000       0.687827        18.7167 
 290   0.0000       0.718906        19.5624 
 291   0.0000       0.767214        20.8770 
 292   0.0000       0.780450        21.2371 
 293   0.0000       0.785210        21.3667 
 294   0.0000       0.814022        22.1507 
 295   0.0000       0.818376        22.2692 
 296   0.0000       0.820515        22.3273 
 297   0.0000       0.825503        22.4631 
 298   0.0000       0.829539        22.5729 
 299   0.0000       0.830273        22.5929 
 300   0.0000       0.843173        22.9439 
 301   0.0000       0.848804        23.0971 
 302   0.0000       0.850999        23.1569 
 303   0.0000       0.859675        23.3929 
 304   0.0000       0.877496        23.8779 
 305   0.0000       0.906729        24.6734 
 306   0.0000       0.909984        24.7619 
 307   0.0000       0.917230        24.9591 
 308   0.0000       0.920833        25.0571 
 309   0.0000       0.928926        25.2774 
 310   0.0000       0.945640        25.7322 
 311   0.0000       0.955167        25.9914 
 312   0.0000       0.957021        26.0419 
 313   0.0000       1.003873        27.3168 
 314   0.0000       1.027908        27.9708 
 315   0.0000       1.029497        28.0140 
 316   0.0000       1.037482        28.2313 
 317   0.0000       1.041310        28.3355 
 318   0.0000       1.059098        28.8195 
 319   0.0000       1.065087        28.9825 
 320   0.0000       1.066604        29.0238 
 321   0.0000       1.071655        29.1612 
 322   0.0000       1.077119        29.3099 
 323   0.0000       1.077901        29.3312 
 324   0.0000       1.081241        29.4221 
 325   0.0000       1.092476        29.7278 
 326   0.0000       1.103587        30.0301 
 327   0.0000       1.105652        30.0863 
 328   0.0000       1.116064        30.3696 
 329   0.0000       1.172113        31.8948 
 330   0.0000       1.279804        34.8252 
 331   0.0000       1.330385        36.2016 
 332   0.0000       1.357844        36.9488 
 333   0.0000       1.362072        37.0639 
 334   0.0000       1.373393        37.3719 
 335   0.0000       1.393847        37.9285 
 336   0.0000       1.398763        38.0623 
 337   0.0000       1.412417        38.4338 
 338   0.0000       1.414590        38.4930 
 339   0.0000       1.428186        38.8629 
 340   0.0000       1.441993        39.2386 
 341   0.0000       1.454457        39.5778 
 342   0.0000       1.456100        39.6225 
 343   0.0000       1.461528        39.7702 
 344   0.0000       1.467118        39.9223 
 345   0.0000       1.490202        40.5505 
 346   0.0000       1.495848        40.7041 
 347   0.0000       1.501013        40.8446 
 348   0.0000       1.515839        41.2481 
 349   0.0000       1.517872        41.3034 
 350   0.0000       1.530538        41.6480 
 351   0.0000       1.533647        41.7327 
 352   0.0000       1.540495        41.9190 
 353   0.0000       1.541657        41.9506 
 354   0.0000       1.549427        42.1620 
 355   0.0000       1.554366        42.2965 
 356   0.0000       1.562839        42.5270 
 357   0.0000       1.568060        42.6691 
 358   0.0000       1.571755        42.7696 
 359   0.0000       1.582630        43.0655 
 360   0.0000       1.590104        43.2689 
 361   0.0000       1.590475        43.2790 
 362   0.0000       1.591356        43.3030 
 363   0.0000       1.598648        43.5014 
 364   0.0000       1.606765        43.7223 
 365   0.0000       1.608526        43.7702 
 366   0.0000       1.614303        43.9274 
 367   0.0000       1.616280        43.9812 
 368   0.0000       1.625581        44.2343 
 369   0.0000       1.630309        44.3630 
 370   0.0000       1.635852        44.5138 
 371   0.0000       1.637876        44.5689 
 372   0.0000       1.638667        44.5904 
 373   0.0000       1.640705        44.6458 
 374   0.0000       1.645237        44.7692 
 375   0.0000       1.645647        44.7803 
 376   0.0000       1.651611        44.9426 
 377   0.0000       1.652819        44.9755 
 378   0.0000       1.655622        45.0518 
 379   0.0000       1.658706        45.1357 
 380   0.0000       1.661086        45.2005 
 381   0.0000       1.668439        45.4005 
 382   0.0000       1.670870        45.4667 
 383   0.0000       1.673541        45.5394 
 384   0.0000       1.673624        45.5416 
 385   0.0000       1.679149        45.6920 
 386   0.0000       1.680328        45.7241 
 387   0.0000       1.681429        45.7540 
 388   0.0000       1.682726        45.7893 
 389   0.0000       1.683427        45.8084 
 390   0.0000       1.683769        45.8177 
 391   0.0000       1.685289        45.8590 
 392   0.0000       1.685538        45.8658 
 393   0.0000       1.686144        45.8823 
 394   0.0000       1.687326        45.9145 
 395   0.0000       1.690901        46.0118 
 396   0.0000       1.694720        46.1157 
 397   0.0000       1.694937        46.1216 
 398   0.0000       1.695704        46.1424 
 399   0.0000       1.696345        46.1599 
 400   0.0000       1.696458        46.1630 
 401   0.0000       1.696969        46.1769 
 402   0.0000       1.698081        46.2071 
 403   0.0000       1.698764        46.2257 
 404   0.0000       1.701281        46.2942 
 405   0.0000       1.703517        46.3550 
 406   0.0000       1.704773        46.3892 
 407   0.0000       1.705563        46.4107 
 408   0.0000       1.706479        46.4357 
 409   0.0000       1.707780        46.4710 
 410   0.0000       1.711709        46.5780 
 411   0.0000       1.712063        46.5876 
 412   0.0000       1.712653        46.6036 
 413   0.0000       1.713603        46.6295 
 414   0.0000       1.715327        46.6764 
 415   0.0000       1.716123        46.6981 
 416   0.0000       1.716864        46.7182 
 417   0.0000       1.718929        46.7744 
 418   0.0000       1.722364        46.8679 
 419   0.0000       1.724064        46.9142 
 420   0.0000       1.725956        46.9657 
 421   0.0000       1.732638        47.1475 
 422   0.0000       1.733107        47.1603 
 423   0.0000       1.734203        47.1901 
 424   0.0000       1.737226        47.2723 
 425   0.0000       1.741410        47.3862 
 426   0.0000       1.743940        47.4550 
 427   0.0000       1.747731        47.5582 
 428   0.0000       1.748300        47.5737 
 429   0.0000       1.749383        47.6031 
 430   0.0000       1.750646        47.6375 
 431   0.0000       1.750886        47.6440 
 432   0.0000       1.753896        47.7259 
 433   0.0000       1.754770        47.7497 
 434   0.0000       1.756294        47.7912 
 435   0.0000       1.757511        47.8243 
 436   0.0000       1.762558        47.9616 
 437   0.0000       1.763166        47.9782 
 438   0.0000       1.764348        48.0103 
 439   0.0000       1.766414        48.0666 
 440   0.0000       1.769739        48.1570 
 441   0.0000       1.772864        48.2421 
 442   0.0000       1.774785        48.2943 
 443   0.0000       1.778104        48.3847 
 444   0.0000       1.778776        48.4029 
 445   0.0000       1.779320        48.4177 
 446   0.0000       1.782143        48.4946 
 447   0.0000       1.785375        48.5825 
 448   0.0000       1.786961        48.6257 
 449   0.0000       1.793207        48.7957 
 450   0.0000       1.799132        48.9569 
 451   0.0000       1.800223        48.9865 
 452   0.0000       1.802733        49.0548 
 453   0.0000       1.804197        49.0947 
 454   0.0000       1.805234        49.1229 
 455   0.0000       1.808700        49.2172 
 456   0.0000       1.815435        49.4005 
 457   0.0000       1.819681        49.5160 
 458   0.0000       1.827237        49.7217 
 459   0.0000       1.830358        49.8066 
 460   0.0000       1.830765        49.8177 
 461   0.0000       1.831507        49.8378 
 462   0.0000       1.835185        49.9379 
 463   0.0000       1.848228        50.2928 
 464   0.0000       1.853968        50.4490 
 465   0.0000       1.855551        50.4921 
 466   0.0000       1.860024        50.6138 
 467   0.0000       1.861015        50.6408 
 468   0.0000       1.874277        51.0017 
 469   0.0000       1.889721        51.4219 
 470   0.0000       1.894142        51.5422 
 471   0.0000       1.896641        51.6102 
 472   0.0000       1.902883        51.7801 
 473   0.0000       1.907098        51.8948 
 474   0.0000       1.922430        52.3120 
 475   0.0000       1.927515        52.4504 
 476   0.0000       1.944040        52.9000 
 477   0.0000       1.951668        53.1076 
 478   0.0000       1.960149        53.3384 
 479   0.0000       1.961812        53.3836 
 480   0.0000       1.965204        53.4759 
 481   0.0000       1.965934        53.4958 
 482   0.0000       1.976492        53.7831 
 483   0.0000       1.983415        53.9715 
 484   0.0000       1.985322        54.0234 
 485   0.0000       1.993180        54.2372 
 486   0.0000       2.000427        54.4344 
 487   0.0000       2.003034        54.5053 
 488   0.0000       2.005255        54.5658 
 489   0.0000       2.020039        54.9681 
 490   0.0000       2.021892        55.0185 
 491   0.0000       2.034864        55.3715 
 492   0.0000       2.047608        55.7182 
 493   0.0000       2.076905        56.5154 
 494   0.0000       2.097489        57.0756 
 495   0.0000       2.118169        57.6383 
 496   0.0000       2.121952        57.7412 
 497   0.0000       2.122423        57.7541 
 498   0.0000       2.161757        58.8244 
 499   0.0000       2.172004        59.1032 
 500   0.0000       2.334134        63.5150 
 501   0.0000       2.342539        63.7437 
 502   0.0000       2.345338        63.8199 
 503   0.0000       2.355377        64.0931 
 504   0.0000       2.376378        64.6645 
 505   0.0000       2.455545        66.8188 
 506   0.0000       2.518257        68.5253 
 507   0.0000       2.549465        69.3745 
 508   0.0000       2.567422        69.8631 
 509   0.0000       2.632650        71.6381 
 510   0.0000       2.682922        73.0060 
 511   0.0000       2.730675        74.3054 
 512   0.0000       2.731304        74.3226 
 513   0.0000       2.737795        74.4992 
 514   0.0000       2.742614        74.6303 
 515   0.0000       2.758745        75.0693 
 516   0.0000       2.762808        75.1798 
 517   0.0000       2.799338        76.1739 
 518   0.0000       2.820452        76.7484 
 519   0.0000       2.825064        76.8739 
 520   0.0000       2.827313        76.9351 
 521   0.0000       2.875799        78.2545 
 522   0.0000       3.690027       100.4107 
 523   0.0000       3.923826       106.7727 
 524   0.0000       3.948199       107.4360 
[...]
      f-3     :    -0.000008
  4 Aus       :    -0.087946  s :    -0.087946
      pz      :    -0.020792  p :    -0.038644
      px      :     0.001254
      py      :    -0.019105
      dz2     :     0.000160  d :    -0.007696
      dxz     :     0.000799
      dyz     :    -0.004222
      dx2y2   :     0.001642
      dxy     :    -0.006075
      f0      :    -0.000018  f :    -0.000053
      f+1     :    -0.000013
      f-1     :    -0.000010
      f+2     :     0.000017
      f-2     :     0.000000
      f+3     :    -0.000005
      f-3     :    -0.000024
  5 Aus       :    -0.093669  s :    -0.093669
      pz      :    -0.001041  p :    -0.063529
      px      :    -0.047544
      py      :    -0.014944
      dz2     :     0.001288  d :    -0.005818
      dxz     :    -0.000875
      dyz     :     0.000116
      dx2y2   :     0.002455
      dxy     :    -0.008802
      f0      :    -0.000012  f :    -0.000007
      f+1     :    -0.000015
      f-1     :    -0.000011
      f+2     :     0.000022
      f-2     :    -0.000023
      f+3     :     0.000006
      f-3     :     0.000025
  6 Aus       :    -0.088982  s :    -0.088982
      pz      :    -0.013202  p :    -0.037215
      px      :     0.002403
      py      :    -0.026415
      dz2     :     0.000821  d :    -0.007475
      dxz     :     0.000050
      dyz     :    -0.003831
      dx2y2   :     0.000388
      dxy     :    -0.004902
      f0      :    -0.000023  f :    -0.000054
      f+1     :    -0.000004
      f-1     :    -0.000006
      f+2     :     0.000017
      f-2     :     0.000005
      f+3     :    -0.000022
      f-3     :    -0.000022
  7 Aus       :     0.015993  s :     0.015993
      pz      :    -0.043560  p :    -0.061345
      px      :    -0.000538
      py      :    -0.017247
      dz2     :    -0.005552  d :    -0.005183
      dxz     :    -0.003387
      dyz     :     0.001745
      dx2y2   :     0.000494
      dxy     :     0.001518
      f0      :    -0.000004  f :    -0.000013
      f+1     :    -0.000017
      f-1     :    -0.000014
      f+2     :    -0.000012
      f-2     :     0.000033
      f+3     :     0.000019
      f-3     :    -0.000019
  8 Aus       :    -0.080623  s :    -0.080623
      pz      :    -0.011608  p :    -0.072761
      px      :    -0.049867
      py      :    -0.011286
      dz2     :     0.005068  d :    -0.007379
      dxz     :    -0.002742
      dyz     :    -0.002990
      dx2y2   :    -0.001596
      dxy     :    -0.005120
      f0      :     0.000028  f :    -0.000020
      f+1     :     0.000032
      f-1     :    -0.000010
      f+2     :    -0.000014
      f-2     :    -0.000037
      f+3     :    -0.000007
      f-3     :    -0.000012
  9 Aus       :    -0.072534  s :    -0.072534
      pz      :    -0.000933  p :    -0.074351
      px      :    -0.061191
      py      :    -0.012227
      dz2     :     0.001649  d :    -0.003566
      dxz     :     0.001230
      dyz     :    -0.000102
      dx2y2   :     0.002581
      dxy     :    -0.008924
      f0      :    -0.000009  f :    -0.000018
      f+1     :    -0.000010
      f-1     :    -0.000014
      f+2     :     0.000014
      f-2     :    -0.000024
      f+3     :    -0.000007
      f-3     :     0.000032
 10 Aus       :     0.016239  s :     0.016239
      pz      :    -0.042716  p :    -0.061870
      px      :    -0.001409
      py      :    -0.017745
      dz2     :    -0.006312  d :    -0.005455
      dxz     :    -0.005664
      dyz     :     0.005796
      dx2y2   :     0.004094
      dxy     :    -0.003369
      f0      :    -0.000012  f :    -0.000017
      f+1     :    -0.000026
      f-1     :     0.000004
      f+2     :     0.000024
      f-2     :     0.000002
      f+3     :     0.000003
      f-3     :    -0.000011
 11 Aus       :     0.013794  s :     0.013794
      pz      :    -0.018300  p :    -0.028047
      px      :    -0.001516
      py      :    -0.008230
      dz2     :    -0.011252  d :    -0.020105
      dxz     :    -0.003746
      dyz     :     0.000154
      dx2y2   :    -0.000959
      dxy     :    -0.004302
      f0      :    -0.000014  f :    -0.000082
      f+1     :    -0.000026
      f-1     :    -0.000018
      f+2     :    -0.000005
      f-2     :     0.000003
      f+3     :    -0.000017
      f-3     :    -0.000004
 12 Aus       :    -0.089277  s :    -0.089277
      pz      :    -0.010799  p :    -0.037212
      px      :     0.000274
      py      :    -0.026686
      dz2     :    -0.001921  d :    -0.007395
      dxz     :    -0.000152
      dyz     :    -0.005097
      dx2y2   :     0.003633
      dxy     :    -0.003857
      f0      :    -0.000010  f :    -0.000052
      f+1     :    -0.000008
      f-1     :     0.000001
      f+2     :    -0.000020
      f-2     :    -0.000015
      f+3     :    -0.000002
      f-3     :     0.000001
 13 Aus       :     0.013776  s :     0.013776
      pz      :    -0.018751  p :    -0.028469
      px      :    -0.001427
      py      :    -0.008291
      dz2     :    -0.001751  d :    -0.020368
      dxz     :    -0.010045
      dyz     :    -0.000984
      dx2y2   :    -0.003965
      dxy     :    -0.003623
      f0      :    -0.000012  f :    -0.000085
      f+1     :    -0.000017
      f-1     :    -0.000005
      f+2     :    -0.000013
      f-2     :    -0.000009
      f+3     :    -0.000026
      f-3     :    -0.000003
 14 Fes       :     0.012167  s :     0.012167
      pz      :     0.008289  p :     0.020937
      px      :     0.006178
      py      :     0.006469
      dz2     :     0.682256  d :     3.407235
      dxz     :     0.658594
      dyz     :     0.858030
      dx2y2   :     0.326258
      dxy     :     0.882098
      f0      :    -0.000005  f :    -0.000056
      f+1     :    -0.000017
      f-1     :     0.000001
      f+2     :    -0.000009
      f-2     :    -0.000005
      f+3     :     0.000002
      f-3     :    -0.000023


                      *****************************
                      * MAYER POPULATION ANALYSIS *
                      *****************************

  NA   - Mulliken gross atomic population
  ZA   - Total nuclear charge
  QA   - Mulliken gross atomic charge
  VA   - Mayer's total valence
  BVA  - Mayer's bonded valence
  FA   - Mayer's free valence

  ATOM       NA         ZA         QA         VA         BVA        FA
  0 Au    18.9568    19.0000     0.0432     1.6704     1.6223     0.0481
  1 Au    18.8587    19.0000     0.1413     1.3787     1.3697     0.0091
  2 Au    18.8587    19.0000     0.1413     1.3824     1.3732     0.0092
  3 Au    18.6469    19.0000     0.3531     1.4913     1.4554     0.0359
  4 Au    18.9573    19.0000     0.0427     1.6702     1.6215     0.0487
  5 Au    18.6996    19.0000     0.3004     1.3216     1.2693     0.0523
  6 Au    18.9515    19.0000     0.0485     1.6655     1.6154     0.0501
  7 Au    19.0113    19.0000    -0.0113     1.8173     1.8112     0.0061
  8 Au    18.7159    19.0000     0.2841     1.3219     1.2783     0.0435
  9 Au    18.6374    19.0000     0.3626     1.4969     1.4572     0.0398
 10 Au    19.0130    19.0000    -0.0130     1.8173     1.8111     0.0062
 11 Au    18.6170    19.0000     0.3830     1.2135     1.2121     0.0014
 12 Au    18.9523    19.0000     0.0477     1.6668     1.6166     0.0502
 13 Au    18.6144    19.0000     0.3856     1.2123     1.2109     0.0014
 14 Fe    28.5094    26.0000    -2.5094     8.7270     5.2619     3.4651

  Mayer bond orders larger than 0.100000
B(  0-Au,  2-Au) :   0.1425 B(  0-Au,  3-Au) :   0.2365 B(  0-Au,  5-Au) :   0.1292 
B(  0-Au,  6-Au) :   0.1788 B(  0-Au, 10-Au) :   0.1646 B(  0-Au, 11-Au) :   0.3051 
B(  0-Au, 14-Fe) :   0.3421 B(  1-Au,  2-Au) :   0.1711 B(  1-Au,  3-Au) :   0.1187 
B(  1-Au,  4-Au) :   0.1421 B(  1-Au,  9-Au) :   0.1330 B(  1-Au, 12-Au) :   0.1358 
B(  1-Au, 14-Fe) :   0.4928 B(  2-Au,  3-Au) :   0.1186 B(  2-Au,  6-Au) :   0.1398 
B(  2-Au,  9-Au) :   0.1319 B(  2-Au, 14-Fe) :   0.4932 B(  3-Au,  4-Au) :   0.2377 
B(  3-Au,  5-Au) :   0.1782 B(  3-Au, 14-Fe) :   0.4359 B(  4-Au,  5-Au) :   0.1289 
B(  4-Au,  7-Au) :   0.1644 B(  4-Au, 12-Au) :   0.1783 B(  4-Au, 13-Au) :   0.3044 
B(  4-Au, 14-Fe) :   0.3420 B(  5-Au, 14-Fe) :   0.5431 B(  6-Au,  8-Au) :   0.1402 
B(  6-Au,  9-Au) :   0.2258 B(  6-Au, 10-Au) :   0.1628 B(  6-Au, 11-Au) :   0.3040 
B(  6-Au, 14-Fe) :   0.3417 B(  7-Au, 10-Au) :   0.4573 B(  7-Au, 12-Au) :   0.1627 
B(  7-Au, 13-Au) :   0.3830 B(  7-Au, 14-Fe) :   0.4192 B(  8-Au,  9-Au) :   0.1769 
B(  8-Au, 12-Au) :   0.1415 B(  8-Au, 14-Fe) :   0.5478 B(  9-Au, 12-Au) :   0.2284 
B(  9-Au, 14-Fe) :   0.4314 B( 10-Au, 11-Au) :   0.3832 B( 10-Au, 14-Fe) :   0.4172 
B( 12-Au, 13-Au) :   0.3048 B( 12-Au, 14-Fe) :   0.3427 

-------
TIMINGS
-------

Total SCF time: 0 days 0 hours 12 min 5 sec 

Total time                  ....     725.959 sec
Sum of individual times     ....     718.716 sec  ( 99.0%)

Fock matrix formation       ....     684.580 sec  ( 94.3%)
  Split-RI-J                ....      87.675 sec  ( 12.8% of F)
  Chain of spheres X        ....     486.582 sec  ( 71.1% of F)
  XC integration            ....     108.744 sec  ( 15.9% of F)
    Basis function eval.    ....       9.382 sec  (  8.6% of XC)
    Density eval.           ....      41.259 sec  ( 37.9% of XC)
    XC-Functional eval.     ....       0.505 sec  (  0.5% of XC)
    XC-Potential eval.      ....      39.687 sec  ( 36.5% of XC)
Diagonalization             ....       7.807 sec  (  1.1%)
Density matrix formation    ....       2.557 sec  (  0.4%)
Population analysis         ....       0.316 sec  (  0.0%)
Initial guess               ....       0.448 sec  (  0.1%)
Orbital Transformation      ....      17.073 sec  (  2.4%)
Orbital Orthonormalization  ....       0.397 sec  (  0.1%)
DIIS solution               ....       3.005 sec  (  0.4%)
Grid generation             ....       2.906 sec  (  0.4%)

Maximum memory used throughout the entire SCF-calculation: 139.6 MB


           ************************************************************
           *        Program running with 16 parallel MPI-processes    *
           *              working on a common directory               *
           ************************************************************

------------------------------------------------------------------------------
                                ORCA  MP2 
------------------------------------------------------------------------------

Freezing NCore=10 chemical core electrons

   <<< Use J-auxbasis for calculation of Separable RI-J derivative contributions (Dim=1335) >>> 


-------------
RI-MP2 ENERGY
-------------
Dimension of the basis                    ...  605
Memory devoted to MP2                     ...  256 MB   
Data format for buffers                   ... DOUBLE
Compression type for matrix containers    ... UNCOMPRESSED
Overall scaling of the MP2 energy         ...   2.700e-01
Calculating two index integrals           ... done (    0.063 sec)
Cholesky decomposition of V**-1           ... done (    0.568 sec)

-----------------
RI-TRANSFORMATION (AUX index driven)
-----------------

Dimension of the orbital-basis         ... 605
Dimension of the aux-basis             ... 2296
Transformation of internal/external MOs...    5- 146 to  147- 604
Number Format for Storage              ... Double (8 Byte)
Integral mode                          ... Direct

First Phase: integral generation and transformation of MO indices
  Aux angular momentum 0               ... done (    0.180 sec)
  Aux angular momentum 1               ... done (    0.441 sec)
  Aux angular momentum 2               ... done (    0.641 sec)
  Aux angular momentum 3               ... done (    0.649 sec)
  Aux angular momentum 4               ... done (    0.529 sec)
  Aux angular momentum 5               ... done (    0.453 sec)
Closing buffer VIA ( 1.11 GB; CompressionRatio= 1.00)
  Phase 1 completed in     3.049 sec
Second Phase: sorting and transformation of aux index

IA-Transformation
Memory available                       ... 163 MB 
Max. # MO pairs treated in a batch     ... 9    
# of internal orbitals                 ... 142
# batches for internal orbitals        ... 1
Closing buffer IAV ( 1.11 GB; CompressionRatio= 1.00)
(ia|v) transformation done in     2.864 sec

  Phase 2 completed in     3.041 sec
RI-Integral transformation completed in     6.091 sec

-----------------
RI-TRANSFORMATION (AUX index driven)
-----------------

Dimension of the orbital-basis         ... 605
Dimension of the aux-basis             ... 2296
Transformation of internal/external MOs...    5- 144 to  145- 604
Number Format for Storage              ... Double (8 Byte)
Integral mode                          ... Direct

First Phase: integral generation and transformation of MO indices
  Aux angular momentum 0               ... done (    0.180 sec)
  Aux angular momentum 1               ... done (    0.438 sec)
  Aux angular momentum 2               ... done (    0.639 sec)
  Aux angular momentum 3               ... done (    0.661 sec)
  Aux angular momentum 4               ... done (    0.533 sec)
  Aux angular momentum 5               ... done (    0.456 sec)
Closing buffer VIA ( 1.10 GB; CompressionRatio= 1.00)
  Phase 1 completed in     3.062 sec
Second Phase: sorting and transformation of aux index

IA-Transformation
Memory available                       ... 163 MB 
Max. # MO pairs treated in a batch     ... 9    
# of internal orbitals                 ... 140
# batches for internal orbitals        ... 1
Closing buffer IAV ( 1.10 GB; CompressionRatio= 1.00)
(ia|v) transformation done in     2.966 sec

  Phase 2 completed in     3.143 sec
RI-Integral transformation completed in     6.206 sec
Opening buffers                              ... done

Starting loop over batches of integrals:

Operator 0  - window                       ... (  5-146)x(147-604)
Operator 0  - Memory available             ...   256 MB
Operator 0  - Memory needed per MO         ...   8.0 MB
Operator 0  - Number of orbitals per batch ... 9
Operator 0  - Number of batches            ... 1

OPERATOR  0   PASS   0:  MOs     5 ...   13 +   14 ...   22 +   23 ...   31 +   32 ...   40
                            +   41 ...   49 +   50 ...   58 +   59 ...   67 +   68 ...   76
                            +   77 ...   85 +   86 ...   94 +   95 ...  103 +  104 ...  112
                            +  113 ...  121 +  122 ...  130 +  131 ...  139 +  140 ...  146
  Reading integrals       ... ok
  Internal MO   7
  Internal MO  10
  Internal MO  13

Operator 1  - window                       ... (  5-144)x(145-604)
Operator 1  - Memory available             ...   256 MB
Operator 1  - Memory needed per MO         ...   8.1 MB
Operator 1  - Number of orbitals per batch ... 9
Operator 1  - Number of batches            ... 1

OPERATOR  1   PASS   0:  MOs     5 ...   13 +   14 ...   22 +   23 ...   31 +   32 ...   40
                            +   41 ...   49 +   50 ...   58 +   59 ...   67 +   68 ...   76
                            +   77 ...   85 +   86 ...   94 +   95 ...  103 +  104 ...  112
                            +  113 ...  121 +  122 ...  130 +  131 ...  139 +  140 ...  144
  Reading integrals       ... ok
  Internal MO   7
  Internal MO  10
  Internal MO  13
Time spent in pair loops =   212.024 sec
Deleting buffer (Ka|jb)[aa] ...done
Deleting buffer (Ka|jb)[ba] ...done
Deleting buffer (Ka|jb)[ab] ...done
Deleting buffer (Ka|jb)[bb] ...done

Correlation energy components}
 E2 and T2 for alpha/alpha pairs :     -0.425029124 Eh      0.000000000
 E2 and T2 for beta/beta   pairs :     -0.424696122 Eh      0.000000000
 E2 and T2 for alpha/beta  pairs :     -1.441113058 Eh      0.000000000


-----------------------------------------------
 RI-MP2 CORRELATION ENERGY:     -2.290838304 Eh
-----------------------------------------------


-------
TIMINGS
-------

Total time                :  284.904 sec
Integral trafo            :   12.330 sec (  4.3%)
I/O of integrals          :    0.131 sec (  0.0%)
K(i,j) Operators          :  140.418 sec ( 49.3%)
T(i,j) pair energies      :    2.018 sec (  0.7%)
V-calculation             :    0.063 sec (  0.0%)
V**(-1/2)                 :    0.568 sec (  0.2%)
Gamma(ia|P)               :    0.000 sec (  0.0%)
Gamma-Trafo               :    0.000 sec (  0.0%)
D(virtual)                :    0.000 sec (  0.0%)
D(internal)               :    0.000 sec (  0.0%)
W(virtual)                :    0.000 sec (  0.0%)
W(internal)               :    0.000 sec (  0.0%)
L(virtual)                :    0.000 sec (  0.0%)
L(internal)               :    0.000 sec (  0.0%)
G(D)                      :    0.000 sec (  0.0%)
G(Z)                      :    0.000 sec (  0.0%)
Z-Vector Solution         :    0.000 sec (  0.0%)
3-Index Derivative        :    0.000 sec (  0.0%)
2-Index Derivative        :    0.000 sec (  0.0%)
Separable Gradient (RIJ)  :    0.000 sec (  0.0%)
Separable Gradient (COSX) :    0.000 sec (  0.0%)


---------------------------------------
MP2 TOTAL ENERGY:    -3161.739632183 Eh
---------------------------------------

Maximum memory used throughout the entire MP2-calculation: 220.2 MB

-------------------------   --------------------
FINAL SINGLE POINT ENERGY     -3161.739632182625
-------------------------   --------------------


                            ***************************************
                            *     ORCA property calculations      *
                            ***************************************


  WARNING: The energy has been calculated at the MP2 level but the densities
           used in the property calculations are still SCF densities
           MP2 response densities have not been calculated 
           use %mp2 Density relaxed end
           or  %mp2 Density unrelaxed end

                                    ---------------------
                                    Active property flags
                                    ---------------------
   (+) Dipole Moment


------------------------------------------------------------------------------
                       ORCA ELECTRIC PROPERTIES CALCULATION
------------------------------------------------------------------------------

Dipole Moment Calculation                       ... on
Quadrupole Moment Calculation                   ... off
Polarizability Calculation                      ... off
GBWName                                         ... b2plyp_job2.gbw
Electron density                                ... b2plyp_job2.scfp
The origin for moment calculation is the CENTER OF MASS  = (15.033981, 15.632579 14.328486)

-------------
DIPOLE MOMENT
-------------
                                X             Y             Z
Electronic contribution:      1.43496      -5.77865       3.98530
Nuclear contribution   :     -1.39614       5.64648      -3.90065
                        -----------------------------------------
Total Dipole Moment    :      0.03882      -0.13216       0.08465
                        -----------------------------------------
Magnitude (a.u.)       :      0.16168
Magnitude (Debye)      :      0.41095



--------------------
Rotational spectrum 
--------------------
 
Rotational constants in cm-1:     0.001299     0.000949     0.000904 
Rotational constants in MHz :    38.950089    28.457992    27.110945 

 Dipole components along the rotational axes: 
x,y,z [a.u.] :    -0.008128     0.161413     0.004427 
x,y,z [Debye]:    -0.020661     0.410279     0.011252 

 

Timings for individual modules:

Sum of individual times         ...     1025.466 sec (=  17.091 min)
GTO integral calculation        ...       13.763 sec (=   0.229 min)   1.3 %
SCF iterations                  ...      726.196 sec (=  12.103 min)  70.8 %
MP2 module                      ...      285.507 sec (=   4.758 min)  27.8 %



                             ****ORCA TERMINATED NORMALLY****
TOTAL RUN TIME: 0 days 0 hours 34 minutes 17 seconds 506 msec
