
                                 *****************
                                 * O   R   C   A *
                                 *****************

                                            #,                                       
                                            ###                                      
                                            ####                                     
                                            #####                                    
                                            ######                                   
                                           ########,                                 
                                     ,,################,,,,,                         
                               ,,#################################,,                 
                          ,,##########################################,,             
                       ,#########################################, ''#####,          
                    ,#############################################,,   '####,        
                  ,##################################################,,,,####,       
                ,###########''''           ''''###############################       
              ,#####''   ,,,,##########,,,,          '''####'''          '####       
            ,##' ,,,,###########################,,,                        '##       
           ' ,,###''''                  '''############,,,                           
         ,,##''                                '''############,,,,        ,,,,,,###''
      ,#''                                            '''#######################'''  
     '                                                          ''''####''''         
             ,#######,   #######,   ,#######,      ##                                
            ,#'     '#,  ##    ##  ,#'     '#,    #''#        ######   ,####,        
            ##       ##  ##   ,#'  ##            #'  '#       #        #'  '#        
            ##       ##  #######   ##           ,######,      #####,   #    #        
            '#,     ,#'  ##    ##  '#,     ,#' ,#      #,         ##   #,  ,#        
             '#######'   ##     ##  '#######'  #'      '#     #####' # '####'        



                  #######################################################
                  #                        -***-                        #
                  #          Department of theory and spectroscopy      #
                  #    Directorship and core code : Frank Neese         #
                  #        Max Planck Institute fuer Kohlenforschung    #
                  #                Kaiser Wilhelm Platz 1               #
                  #                 D-45470 Muelheim/Ruhr               #
                  #                      Germany                        #
                  #                                                     #
                  #                  All rights reserved                #
                  #                        -***-                        #
                  #######################################################


                         Program Version 5.0.3 -  RELEASE  -


 With contributions from (in alphabetic order):
   Daniel Aravena         : Magnetic Suceptibility
   Michael Atanasov       : Ab Initio Ligand Field Theory (pilot matlab implementation)
   Alexander A. Auer      : GIAO ZORA, VPT2 properties, NMR spectrum
   Ute Becker             : Parallelization
   Giovanni Bistoni       : ED, misc. LED, open-shell LED, HFLD
   Martin Brehm           : Molecular dynamics
   Dmytro Bykov           : SCF Hessian
   Vijay G. Chilkuri      : MRCI spin determinant printing, contributions to CSF-ICE
   Dipayan Datta          : RHF DLPNO-CCSD density
   Achintya Kumar Dutta   : EOM-CC, STEOM-CC
   Dmitry Ganyushin       : Spin-Orbit,Spin-Spin,Magnetic field MRCI
   Miquel Garcia          : C-PCM and meta-GGA Hessian, CC/C-PCM, Gaussian charge scheme
   Yang Guo               : DLPNO-NEVPT2, F12-NEVPT2, CIM, IAO-localization
   Andreas Hansen         : Spin unrestricted coupled pair/coupled cluster methods
   Benjamin Helmich-Paris : MC-RPA, TRAH-SCF, COSX integrals
   Lee Huntington         : MR-EOM, pCC
   Robert Izsak           : Overlap fitted RIJCOSX, COSX-SCS-MP3, EOM
   Marcus Kettner         : VPT2
   Christian Kollmar      : KDIIS, OOCD, Brueckner-CCSD(T), CCSD density, CASPT2, CASPT2-K
   Simone Kossmann        : Meta GGA functionals, TD-DFT gradient, OOMP2, MP2 Hessian
   Martin Krupicka        : Initial AUTO-CI
   Lucas Lang             : DCDCAS
   Marvin Lechner         : AUTO-CI (C++ implementation), FIC-MRCC
   Dagmar Lenk            : GEPOL surface, SMD
   Dimitrios Liakos       : Extrapolation schemes; Compound Job, initial MDCI parallelization
   Dimitrios Manganas     : Further ROCIS development; embedding schemes
   Dimitrios Pantazis     : SARC Basis sets
   Anastasios Papadopoulos: AUTO-CI, single reference methods and gradients
   Taras Petrenko         : DFT Hessian,TD-DFT gradient, ASA, ECA, R-Raman, ABS, FL, XAS/XES, NRVS
   Peter Pinski           : DLPNO-MP2, DLPNO-MP2 Gradient
   Christoph Reimann      : Effective Core Potentials
   Marius Retegan         : Local ZFS, SOC
   Christoph Riplinger    : Optimizer, TS searches, QM/MM, DLPNO-CCSD(T), (RO)-DLPNO pert. Triples
   Tobias Risthaus        : Range-separated hybrids, TD-DFT gradient, RPA, STAB
   Michael Roemelt        : Original ROCIS implementation
   Masaaki Saitow         : Open-shell DLPNO-CCSD energy and density
   Barbara Sandhoefer     : DKH picture change effects
   Avijit Sen             : IP-ROCIS
   Kantharuban Sivalingam : CASSCF convergence, NEVPT2, FIC-MRCI
   Bernardo de Souza      : ESD, SOC TD-DFT
   Georgi Stoychev        : AutoAux, RI-MP2 NMR, DLPNO-MP2 response
   Willem Van den Heuvel  : Paramagnetic NMR
   Boris Wezisla          : Elementary symmetry handling
   Frank Wennmohs         : Technical directorship


 We gratefully acknowledge several colleagues who have allowed us to
 interface, adapt or use parts of their codes:
   Stefan Grimme, W. Hujo, H. Kruse, P. Pracht,  : VdW corrections, initial TS optimization,
                  C. Bannwarth, S. Ehlert          DFT functionals, gCP, sTDA/sTD-DF
   Ed Valeev, F. Pavosevic, A. Kumar             : LibInt (2-el integral package), F12 methods
   Garnet Chan, S. Sharma, J. Yang, R. Olivares  : DMRG
   Ulf Ekstrom                                   : XCFun DFT Library
   Mihaly Kallay                                 : mrcc  (arbitrary order and MRCC methods)
   Jiri Pittner, Ondrej Demel                    : Mk-CCSD
   Frank Weinhold                                : gennbo (NPA and NBO analysis)
   Christopher J. Cramer and Donald G. Truhlar   : smd solvation model
   Lars Goerigk                                  : TD-DFT with DH, B97 family of functionals
   V. Asgeirsson, H. Jonsson                     : NEB implementation
   FAccTs GmbH                                   : IRC, NEB, NEB-TS, DLPNO-Multilevel, CI-OPT
                                                   MM, QMMM, 2- and 3-layer-ONIOM, Crystal-QMMM,
                                                   LR-CPCM, SF, NACMEs, symmetry and pop. for TD-DFT,
                                                   nearIR, NL-DFT gradient (VV10), updates on ESD,
                                                   ML-optimized integration grids
   S Lehtola, MJT Oliveira, MAL Marques          : LibXC Library
   Liviu Ungur et al                             : ANISO software


 Your calculation uses the libint2 library for the computation of 2-el integrals
 For citations please refer to: http://libint.valeyev.net

 Your ORCA version has been built with support for libXC version: 5.1.0
 For citations please refer to: https://tddft.org/programs/libxc/

 This ORCA versions uses:
   CBLAS   interface :  Fast vector & matrix operations
   LAPACKE interface :  Fast linear algebra routines
   SCALAPACK package :  Parallel linear algebra routines
   Shared memory     :  Shared parallel matrices
   BLAS/LAPACK       :  OpenBLAS 0.3.15  USE64BITINT DYNAMIC_ARCH NO_AFFINITY Haswell SINGLE_THREADED
        Core in use  :  Haswell
   Copyright (c) 2011-2014, The OpenBLAS Project




***************************************
The coordinates will be read from file: 8.xyz
***************************************


================================================================================

cite the ECPs for Au [Def2-ECP] as follows:
Ce-Yb(ecp-28): M. Dolg, H. Stoll, H.Preuss, J. Chem. Phys., 1989, 90, 1730-1734.
Y-Cd(ecp-28), Hf-Hg(ecp-46): D. Andrae,U. Haeussermann, M. Dolg, H. Stoll, H. Preuss, Theor. Chim. Acta, 1990, 77, 123-141.
In-Sb(ecp-28), Tl-Bi(ecp-46): B. Metz, H. Stoll, M. Dolg, J. Chem. Phys., 2000, 113, 2563-2569.
Te-Xe(ecp-28), Po-Rn(ecp-46): K. A. Peterson, D. Figgen, E. Goll, H. Stoll, M. Dolg, J. Chem. Phys., 2003, 119, 11113-11123.
Rb(ecp-28), Cs(ecp-46): T. Leininger, A. Nicklass, W. Kuechle, H. Stoll, M. Dolg, A. Bergner, Chem. Phys. Lett., 1996, 255, 274-280.
Sr(ecp-28), Ba(ecp-46): M. Kaupp, P. V. Schleyer, H. Stoll and H. Preuss, J. Chem. Phys., 1991, 94, 1360-1366.
La(ecp-46): M. Dolg, H. Stoll, A. Savin, H. Preuss, Theor. Chim. Acta, 1989, 75, 173-194.
Lu(ecp-28): X. Cao, M. Dolg, J. Chem. Phys., 2001, 115, 7348-7355.

ECP parameters for Au [Def2-ECP] have been obtained from:
TURBOMOLE (7.0.2)

----- Orbital basis set information -----
Your calculation utilizes the basis: def2-TZVP
   F. Weigend and R. Ahlrichs, Phys. Chem. Chem. Phys. 7, 3297 (2005).

----- AuxJ basis set information -----
Your calculation utilizes the auxiliary basis: def2/J
   F. Weigend, Phys. Chem. Chem. Phys. 8, 1057 (2006).

================================================================================
                                        WARNINGS
                       Please study these warnings very carefully!
================================================================================


WARNING: your system is open-shell and RHF/RKS was chosen
  ===> : WILL SWITCH to UHF/UKS


WARNING: Geometry Optimization
  ===> : Switching off AutoStart
         For restart on a previous wavefunction, please use MOREAD

INFO   : the flag for use of the SHARK integral package has been found!

================================================================================
                                       INPUT FILE
================================================================================
NAME = pbe.inp
|  1> %pal nprocs 1 end 
|  2> 
|  3> !PBE def2-TZVP OPT UNO
|  4> !SLOWCONV KDIIS 
|  5> 
|  6> %geom maxiter 300 end
|  7> 
|  8> *xyzfile 0 5 8.xyz                           ****END OF INPUT****
================================================================================

                       *****************************
                       * Geometry Optimization Run *
                       *****************************

Geometry optimization settings:
Update method            Update   .... BFGS
Choice of coordinates    CoordSys .... Z-matrix Internals
Initial Hessian          InHess   .... Almoef's Model

Convergence Tolerances:
Energy Change            TolE     ....  5.0000e-06 Eh
Max. Gradient            TolMAXG  ....  3.0000e-04 Eh/bohr
RMS Gradient             TolRMSG  ....  1.0000e-04 Eh/bohr
Max. Displacement        TolMAXD  ....  4.0000e-03 bohr
RMS Displacement         TolRMSD  ....  2.0000e-03 bohr
Strict Convergence                ....  False
------------------------------------------------------------------------------
                        ORCA OPTIMIZATION COORDINATE SETUP
------------------------------------------------------------------------------

The optimization will be done in new redundant internal coordinates
Making redundant internal coordinates   ...  (new redundants) done
Evaluating the initial hessian          ...  (Almloef) done
Evaluating the coordinates              ...  done
Calculating the B-matrix                .... done
Calculating the G-matrix                .... done
Diagonalizing the G-matrix              .... done
The first mode is                       ....   55
The number of degrees of freedom        ....   27

    -----------------------------------------------------------------
                    Redundant Internal Coordinates


    -----------------------------------------------------------------
         Definition                    Initial Value    Approx d2E/dq
    -----------------------------------------------------------------
      1. B(Au  7,Au  6)                  2.7662         0.007715   
      2. B(Au  8,Au  7)                  2.7155         0.009294   
      3. B(Au  9,Au  7)                  2.7444         0.008356   
      4. B(Fe 10,Au  2)                  2.7007         0.071342   
      5. B(Fe 10,Au  5)                  2.5405         0.128485   
      6. B(Fe 10,Au  6)                  2.8146         0.046942   
      7. B(Fe 10,Au  4)                  2.4653         0.169374   
      8. B(Fe 10,Au  9)                  2.8777         0.037232   
      9. B(Fe 10,Au  8)                  2.7253         0.065162   
     10. B(Fe 10,Au  3)                  2.6093         0.099788   
     11. B(Fe 10,Au  1)                  2.7423         0.061226   
     12. B(Fe 10,Au  0)                  2.5472         0.125363   
     13. A(Au  7,Au  6,Fe 10)          103.2513         0.176733   
     14. A(Au  6,Au  7,Au  9)           66.2491         0.141930   
     15. A(Au  6,Au  7,Au  8)           63.9013         0.143220   
     16. A(Au  8,Au  7,Au  9)           65.3295         0.144208   
     17. A(Au  7,Au  8,Fe 10)          107.0571         0.187559   
     18. A(Au  7,Au  9,Fe 10)          102.1698         0.173766   
     19. A(Au  0,Fe 10,Au  4)          119.3392         0.336261   
     20. A(Au  2,Fe 10,Au  3)           65.6461         0.282080   
     21. A(Au  1,Fe 10,Au  2)           61.6118         0.261871   
     22. A(Au  0,Fe 10,Au  5)          128.7501         0.321272   
     23. A(Au  1,Fe 10,Au  5)           64.2932         0.286494   
     24. A(Au  2,Fe 10,Au  5)           75.0515         0.293448   
     25. A(Au  3,Fe 10,Au  5)           67.8673         0.309581   
     26. A(Au  4,Fe 10,Au  5)          106.3589         0.337642   
     27. A(Au  3,Fe 10,Au  4)          173.0388         0.323816   
     28. A(Au  1,Fe 10,Au  3)          115.0620         0.275512   
     29. A(Au  3,Fe 10,Au  6)           63.3935         0.264628   
     30. A(Au  2,Fe 10,Au  6)          121.9422         0.251783   
     31. A(Au  4,Fe 10,Au  6)          110.7441         0.286970   
     32. A(Au  5,Fe 10,Au  6)           61.5350         0.274969   
     33. A(Au  0,Fe 10,Au  8)          110.9971         0.288186   
     34. A(Au  1,Fe 10,Au  8)          119.4967         0.258362   
     35. A(Au  2,Fe 10,Au  8)          174.0436         0.264326   
     36. A(Au  3,Fe 10,Au  8)          116.9433         0.278161   
     37. A(Au  4,Fe 10,Au  8)           60.6729         0.302224   
     38. A(Au  5,Fe 10,Au  8)          110.8268         0.289298   
     39. A(Au  6,Fe 10,Au  8)           63.1340         0.248478   
     40. A(Au  0,Fe 10,Au  9)           59.5337         0.264485   
     41. A(Au  2,Fe 10,Au  9)          115.0872         0.243464   
     42. A(Au  3,Fe 10,Au  9)           64.7208         0.255653   
     43. A(Au  2,Fe 10,Au  4)          117.4291         0.306642   
     44. A(Au  8,Fe 10,Au  9)           63.3965         0.240329   
     45. A(Au  6,Fe 10,Au  9)           63.8679         0.229502   
     46. A(Au  1,Fe 10,Au  6)          120.5600         0.246245   
     47. A(Au  5,Fe 10,Au  9)          118.8726         0.265465   
     48. A(Au  4,Fe 10,Au  9)          116.9526         0.276853   
     49. A(Au  0,Fe 10,Au  6)          116.1339         0.273936   
     50. A(Au  1,Fe 10,Au  4)           63.8865         0.299239   
     51. A(Au  0,Fe 10,Au  3)           67.5362         0.308356   
     52. A(Au  0,Fe 10,Au  2)           64.4778         0.292313   
     53. A(Au  0,Fe 10,Au  1)          115.8148         0.285397   
     54. D(Au  8,Au  7,Au  6,Fe 10)     35.0484         0.001502   
     55. D(Au  9,Au  7,Au  6,Fe 10)    -37.9594         0.001502   
     56. D(Fe 10,Au  8,Au  7,Au  9)     37.2770         0.001502   
     57. D(Fe 10,Au  8,Au  7,Au  6)    -37.1461         0.001502   
     58. D(Fe 10,Au  9,Au  7,Au  6)     36.8028         0.001502   
     59. D(Fe 10,Au  9,Au  7,Au  8)    -34.1235         0.001502   
     60. D(Au  0,Fe 10,Au  6,Au  7)     66.2998         0.001510   
     61. D(Au  2,Fe 10,Au  9,Au  7)   -151.7853         0.001507   
     62. D(Au  5,Fe 10,Au  6,Au  7)   -171.8921         0.001510   
     63. D(Au  4,Fe 10,Au  6,Au  7)    -74.0033         0.001510   
     64. D(Au  3,Fe 10,Au  9,Au  7)   -108.2241         0.001507   
     65. D(Au  8,Fe 10,Au  6,Au  7)    -35.1712         0.001510   
     66. D(Au  9,Fe 10,Au  6,Au  7)     36.7317         0.001510   
     67. D(Au  0,Fe 10,Au  8,Au  7)    -72.8536         0.001519   
     68. D(Au  5,Fe 10,Au  8,Au  7)     76.8369         0.001519   
     69. D(Au  3,Fe 10,Au  6,Au  7)    110.0983         0.001510   
     70. D(Au  4,Fe 10,Au  8,Au  7)    174.4182         0.001519   
     71. D(Au  3,Fe 10,Au  8,Au  7)      1.8371         0.001519   
     72. D(Au  2,Fe 10,Au  6,Au  7)    141.2493         0.001510   
     73. D(Au  6,Fe 10,Au  8,Au  7)     36.6856         0.001519   
     74. D(Au  9,Fe 10,Au  8,Au  7)    -35.9481         0.001519   
     75. D(Au  0,Fe 10,Au  9,Au  7)    174.0419         0.001507   
     76. D(Au  2,Fe 10,Au  8,Au  7)   -112.6139         0.001519   
     77. D(Au  1,Fe 10,Au  8,Au  7)    148.2942         0.001519   
     78. D(Au  4,Fe 10,Au  9,Au  7)     64.2490         0.001507   
     79. D(Au  5,Fe 10,Au  9,Au  7)    -65.6328         0.001507   
     80. D(Au  6,Fe 10,Au  9,Au  7)    -36.8870         0.001507   
     81. D(Au  8,Fe 10,Au  9,Au  7)     34.6160         0.001507   
     82. D(Au  1,Fe 10,Au  6,Au  7)   -145.1618         0.001510   
    -----------------------------------------------------------------

Number of atoms                         .... 11
Number of degrees of freedom            .... 82

         *************************************************************
         *                GEOMETRY OPTIMIZATION CYCLE   1            *
         *************************************************************
---------------------------------
CARTESIAN COORDINATES (ANGSTROEM)
---------------------------------
  Au    10.705162    5.105480    5.279397
  Au     7.168483    7.588921    6.469648
  Au     7.905757    5.117790    5.410638
  Au     9.412886    3.803663    7.482349
  Au     9.544667    8.853090    7.103878
  Au     7.521982    5.700441    8.528577
  Au     9.966199    5.434753    9.759560
  Au    12.660322    5.905395   10.174058
  Au    11.343347    7.745355    8.672721
  Au    12.060795    5.086326    7.624218
  Fe     9.539339    6.388134    7.145952

----------------------------
CARTESIAN COORDINATES (A.U.)
----------------------------
  NO LB      ZA    FRAG     MASS         X           Y           Z
   0 Au   19.0000*   0   196.966   20.229824    9.647960    9.976614
   1 Au   19.0000*   0   196.966   13.546470   14.340982   12.225863
   2 Au   19.0000*   0   196.966   14.939715    9.671222   10.224625
   3 Au   19.0000*   0   196.966   17.787776    7.187882   14.139591
   4 Au   19.0000*   0   196.966   18.036807   16.729915   13.424384
   5 Au   19.0000*   0   196.966   14.214486   10.772272   16.116674
   6 Au   19.0000*   0   196.966   18.833386   10.270195   18.442895
   7 Au   19.0000*   0   196.966   23.924542   11.159579   19.226183
   8 Au   19.0000*   0   196.966   21.435819   14.636599   16.389068
   9 Au   19.0000*   0   196.966   22.791600    9.611764   14.407685
  10 Fe   26.0000    0    55.850   18.026738   12.071824   13.503892
* core charge reduced due to ECP

--------------------------------
INTERNAL COORDINATES (ANGSTROEM)
--------------------------------
 Au     0   0   0     0.000000000000     0.00000000     0.00000000
 Au     1   0   0     4.482440611407     0.00000000     0.00000000
 Au     2   1   0     2.787752112502    36.80758912     0.00000000
 Au     1   2   3     2.866654067417    72.05296548   294.69266027
 Au     2   1   3     2.765252498602    68.66580260   175.55101521
 Au     2   1   3     2.816115374520    73.95226300    77.09808452
 Au     6   2   1     2.749564537331   120.24582792    53.24468787
 Au     7   6   2     2.766155170717   156.41163455   354.17695435
 Au     5   2   1     2.631272602823   122.11962278   302.23872016
 Au     1   2   3     2.708559768166    99.72613283   236.55093674
 Fe     5   2   1     2.465320458910    62.93265881   329.30787951

---------------------------
INTERNAL COORDINATES (A.U.)
---------------------------
 Au     0   0   0     0.000000000000     0.00000000     0.00000000
 Au     1   0   0     8.470585167125     0.00000000     0.00000000
 Au     2   1   0     5.268088021889    36.80758912     0.00000000
 Au     1   2   3     5.417191108109    72.05296548   294.69266027
 Au     2   1   3     5.225569913499    68.66580260   175.55101521
 Au     2   1   3     5.321686819368    73.95226300    77.09808452
 Au     6   2   1     5.195923963097   120.24582792    53.24468787
 Au     7   6   2     5.227275716584   156.41163455   354.17695435
 Au     5   2   1     4.972384603026   122.11962278   302.23872016
 Au     1   2   3     5.118436179190    99.72613283   236.55093674
 Fe     5   2   1     4.658780499693    62.93265881   329.30787951

---------------------
BASIS SET INFORMATION
---------------------
There are 2 groups of distinct atoms

 Group   1 Type Au  : 8s7p6d1f contracted to 6s4p3d1f pattern {311111/4111/411/1}
 Group   2 Type Fe  : 17s11p7d1f contracted to 6s4p4d1f pattern {842111/6311/4111/1}

Atom   0Au   basis set group =>   1
Atom   1Au   basis set group =>   1
Atom   2Au   basis set group =>   1
Atom   3Au   basis set group =>   1
Atom   4Au   basis set group =>   1
Atom   5Au   basis set group =>   1
Atom   6Au   basis set group =>   1
Atom   7Au   basis set group =>   1
Atom   8Au   basis set group =>   1
Atom   9Au   basis set group =>   1
Atom  10Fe   basis set group =>   2
---------------------------------
AUXILIARY/J BASIS SET INFORMATION
---------------------------------
There are 2 groups of distinct atoms

 Group   1 Type Au  : 11s5p5d3f3g contracted to 8s5p5d2f3g pattern {41111111/11111/11111/21/111}
 Group   2 Type Fe  : 19s5p5d3f3g contracted to 8s5p5d2f3g pattern {121111111/11111/11111/21/111}

Atom   0Au   basis set group =>   1
Atom   1Au   basis set group =>   1
Atom   2Au   basis set group =>   1
Atom   3Au   basis set group =>   1
Atom   4Au   basis set group =>   1
Atom   5Au   basis set group =>   1
Atom   6Au   basis set group =>   1
Atom   7Au   basis set group =>   1
Atom   8Au   basis set group =>   1
Atom   9Au   basis set group =>   1
Atom  10Fe   basis set group =>   2
-------------------------
ECP PARAMETER INFORMATION
-------------------------

 Group 1, Type Au ECP Def2-ECP (replacing 60 core electrons, lmax=3)

Atom   0Au   ECP group =>   1
Atom   1Au   ECP group =>   1
Atom   2Au   ECP group =>   1
Atom   3Au   ECP group =>   1
Atom   4Au   ECP group =>   1
Atom   5Au   ECP group =>   1
Atom   6Au   ECP group =>   1
Atom   7Au   ECP group =>   1
Atom   8Au   ECP group =>   1
Atom   9Au   ECP group =>   1

------------------------------------------------------------------------------
                           ORCA GTO INTEGRAL CALCULATION
                           -- RI-GTO INTEGRALS CHOSEN --
------------------------------------------------------------------------------
------------------------------------------------------------------------------
                   ___                                                        
                  /   \      - P O W E R E D   B Y -                         
                 /     \                                                     
                 |  |  |   _    _      __       _____    __    __             
                 |  |  |  | |  | |    /  \     |  _  \  |  |  /  |          
                  \  \/   | |  | |   /    \    | | | |  |  | /  /          
                 / \  \   | |__| |  /  /\  \   | |_| |  |  |/  /          
                |  |  |   |  __  | /  /__\  \  |    /   |      \           
                |  |  |   | |  | | |   __   |  |    \   |  |\   \          
                \     /   | |  | | |  |  |  |  | |\  \  |  | \   \       
                 \___/    |_|  |_| |__|  |__|  |_| \__\ |__|  \__/        
                                                                              
                      - O R C A' S   B I G   F R I E N D -                    
                                      &                                       
                       - I N T E G R A L  F E E D E R -                       
                                                                              
 v1 FN, 2020, v2 2021                                                         
------------------------------------------------------------------------------


Reading SHARK input file pbe.SHARKINP.tmp ... ok
----------------------
SHARK INTEGRAL PACKAGE
----------------------

Number of atoms                             ...     11
Number of basis functions                   ...    445
Number of shells                            ...    155
Maximum angular momentum                    ...      3
Integral batch strategy                     ... SHARK/LIBINT Hybrid
RI-J (if used) integral strategy            ... SPLIT-RIJ (Revised 2003 algorithm where possible)
Printlevel                                  ...      1
Contraction scheme used                     ... SEGMENTED contraction
Coulomb Range Separation                    ... NOT USED
Exchange Range Separation                   ... NOT USED
Finite Nucleus Model                        ... NOT USED
Auxiliary Coulomb fitting basis             ... AVAILABLE
   # of basis functions in Aux-J            ...    979
   # of shells in Aux-J                     ...    253
   Maximum angular momentum in Aux-J        ...      4
Auxiliary J/K fitting basis                 ... NOT available
Auxiliary Correlation fitting basis         ... NOT available
Auxiliary 'external' fitting basis          ... NOT available
Integral threshold                          ...     2.500000e-11
Primitive cut-off                           ...     2.500000e-12
Primitive pair pre-selection threshold      ...     2.500000e-12

Calculating pre-screening integrals         ... done (  0.2 sec) Dimension = 155
Organizing shell pair data                  ... done (  6.1 sec)
Shell pair information
Total number of shell pairs                 ...     12090
Shell pairs after pre-screening             ...     10118
Total number of primitive shell pairs       ...     33105
Primitive shell pairs kept                  ...     20506
          la=0 lb=0:   1577 shell pairs
          la=1 lb=0:   2320 shell pairs
          la=1 lb=1:    874 shell pairs
          la=2 lb=0:   2004 shell pairs
          la=2 lb=1:   1403 shell pairs
          la=2 lb=2:    580 shell pairs
          la=3 lb=0:    538 shell pairs
          la=3 lb=1:    410 shell pairs
          la=3 lb=2:    352 shell pairs
          la=3 lb=3:     60 shell pairs

Calculating one electron integrals          ... done (  0.0 sec)
Calculating ECP integrals                   ... done (  4.5 sec)
Calculating RI/J V-Matrix + Cholesky decomp.... done (  0.0 sec)
Calculating Nuclear repulsion               ... done (  0.0 sec) ENN=   3255.238280505247 Eh

SHARK setup successfully completed in  11.2 seconds

Maximum memory used throughout the entire GTOINT-calculation: 305.4 MB
-------------------------------------------------------------------------------
                                 ORCA SCF
-------------------------------------------------------------------------------

------------
SCF SETTINGS
------------
Hamiltonian:
 Density Functional     Method          .... DFT(GTOs)
 Exchange Functional    Exchange        .... PBE
   PBE kappa parameter   XKappa         ....  0.804000
   PBE mue parameter    XMuePBE         ....  0.219520
 Correlation Functional Correlation     .... PBE
   PBE beta parameter  CBetaPBE         ....  0.066725
 LDA part of GGA corr.  LDAOpt          .... PW91-LDA
 Gradients option       PostSCFGGA      .... off
   Density functional embedding theory  .... OFF
   NL short-range parameter             ....  6.400000
 RI-approximation to the Coulomb term is turned on
   Number of AuxJ basis functions       .... 979


General Settings:
 Integral files         IntName         .... pbe
 Hartree-Fock type      HFTyp           .... UHF
 Total Charge           Charge          ....    0
 Multiplicity           Mult            ....    5
 Number of Electrons    NEL             ....  216
 Basis Dimension        Dim             ....  445
 Nuclear Repulsion      ENuc            ....   3255.2382805052 Eh

Convergence Acceleration:
 DIIS                   CNVDIIS         .... off
 Trust-Rad. Augm. Hess. CNVTRAH         .... auto
   Auto Start mean grad. ratio tolernc. ....  1.125000
   Auto Start start iteration           ....    20
   Auto Start num. interpolation iter.  ....    10
   Max. Number of Micro iterations      ....    16
   Max. Number of Macro iterations      .... Maxiter - #DIIS iter
   Number of Davidson start vectors     ....     2
   Converg. threshold I  (grad. norm)   ....   1.000e-05
   Converg. threshold II (energy diff.) ....   1.000e-08
   Grad. Scal. Fac. for Micro threshold ....   0.100
   Minimum threshold for Micro iter.    ....   0.010
   NR start threshold (gradient norm)   ....   0.001
   Initial trust radius                 ....   0.400
   Minimum AH scaling param. (alpha)    ....   1.000
   Maximum AH scaling param. (alpha)    .... 1000.000
   Orbital update algorithm             .... Taylor
   White noise on init. David. guess    .... on
   Maximum white noise                  ....   0.010
   Quad. conv. algorithm                .... NR
 SOSCF                  CNVSOSCF        .... off
 Level Shifting         CNVShift        .... off
 Zerner damping         CNVZerner       .... off
 Static damping         CNVDamp         .... off
 Fernandez-Rico         CNVRico         .... off

SCF Procedure:
 Maximum # iterations   MaxIter         ....   125
 SCF integral mode      SCFMode         .... Direct
   Integral package                     .... SHARK and LIBINT hybrid scheme
 Reset frequency        DirectResetFreq ....    20
 Integral Threshold     Thresh          ....  2.500e-11 Eh
 Primitive CutOff       TCut            ....  2.500e-12 Eh

Convergence Tolerance:
 Convergence Check Mode ConvCheckMode   .... Total+1el-Energy
 Convergence forced     ConvForced      .... 0
 Energy Change          TolE            ....  1.000e-08 Eh
 1-El. energy change                    ....  1.000e-05 Eh


Diagonalization of the overlap matrix:
Smallest eigenvalue                        ... 5.565e-04
Time for diagonalization                   ...    0.022 sec
Threshold for overlap eigenvalues          ... 1.000e-08
Number of eigenvalues below threshold      ... 0
Time for construction of square roots      ...    0.010 sec
Total time needed                          ...    0.033 sec

Time for model grid setup =    0.729 sec

------------------------------
INITIAL GUESS: MODEL POTENTIAL
------------------------------
Loading Hartree-Fock densities                     ... done
  calling /media/Programs/ORCA501/orca pbe_atom79.inp > pbe_atom79.out in order to generate an atomic fitting density for atom 0 (Au with ECP) on-the-fly... 
    atom 0 (Au), assumed electronic state with S=2: 1s2 2s2 2p6 3s2 3p6 4s2 3d10 4p6 5s2 4d10 5p6 6s1 4f14 5d10           ... done
Calculating cut-offs                               ... done
Initializing the effective Hamiltonian             ... done
Setting up the integral package (SHARK)            ... done
Starting the Coulomb interaction                   ... done (   1.0 sec)
Reading the grid                                   ... done
Mapping shells                                     ... done
Starting the XC term evaluation                    ... done (   1.3 sec)
  promolecular density results
     # of electrons  =    816.011955978
     EX              =  -3712.309047250
     EC              =    -49.568683004
     EX+EC           =  -3761.877730254
Transforming the Hamiltonian                       ... done (   0.0 sec)
Diagonalizing the Hamiltonian                      ... done (   0.0 sec)
Back transforming the eigenvectors                 ... done (   0.0 sec)
Now organizing SCF variables                       ... done
                      ------------------
                      INITIAL GUESS DONE (   3.6 sec)
                      ------------------
-------------------
DFT GRID GENERATION
-------------------

General Integration Accuracy     IntAcc      ... 4.388
Radial Grid Type                 RadialGrid  ... OptM3 with GC (2021)
Angular Grid (max. ang.)         AngularGrid ... 4 (Lebedev-302)
Angular grid pruning method      GridPruning ... 4 (adaptive)
Weight generation scheme         WeightScheme... Becke
Basis function cutoff            BFCut       ... 1.0000e-11
Integration weight cutoff        WCut        ... 1.0000e-14
Angular grids for H and He will be reduced by one unit
Partially contracted basis set               ... off
Rotationally invariant grid construction     ... off

Total number of grid points                  ...   123275
Total number of batches                      ...     1931
Average number of points per batch           ...       63
Average number of grid points per atom       ...    11207
Time for grid setup =    1.852 sec

--------------
SCF ITERATIONS
--------------
ITER       Energy         Delta-E        Max-DP      RMS-DP      [F,P]   Gradient Norm
               ***  Starting incremental Fock matrix formation  ***
                             ****Resetting KDIIS****
                             ****Turning on KDIIS(Cayley)****
  0  -2619.0740124782   0.000000000000 0.39840667  0.00228766  0.3181944   0.251605945
  1  -2620.8292606507  -1.755248172568 0.54070578  0.00212705  0.2848256   0.165887269
  2  -2621.3257204047  -0.496459754022 0.12991842  0.00137968  0.2249301   0.123061800
  3  -2621.5299415513  -0.204221146530 0.17224212  0.00168242  0.1317339   0.073891690
  4  -2621.5952812193  -0.065339667991 0.05012041  0.00064263  0.0303258   0.025007867
  5  -2621.6442040034  -0.048922784179 0.26460832  0.00106464  0.0235787   0.010251497
  6  -2621.6740849407  -0.029880937222 0.05698120  0.00078405  0.0290834   0.012593622
  7  -2621.6980675817  -0.023982641027 0.02746913  0.00029991  0.0119142   0.008498290
  8  -2621.7035541586  -0.005486576853 0.02465277  0.00025954  0.0093753   0.006433760
  9  -2621.7101135847  -0.006559426104 0.01307513  0.00021477  0.0074634   0.003698440
 10  -2621.7134424609  -0.003328876242 0.01654841  0.00025029  0.0062207   0.004048023
 11  -2621.7166801139  -0.003237652962 0.01275189  0.00013239  0.0030617   0.001998228
 12  -2621.7173044280  -0.000624314107 0.01569661  0.00008002  0.0016515   0.002038141
 13  -2621.7172974202   0.000007007804 0.00598172  0.00006042  0.0040113   0.002310451
 14  -2621.7176707920  -0.000373371854 0.00719696  0.00004900  0.0014044   0.001190657
 15  -2621.7177667394  -0.000095947419 0.00372888  0.00003363  0.0013569   0.001188923
 16  -2621.7178730985  -0.000106359036 0.00307213  0.00002105  0.0011202   0.000743458
 17  -2621.7179362608  -0.000063162314 0.00140303  0.00002508  0.0010434   0.000446913
 18  -2621.7180198369  -0.000083576081 0.00220406  0.00001781  0.0009309   0.000366033
 19  -2621.7180511905  -0.000031353615 0.00145623  0.00001708  0.0009263   0.000555704
               *** Restarting incremental Fock matrix formation ***
                             ****Resetting KDIIS****
 20  -2621.7180978518  -0.000046661295 0.00041622  0.00000379  0.0007929   0.000445818
 21  -2621.7181120854  -0.000014233657 0.00037790  0.00000431  0.0008273   0.000289150
 22  -2621.7181260299  -0.000013944487 0.00052906  0.00000816  0.0008262   0.000241288

 WARNING: the maximum gradient error descreased on average only by a factor   1.1
          during the last 20 iterations

                      *** Initiating the TRAH-SCF procedure ***

                    *** KDIIS BlockDiag ( 0.045 sec) ***

TRAH GRID
---------

General Integration Accuracy     IntAcc      ... 3.467
Radial Grid Type                 RadialGrid  ... OptM3 with GC (2021)
Angular Grid (max. ang.)         AngularGrid ... 1 (Lebedev-50)
Angular grid pruning method      GridPruning ... 4 (adaptive)
Weight generation scheme         WeightScheme... Becke
Basis function cutoff            BFCut       ... 1.0000e-11
Integration weight cutoff        WCut        ... 1.0000e-14
Angular grids for H and He will be reduced by one unit
Partially contracted basis set               ... off
Rotationally invariant grid construction     ... off

Total number of grid points                  ...    53232
Total number of batches                      ...      838
Average number of points per batch           ...       63
Average number of grid points per atom       ...     4839

 --------------------------------------------------------------------------------------------
   Iter.        energy            ||Error||_2        Shift      TRadius  Mac/Mic        Rej.
 --------------------------------------------------------------------------------------------
WARNING: 1 diagonal Hessian elements are negative!
    0      -2621.718152117156     3.103370e-03                     0.400 (TRAH MAcro)   No
WARNING : small    HOMO - LUMO gap : (op = alpha) 0.014245
WARNING : negative HOMO - LUMO gap : (op =  beta) -0.001437
    0     dE    -2.286122e-06     9.119751e-03    -2.2861e-06      0.001 (TRAH MIcro)
    0     dE    -2.596791e-04     9.663007e-03    -2.5629e-04      0.115 (TRAH MIcro)
    0     dE    -3.119554e-04     1.129781e-02    -3.0596e-04      0.140 (TRAH MIcro)
    0     dE    -3.494960e-04     7.790223e-03    -3.4084e-04      0.159 (TRAH MIcro)
    0     dE    -4.234827e-04     7.952320e-03    -4.0586e-04      0.208 (TRAH MIcro)
    0     dE    -4.882454e-04     7.671499e-03    -4.5812e-04      0.256 (TRAH MIcro)
    0     dE    -5.364528e-04     4.768741e-03    -4.9270e-04      0.298 (TRAH MIcro)
    0     dE    -5.507871e-04     3.208737e-03    -5.0212e-04      0.311 (TRAH MIcro)
    0     dE    -5.608712e-04     2.899565e-03    -5.0847e-04      0.321 (TRAH MIcro)
    0     dE    -5.669654e-04     2.594659e-03    -5.1197e-04      0.328 (TRAH MIcro)
    0     dE    -5.698587e-04     2.061860e-03    -5.1373e-04      0.331 (TRAH MIcro)
    0     dE    -5.729572e-04     2.605667e-03    -5.1573e-04      0.333 (TRAH MIcro)
    0     dE    -5.784799e-04     3.107887e-03    -5.1947e-04      0.337 (TRAH MIcro)
    0     dE    -5.868467e-04     3.138526e-03    -5.2554e-04      0.342 (TRAH MIcro)
WARNING: 1 diagonal Hessian elements are negative!
    1      -2621.718392978358     2.131935e-02                     0.400 (TRAH MAcro)   No
WARNING : small    HOMO - LUMO gap : (op = alpha) 0.015587
WARNING : negative HOMO - LUMO gap : (op =  beta) -0.004193
    1     dE    -6.710531e-05     5.107231e-02    -6.7105e-05      0.003 (TRAH MIcro)
    1     dE    -1.331032e-04     1.063653e-02    -1.3307e-04      0.015 (TRAH MIcro)
    1     dE    -1.792337e-04     5.239900e-03    -1.7897e-04      0.038 (TRAH MIcro)
    1     dE    -2.027354e-04     5.432916e-03    -2.0211e-04      0.055 (TRAH MIcro)
    1     dE    -2.111646e-04     5.106569e-03    -2.1028e-04      0.065 (TRAH MIcro)
    1     dE    -2.199859e-04     3.163326e-03    -2.1861e-04      0.079 (TRAH MIcro)
    1     dE    -2.226230e-04     2.640277e-03    -2.2107e-04      0.084 (TRAH MIcro)
    1     dE    -2.248235e-04     2.320717e-03    -2.2308e-04      0.088 (TRAH MIcro)
    1     dE    -2.274487e-04     3.882256e-03    -2.2551e-04      0.093 (TRAH MIcro)
    1     dE    -2.318402e-04     4.293398e-03    -2.2967e-04      0.097 (TRAH MIcro)
    1     dE    -2.449300e-04     6.363200e-03    -2.4212e-04      0.108 (TRAH MIcro)
    1     dE    -3.894701e-04     4.149906e-02    -3.6468e-04      0.261 (TRAH MIcro)
    1     dE    -1.167035e-03     4.956843e-02    -4.5262e-03      0.400 (TRAH MIcro)
    1     dE    -1.017716e-03     1.191726e-02    -8.5903e-03      0.277 (TRAH MIcro)
    2      -2621.719163013327     1.987728e-02                     0.480 (TRAH MAcro)   No
WARNING : small    HOMO - LUMO gap : (op = alpha) 0.016008
WARNING : small    HOMO - LUMO gap : (op =  beta) 0.003996
    2     dE    -2.391558e-05     6.355304e-02    -2.3916e-05      0.001 (TRAH MIcro)
    2     dE    -3.216871e-04     3.002259e-02    -3.1920e-04      0.088 (TRAH MIcro)
    2     dE    -1.361915e-03     3.822281e-02    -1.1143e-03      0.471 (TRAH MIcro)
    2     dE    -2.046733e-03     2.547096e-02    -3.9358e-03      0.480 (TRAH MIcro)
    2     dE    -2.509752e-03     2.034167e-02    -6.0552e-03      0.480 (TRAH MIcro)
    2     dE    -2.645532e-03     1.212842e-02    -6.5720e-03      0.480 (TRAH MIcro)
    2     dE    -2.696626e-03     7.017131e-03    -6.7492e-03      0.480 (TRAH MIcro)
    2     dE    -2.693946e-03     3.760451e-03    -6.8704e-03      0.477 (TRAH MIcro)
    2     dE    -2.711406e-03     1.489440e-03    -6.8850e-03      0.479 (TRAH MIcro)
    3      -2621.721477472388     2.147792e-02                     0.576 (TRAH MAcro)   No
WARNING : small    HOMO - LUMO gap : (op = alpha) 0.017008
WARNING : small    HOMO - LUMO gap : (op =  beta) 0.009048
    3     dE    -8.203007e-05     2.444365e-02    -8.2029e-05      0.004 (TRAH MIcro)
    3     dE    -6.295427e-04     2.204412e-02    -6.1693e-04      0.143 (TRAH MIcro)
    3     dE    -1.041385e-03     2.730748e-02    -9.7834e-04      0.254 (TRAH MIcro)
    3     dE    -1.511595e-03     1.795563e-02    -1.3167e-03      0.385 (TRAH MIcro)
    3     dE    -1.877046e-03     1.498531e-02    -1.5367e-03      0.471 (TRAH MIcro)
    3     dE    -2.246007e-03     1.157104e-02    -1.7344e-03      0.543 (TRAH MIcro)
    3     dE    -2.341475e-03     8.337974e-03    -1.7779e-03      0.563 (TRAH MIcro)
    3     dE    -2.401097e-03     4.252540e-03    -1.8447e-03      0.576 (TRAH MIcro)
    3     dE    -2.410999e-03     2.049957e-03    -1.9021e-03      0.576 (TRAH MIcro)
    4      -2621.723511637373     3.178008e-02                     0.691 (TRAH MAcro)   No
WARNING : small    HOMO - LUMO gap : (op = alpha) 0.018286
WARNING : small    HOMO - LUMO gap : (op =  beta) 0.014037
    4     dE    -1.846502e-04     3.528072e-02    -1.8464e-04      0.006 (TRAH MIcro)
    4     dE    -3.796421e-04     1.886139e-02    -3.7941e-04      0.025 (TRAH MIcro)
    4     dE    -4.751418e-04     1.351872e-02    -4.7450e-04      0.037 (TRAH MIcro)
    4     dE    -6.215530e-04     7.559767e-03    -6.1814e-04      0.074 (TRAH MIcro)
    4     dE    -6.726334e-04     6.047150e-03    -6.6590e-04      0.101 (TRAH MIcro)
    4     dE    -7.141730e-04     5.695453e-03    -7.0197e-04      0.132 (TRAH MIcro)
    4     dE    -7.408227e-04     4.186414e-03    -7.2354e-04      0.155 (TRAH MIcro)
    4     dE    -7.522289e-04     2.323508e-03    -7.3241e-04      0.164 (TRAH MIcro)
    5      -2621.724327771013     4.836837e-03                     0.829 (TRAH MAcro)   No
WARNING : small    HOMO - LUMO gap : (op = alpha) 0.018532
WARNING : small    HOMO - LUMO gap : (op =  beta) 0.013296
    5     dE    -4.394759e-06     6.651410e-03    -4.3948e-06      0.001 (TRAH MIcro)
    5     dE    -1.632807e-05     4.873843e-03    -1.6326e-05      0.010 (TRAH MIcro)
    5     dE    -4.682825e-05     5.227577e-03    -4.6733e-05      0.045 (TRAH MIcro)
    5     dE    -6.771356e-05     4.477359e-03    -6.7328e-05      0.076 (TRAH MIcro)
    5     dE    -8.196915e-05     3.337217e-03    -8.1172e-05      0.099 (TRAH MIcro)
    5     dE    -9.126477e-05     2.167418e-03    -9.0035e-05      0.117 (TRAH MIcro)
    5     dE    -9.350832e-05     1.061098e-03    -9.2138e-05      0.122 (TRAH MIcro)
    5     dE    -9.394951e-05     5.148530e-04    -9.2551e-05      0.123 (TRAH MIcro)
    5     dE    -9.409495e-05     2.433140e-04    -9.2686e-05      0.123 (TRAH MIcro)
    6      -2621.724425665134     4.588929e-03                     0.995 (TRAH MAcro)   No
WARNING : small    HOMO - LUMO gap : (op = alpha) 0.018621
WARNING : small    HOMO - LUMO gap : (op =  beta) 0.013839
    6     dE    -3.827866e-06     5.582788e-03    -3.8279e-06      0.001 (TRAH MIcro)
    6     dE    -6.183807e-06     1.216699e-03    -6.1838e-06      0.003 (TRAH MIcro)
    6     dE    -7.022283e-06     7.610135e-04    -7.0222e-06      0.004 (TRAH MIcro)
    6     dE    -7.588188e-06     5.664461e-04    -7.5878e-06      0.007 (TRAH MIcro)
    6     dE    -7.797176e-06     4.989583e-04    -7.7966e-06      0.008 (TRAH MIcro)
    6     dE    -8.071138e-06     4.375809e-04    -8.0700e-06      0.012 (TRAH MIcro)
    7      -2621.724433942438     4.412911e-04                           (NR   MAcro)
WARNING : small    HOMO - LUMO gap : (op = alpha) 0.018656
WARNING : small    HOMO - LUMO gap : (op =  beta) 0.013605
    7     dE    -6.663674e-08     3.212918e-04                           (NR   MIcro)
    7     dE    -9.749312e-08     2.311857e-04                           (NR   MIcro)
    7     dE    -1.588275e-07     2.535870e-04                           (NR   MIcro)
    7     dE    -2.149274e-07     2.552912e-04                           (NR   MIcro)
    7     dE    -2.439532e-07     2.087409e-04                           (NR   MIcro)
    7     dE    -2.627160e-07     1.206774e-04                           (NR   MIcro)
    7     dE    -2.685222e-07     5.881615e-05                           (NR   MIcro)
    7     dE    -2.698564e-07     2.854580e-05                           (NR   MIcro)
    7     dE    -2.702148e-07     1.318542e-05                           (NR   MIcro)
    7     dE    -2.702908e-07     8.057800e-06                           (NR   MIcro)
    7     dE    -2.703196e-07     3.741975e-06                           (NR   MIcro)
    7     dE    -2.703266e-07     1.861358e-06                           (NR   MIcro)
    8      -2621.724434223266     1.211768e-05                           (NR   MAcro)
WARNING : small    HOMO - LUMO gap : (op = alpha) 0.018656
WARNING : small    HOMO - LUMO gap : (op =  beta) 0.013621
    8     dE    -6.816393e-11     9.890526e-06                           (NR   MIcro)
    8     dE    -5.490720e-10     1.726548e-05                           (NR   MIcro)
    8     dE    -7.177707e-10     1.135624e-05                           (NR   MIcro)
    8     dE    -7.879291e-10     7.565808e-06                           (NR   MIcro)
    8     dE    -8.263240e-10     5.041978e-06                           (NR   MIcro)
    8     dE    -8.442047e-10     3.584784e-06                           (NR   MIcro)
    8     dE    -8.524972e-10     2.616519e-06                           (NR   MIcro)
    8     dE    -8.561462e-10     1.859803e-06                           (NR   MIcro)
    8     dE    -8.580015e-10     1.131233e-06                           (NR   MIcro)
    8     dE    -8.586291e-10     6.057446e-07                           (NR   MIcro)
    9      -2621.724434224183     7.811714e-07                           (NR   MAcro)
WARNING : small    HOMO - LUMO gap : (op = alpha) 0.018656
WARNING : small    HOMO - LUMO gap : (op =  beta) 0.013620

               *****************************************************
               *                     SUCCESS                       *
               *           SCF CONVERGED AFTER 124 CYCLES          *
               *****************************************************


----------------
TOTAL SCF ENERGY
----------------

Total Energy       :        -2621.72443422 Eh          -71340.74875 eV

Components:
Nuclear Repulsion  :         3255.23828051 Eh           88579.53691 eV
Electronic Energy  :        -5876.96271473 Eh         -159920.28566 eV
One Electron Energy:       -10635.07141824 Eh         -289395.00585 eV
Two Electron Energy:         4758.10870351 Eh          129474.72019 eV

Virial components:
Potential Energy   :        -4341.27985610 Eh         -118132.23061 eV
Kinetic Energy     :         1719.55542187 Eh           46791.48186 eV
Virial Ratio       :            2.52465248


DFT components:
N(Alpha)           :      110.000002709534 electrons
N(Beta)            :      105.999999745559 electrons
N(Total)           :      216.000002455093 electrons
E(X)               :     -174.800458807003 Eh       
E(C)               :       -9.410655449969 Eh       
E(XC)              :     -184.211114256973 Eh       
DFET-embed. en.    :        0.000000000000 Eh       

---------------
SCF CONVERGENCE
---------------

  Last Energy change         ...   -9.1677e-10  Tolerance :   1.0000e-08
  Last Orbital Gradient      ...    7.8117e-07  Tolerance :   1.0000e-05
  Last Orbital Rotation      ...    3.5192e-04

             **** THE GBW FILE WAS UPDATED (pbe.gbw) ****
             **** DENSITY pbe.scfp WAS UPDATED ****
             **** ENERGY FILE WAS UPDATED (pbe.en.tmp) ****
----------------------
UHF SPIN CONTAMINATION
----------------------

Warning: in a DFT calculation there is little theoretical justification to 
         calculate <S**2> as in Hartree-Fock theory. We will do it anyways
         but you should keep in mind that the values have only limited relevance

Expectation value of <S**2>     :     6.210984
Ideal value S*(S+1) for S=2.0   :     6.000000
Deviation                       :     0.210984

             **** THE GBW FILE WAS UPDATED (pbe.gbw) ****
             **** DENSITY pbe.scfp WAS UPDATED ****
----------------
ORBITAL ENERGIES
----------------
                 SPIN UP ORBITALS
  NO   OCC          E(Eh)            E(eV) 
   0   1.0000    -254.762125     -6932.4299 
   1   1.0000     -29.604814      -805.5879 
   2   1.0000     -25.543558      -695.0755 
   3   1.0000     -25.541339      -695.0152 
   4   1.0000     -25.534272      -694.8229 
   5   1.0000      -4.029924      -109.6598 
   6   1.0000      -4.027071      -109.5822 
   7   1.0000      -4.026984      -109.5798 
   8   1.0000      -4.024815      -109.5208 
   9   1.0000      -4.024372      -109.5087 
  10   1.0000      -4.021717      -109.4365 
  11   1.0000      -4.021347      -109.4264 
  12   1.0000      -4.020147      -109.3938 
  13   1.0000      -4.013440      -109.2112 
  14   1.0000      -4.013308      -109.2077 
  15   1.0000      -3.383930       -92.0814 
  16   1.0000      -2.248244       -61.1778 
  17   1.0000      -2.244972       -61.0888 
  18   1.0000      -2.244412       -61.0736 
  19   1.0000      -2.243826       -61.0576 
  20   1.0000      -2.243478       -61.0481 
  21   1.0000      -2.242392       -61.0186 
  22   1.0000      -2.240932       -60.9789 
  23   1.0000      -2.240491       -60.9669 
  24   1.0000      -2.239981       -60.9530 
  25   1.0000      -2.239553       -60.9413 
  26   1.0000      -2.238728       -60.9189 
  27   1.0000      -2.238422       -60.9106 
  28   1.0000      -2.237728       -60.8917 
  29   1.0000      -2.237660       -60.8898 
  30   1.0000      -2.235539       -60.8321 
  31   1.0000      -2.234952       -60.8161 
  32   1.0000      -2.234221       -60.7962 
  33   1.0000      -2.233083       -60.7653 
  34   1.0000      -2.232819       -60.7581 
  35   1.0000      -2.232603       -60.7522 
  36   1.0000      -2.231229       -60.7148 
  37   1.0000      -2.231010       -60.7089 
  38   1.0000      -2.230053       -60.6828 
  39   1.0000      -2.229023       -60.6548 
  40   1.0000      -2.228581       -60.6428 
  41   1.0000      -2.227448       -60.6119 
  42   1.0000      -2.226052       -60.5739 
  43   1.0000      -2.225007       -60.5455 
  44   1.0000      -2.223455       -60.5033 
  45   1.0000      -2.221907       -60.4612 
  46   1.0000      -2.204885       -59.9980 
  47   1.0000      -2.200269       -59.8724 
  48   1.0000      -2.186472       -59.4969 
  49   1.0000      -0.421891       -11.4802 
  50   1.0000      -0.387611       -10.5474 
  51   1.0000      -0.380712       -10.3597 
  52   1.0000      -0.373503       -10.1635 
  53   1.0000      -0.367408        -9.9977 
  54   1.0000      -0.359910        -9.7936 
  55   1.0000      -0.358441        -9.7537 
  56   1.0000      -0.352532        -9.5929 
  57   1.0000      -0.347689        -9.4611 
  58   1.0000      -0.342648        -9.3239 
  59   1.0000      -0.341694        -9.2980 
  60   1.0000      -0.338833        -9.2201 
  61   1.0000      -0.332264        -9.0414 
  62   1.0000      -0.331106        -9.0099 
  63   1.0000      -0.329516        -8.9666 
  64   1.0000      -0.324100        -8.8192 
  65   1.0000      -0.322922        -8.7872 
  66   1.0000      -0.320733        -8.7276 
  67   1.0000      -0.318248        -8.6600 
  68   1.0000      -0.313610        -8.5338 
  69   1.0000      -0.312544        -8.5048 
  70   1.0000      -0.309072        -8.4103 
  71   1.0000      -0.307078        -8.3560 
  72   1.0000      -0.304896        -8.2967 
  73   1.0000      -0.299107        -8.1391 
  74   1.0000      -0.296598        -8.0708 
  75   1.0000      -0.291984        -7.9453 
  76   1.0000      -0.287536        -7.8243 
  77   1.0000      -0.286320        -7.7912 
  78   1.0000      -0.285020        -7.7558 
  79   1.0000      -0.282968        -7.7000 
  80   1.0000      -0.282195        -7.6789 
  81   1.0000      -0.279123        -7.5953 
  82   1.0000      -0.276350        -7.5199 
  83   1.0000      -0.273118        -7.4319 
  84   1.0000      -0.272661        -7.4195 
  85   1.0000      -0.271238        -7.3808 
  86   1.0000      -0.269885        -7.3439 
  87   1.0000      -0.267922        -7.2905 
  88   1.0000      -0.266935        -7.2637 
  89   1.0000      -0.264356        -7.1935 
  90   1.0000      -0.263881        -7.1806 
  91   1.0000      -0.260253        -7.0818 
  92   1.0000      -0.258635        -7.0378 
  93   1.0000      -0.257556        -7.0084 
  94   1.0000      -0.256500        -6.9797 
  95   1.0000      -0.255904        -6.9635 
  96   1.0000      -0.254720        -6.9313 
  97   1.0000      -0.252701        -6.8763 
  98   1.0000      -0.251547        -6.8450 
  99   1.0000      -0.249163        -6.7801 
 100   1.0000      -0.245179        -6.6717 
 101   1.0000      -0.243272        -6.6198 
 102   1.0000      -0.242735        -6.6051 
 103   1.0000      -0.241386        -6.5684 
 104   1.0000      -0.238723        -6.4960 
 105   1.0000      -0.233777        -6.3614 
 106   1.0000      -0.231914        -6.3107 
 107   1.0000      -0.227340        -6.1862 
 108   1.0000      -0.206160        -5.6099 
 109   1.0000      -0.177391        -4.8271 
 110   0.0000      -0.158735        -4.3194 
 111   0.0000      -0.154418        -4.2019 
 112   0.0000      -0.134831        -3.6689 
 113   0.0000      -0.113865        -3.0984 
 114   0.0000      -0.111207        -3.0261 
 115   0.0000      -0.080532        -2.1914 
 116   0.0000      -0.058021        -1.5788 
 117   0.0000      -0.055316        -1.5052 
 118   0.0000      -0.050220        -1.3666 
 119   0.0000      -0.042345        -1.1523 
 120   0.0000      -0.039747        -1.0816 
 121   0.0000      -0.036126        -0.9830 
 122   0.0000      -0.019297        -0.5251 
 123   0.0000      -0.004120        -0.1121 
 124   0.0000      -0.001810        -0.0492 
 125   0.0000       0.008402         0.2286 
 126   0.0000       0.025110         0.6833 
 127   0.0000       0.031247         0.8503 
 128   0.0000       0.044862         1.2208 
 129   0.0000       0.046799         1.2735 
 130   0.0000       0.048872         1.3299 
 131   0.0000       0.054591         1.4855 
 132   0.0000       0.055824         1.5191 
 133   0.0000       0.057336         1.5602 
 134   0.0000       0.059839         1.6283 
 135   0.0000       0.071127         1.9355 
 136   0.0000       0.079359         2.1595 
 137   0.0000       0.083305         2.2668 
 138   0.0000       0.090246         2.4557 
 139   0.0000       0.093013         2.5310 
 140   0.0000       0.099366         2.7039 
 141   0.0000       0.107656         2.9295 
 142   0.0000       0.116097         3.1592 
 143   0.0000       0.126463         3.4412 
 144   0.0000       0.134106         3.6492 
 145   0.0000       0.143176         3.8960 
 146   0.0000       0.147879         4.0240 
 147   0.0000       0.154305         4.1989 
 148   0.0000       0.164386         4.4732 
 149   0.0000       0.177125         4.8198 
 150   0.0000       0.179004         4.8709 
 151   0.0000       0.181701         4.9443 
 152   0.0000       0.186046         5.0626 
 153   0.0000       0.190209         5.1758 
 154   0.0000       0.205839         5.6012 
 155   0.0000       0.212099         5.7715 
 156   0.0000       0.217575         5.9205 
 157   0.0000       0.222733         6.0609 
 158   0.0000       0.229379         6.2417 
 159   0.0000       0.239816         6.5257 
 160   0.0000       0.244384         6.6500 
 161   0.0000       0.247636         6.7385 
 162   0.0000       0.251485         6.8433 
 163   0.0000       0.254503         6.9254 
 164   0.0000       0.263873         7.1804 
 165   0.0000       0.264817         7.2060 
 166   0.0000       0.275132         7.4867 
 167   0.0000       0.278624         7.5817 
 168   0.0000       0.282327         7.6825 
 169   0.0000       0.291439         7.9305 
 170   0.0000       0.295508         8.0412 
 171   0.0000       0.296619         8.0714 
 172   0.0000       0.304545         8.2871 
 173   0.0000       0.308543         8.3959 
 174   0.0000       0.313521         8.5313 
 175   0.0000       0.314046         8.5456 
 176   0.0000       0.319894         8.7048 
 177   0.0000       0.322965         8.7883 
 178   0.0000       0.324860         8.8399 
 179   0.0000       0.333126         9.0648 
 180   0.0000       0.341563         9.2944 
 181   0.0000       0.344161         9.3651 
 182   0.0000       0.353414         9.6169 
 183   0.0000       0.359527         9.7832 
 184   0.0000       0.368104        10.0166 
 185   0.0000       0.376733        10.2514 
 186   0.0000       0.382242        10.4013 
 187   0.0000       0.384014        10.4496 
 188   0.0000       0.395990        10.7754 
 189   0.0000       0.401714        10.9312 
 190   0.0000       0.409205        11.1350 
 191   0.0000       0.414015        11.2659 
 192   0.0000       0.417536        11.3617 
 193   0.0000       0.421745        11.4763 
 194   0.0000       0.430477        11.7139 
 195   0.0000       0.441849        12.0233 
 196   0.0000       0.446177        12.1411 
 197   0.0000       0.450276        12.2526 
 198   0.0000       0.458165        12.4673 
 199   0.0000       0.464381        12.6365 
 200   0.0000       0.473761        12.8917 
 201   0.0000       0.479382        13.0447 
 202   0.0000       0.485668        13.2157 
 203   0.0000       0.489679        13.3248 
 204   0.0000       0.492972        13.4145 
 205   0.0000       0.497448        13.5363 
 206   0.0000       0.504045        13.7158 
 207   0.0000       0.507146        13.8002 
 208   0.0000       0.510880        13.9018 
 209   0.0000       0.513947        13.9852 
 210   0.0000       0.523140        14.2354 
 211   0.0000       0.531843        14.4722 
 212   0.0000       0.536798        14.6070 
 213   0.0000       0.548592        14.9280 
 214   0.0000       0.602628        16.3983 
 215   0.0000       0.608942        16.5702 
 216   0.0000       0.612833        16.6760 
 217   0.0000       0.642290        17.4776 
 218   0.0000       0.663380        18.0515 
 219   0.0000       0.668187        18.1823 
 220   0.0000       0.680586        18.5197 
 221   0.0000       0.686779        18.6882 
 222   0.0000       0.694562        18.9000 
 223   0.0000       0.717217        19.5165 
 224   0.0000       0.727663        19.8007 
 225   0.0000       0.732828        19.9413 
 226   0.0000       0.737170        20.0594 
 227   0.0000       0.751790        20.4572 
 228   0.0000       0.765549        20.8317 
 229   0.0000       0.774107        21.0645 
 230   0.0000       0.779661        21.2157 
 231   0.0000       0.798684        21.7333 
 232   0.0000       0.811919        22.0934 
 233   0.0000       0.834125        22.6977 
 234   0.0000       0.861122        23.4323 
 235   0.0000       0.874589        23.7988 
 236   0.0000       0.885966        24.1083 
 237   0.0000       0.904206        24.6047 
 238   0.0000       0.911603        24.8060 
 239   0.0000       0.933011        25.3885 
 240   0.0000       0.940812        25.6008 
 241   0.0000       0.948958        25.8225 
 242   0.0000       0.960916        26.1479 
 243   0.0000       0.998135        27.1606 
 244   0.0000       1.007556        27.4170 
 245   0.0000       1.031173        28.0597 
 246   0.0000       1.086078        29.5537 
 247   0.0000       1.111108        30.2348 
 248   0.0000       1.139909        31.0185 
 249   0.0000       1.206927        32.8421 
 250   0.0000       1.226197        33.3665 
 251   0.0000       1.263497        34.3815 
 252   0.0000       1.270706        34.5777 
 253   0.0000       1.278784        34.7975 
 254   0.0000       1.287053        35.0225 
 255   0.0000       1.295572        35.2543 
 256   0.0000       1.297439        35.3051 
 257   0.0000       1.316647        35.8278 
 258   0.0000       1.322939        35.9990 
 259   0.0000       1.340833        36.4859 
 260   0.0000       1.352683        36.8084 
 261   0.0000       1.359572        36.9958 
 262   0.0000       1.369878        37.2763 
 263   0.0000       1.372771        37.3550 
 264   0.0000       1.380865        37.5753 
 265   0.0000       1.392180        37.8831 
 266   0.0000       1.398678        38.0600 
 267   0.0000       1.403505        38.1913 
 268   0.0000       1.405888        38.2562 
 269   0.0000       1.414384        38.4874 
 270   0.0000       1.417709        38.5778 
 271   0.0000       1.425426        38.7878 
 272   0.0000       1.432384        38.9772 
 273   0.0000       1.438913        39.1548 
 274   0.0000       1.442865        39.2623 
 275   0.0000       1.445195        39.3258 
 276   0.0000       1.447217        39.3808 
 277   0.0000       1.450856        39.4798 
 278   0.0000       1.455126        39.5960 
 279   0.0000       1.459540        39.7161 
 280   0.0000       1.461781        39.7771 
 281   0.0000       1.462748        39.8034 
 282   0.0000       1.466004        39.8920 
 283   0.0000       1.471764        40.0487 
 284   0.0000       1.474441        40.1216 
 285   0.0000       1.478894        40.2428 
 286   0.0000       1.481361        40.3099 
 287   0.0000       1.482259        40.3343 
 288   0.0000       1.485186        40.4140 
 289   0.0000       1.486302        40.4443 
 290   0.0000       1.488053        40.4920 
 291   0.0000       1.491553        40.5872 
 292   0.0000       1.492036        40.6004 
 293   0.0000       1.493433        40.6384 
 294   0.0000       1.496361        40.7181 
 295   0.0000       1.497834        40.7581 
 296   0.0000       1.500996        40.8442 
 297   0.0000       1.502476        40.8844 
 298   0.0000       1.503203        40.9042 
 299   0.0000       1.504872        40.9496 
 300   0.0000       1.507980        41.0342 
 301   0.0000       1.508371        41.0449 
 302   0.0000       1.509922        41.0871 
 303   0.0000       1.510591        41.1053 
 304   0.0000       1.511462        41.1290 
 305   0.0000       1.517499        41.2932 
 306   0.0000       1.518988        41.3338 
 307   0.0000       1.519653        41.3519 
 308   0.0000       1.521335        41.3976 
 309   0.0000       1.524192        41.4754 
 310   0.0000       1.525323        41.5062 
 311   0.0000       1.526724        41.5443 
 312   0.0000       1.528412        41.5902 
 313   0.0000       1.529286        41.6140 
 314   0.0000       1.530908        41.6581 
 315   0.0000       1.536044        41.7979 
 316   0.0000       1.540057        41.9071 
 317   0.0000       1.540899        41.9300 
 318   0.0000       1.544355        42.0240 
 319   0.0000       1.544999        42.0416 
 320   0.0000       1.549549        42.1654 
 321   0.0000       1.552810        42.2541 
 322   0.0000       1.554320        42.2952 
 323   0.0000       1.557966        42.3944 
 324   0.0000       1.559839        42.4454 
 325   0.0000       1.560154        42.4539 
 326   0.0000       1.563127        42.5349 
 327   0.0000       1.564924        42.5837 
 328   0.0000       1.570028        42.7226 
 329   0.0000       1.571814        42.7712 
 330   0.0000       1.574507        42.8445 
 331   0.0000       1.577744        42.9326 
 332   0.0000       1.578089        42.9420 
 333   0.0000       1.583674        43.0940 
 334   0.0000       1.588764        43.2325 
 335   0.0000       1.592147        43.3245 
 336   0.0000       1.593823        43.3701 
 337   0.0000       1.599401        43.5219 
 338   0.0000       1.602345        43.6020 
 339   0.0000       1.604637        43.6644 
 340   0.0000       1.610602        43.8267 
 341   0.0000       1.615029        43.9472 
 342   0.0000       1.621730        44.1295 
 343   0.0000       1.624797        44.2130 
 344   0.0000       1.629571        44.3429 
 345   0.0000       1.635150        44.4947 
 346   0.0000       1.644558        44.7507 
 347   0.0000       1.650299        44.9069 
 348   0.0000       1.659750        45.1641 
 349   0.0000       1.666473        45.3470 
 350   0.0000       1.683188        45.8019 
 351   0.0000       1.693767        46.0897 
 352   0.0000       1.706139        46.4264 
 353   0.0000       1.718258        46.7562 
 354   0.0000       1.737289        47.2740 
 355   0.0000       1.755665        47.7741 
 356   0.0000       1.759285        47.8726 
 357   0.0000       1.761502        47.9329 
 358   0.0000       1.770013        48.1645 
 359   0.0000       1.789330        48.6902 
 360   0.0000       1.810449        49.2648 
 361   0.0000       1.814116        49.3646 
 362   0.0000       1.826352        49.6976 
 363   0.0000       1.851161        50.3726 
 364   0.0000       1.868648        50.8485 
 365   0.0000       1.890176        51.4343 
 366   0.0000       1.897649        51.6377 
 367   0.0000       1.949161        53.0394 
 368   0.0000       1.967366        53.5348 
 369   0.0000       2.092167        56.9308 
 370   0.0000       2.217758        60.3483 
 371   0.0000       2.220234        60.4156 
 372   0.0000       2.266155        61.6652 
 373   0.0000       2.311112        62.8885 
 374   0.0000       2.354890        64.0798 
 375   0.0000       2.377429        64.6931 
 376   0.0000       2.400445        65.3194 
 377   0.0000       2.427964        66.0683 
 378   0.0000       2.441569        66.4385 
 379   0.0000       2.464125        67.0522 
 380   0.0000       2.472698        67.2855 
 381   0.0000       2.512577        68.3707 
 382   0.0000       3.218473        87.5791 
 383   0.0000       3.467823        94.3643 
 384   0.0000       3.530861        96.0796 
 385   0.0000       3.587148        97.6113 
 386   0.0000       3.650177        99.3264 
 387   0.0000       3.738998       101.7433 
 388   0.0000       3.884458       105.7015 
 389   0.0000       3.885488       105.7295 
 390   0.0000       3.897761       106.0635 
 391   0.0000       3.904838       106.2560 
 392   0.0000       3.920346       106.6781 
 393   0.0000       3.921366       106.7058 
 394   0.0000       3.945405       107.3599 
 395   0.0000      23.579530       641.6316 
 396   0.0000      23.741921       646.0505 
 397   0.0000      23.850207       648.9971 
 398   0.0000      24.035288       654.0334 
 399   0.0000      24.401986       664.0118 
 400   0.0000      24.588208       669.0792 
 401   0.0000      24.717538       672.5984 
 402   0.0000      24.977690       679.6775 
 403   0.0000      25.077543       682.3946 
 404   0.0000      25.310532       688.7346 
 405   0.0000      25.416170       691.6091 
 406   0.0000      25.485092       693.4846 
 407   0.0000      25.743358       700.5124 
 408   0.0000      25.817249       702.5231 
 409   0.0000      26.062607       709.1996 
 410   0.0000      26.192445       712.7327 
 411   0.0000      26.239777       714.0206 
 412   0.0000      26.374256       717.6800 
 413   0.0000      26.451749       719.7887 
 414   0.0000      26.567769       722.9458 
 415   0.0000      26.899743       731.9792 
 416   0.0000      27.043748       735.8978 
 417   0.0000      27.211240       740.4555 
 418   0.0000      27.599044       751.0082 
 419   0.0000      27.766346       755.5607 
 420   0.0000      28.043967       763.1151 
 421   0.0000      28.355329       771.5877 
 422   0.0000      28.447612       774.0989 
 423   0.0000      28.934975       787.3607 
 424   0.0000      29.080311       791.3155 
 425   0.0000      43.845613      1193.0998 
 426   0.0000      43.962819      1196.2891 
 427   0.0000      44.003358      1197.3923 
 428   0.0000      44.029501      1198.1036 
 429   0.0000      44.057964      1198.8781 
 430   0.0000      44.099452      1200.0071 
 431   0.0000      44.117056      1200.4861 
 432   0.0000      44.121393      1200.6041 
 433   0.0000      44.154238      1201.4979 
 434   0.0000      44.161417      1201.6932 
 435   0.0000     205.070146      5580.2424 
 436   0.0000     205.117445      5581.5294 
 437   0.0000     205.131013      5581.8986 
 438   0.0000     205.141659      5582.1883 
 439   0.0000     205.156792      5582.6001 
 440   0.0000     205.176246      5583.1295 
 441   0.0000     205.181033      5583.2598 
 442   0.0000     205.185001      5583.3677 
 443   0.0000     205.195899      5583.6643 
 444   0.0000     205.197227      5583.7004 

                 SPIN DOWN ORBITALS
  NO   OCC          E(Eh)            E(eV) 
   0   1.0000    -254.761382     -6932.4096 
   1   1.0000     -29.544659      -803.9510 
   2   1.0000     -25.495822      -693.7766 
   3   1.0000     -25.495618      -693.7710 
   4   1.0000     -25.491405      -693.6564 
   5   1.0000      -4.029135      -109.6383 
   6   1.0000      -4.026657      -109.5709 
   7   1.0000      -4.025985      -109.5526 
   8   1.0000      -4.023328      -109.4803 
   9   1.0000      -4.023275      -109.4789 
  10   1.0000      -4.021351      -109.4265 
  11   1.0000      -4.019367      -109.3725 
  12   1.0000      -4.019341      -109.3718 
  13   1.0000      -4.012587      -109.1880 
  14   1.0000      -4.012377      -109.1823 
  15   1.0000      -3.247997       -88.3825 
  16   1.0000      -2.247225       -61.1501 
  17   1.0000      -2.243550       -61.0501 
  18   1.0000      -2.243056       -61.0367 
  19   1.0000      -2.242548       -61.0228 
  20   1.0000      -2.242041       -61.0090 
  21   1.0000      -2.241072       -60.9827 
  22   1.0000      -2.239672       -60.9446 
  23   1.0000      -2.239455       -60.9387 
  24   1.0000      -2.238835       -60.9218 
  25   1.0000      -2.238106       -60.9020 
  26   1.0000      -2.237776       -60.8930 
  27   1.0000      -2.237347       -60.8813 
  28   1.0000      -2.236905       -60.8693 
  29   1.0000      -2.236062       -60.8463 
  30   1.0000      -2.234592       -60.8063 
  31   1.0000      -2.234340       -60.7995 
  32   1.0000      -2.232773       -60.7569 
  33   1.0000      -2.232376       -60.7460 
  34   1.0000      -2.232138       -60.7396 
  35   1.0000      -2.231520       -60.7227 
  36   1.0000      -2.230702       -60.7005 
  37   1.0000      -2.229956       -60.6802 
  38   1.0000      -2.228365       -60.6369 
  39   1.0000      -2.228098       -60.6296 
  40   1.0000      -2.227626       -60.6168 
  41   1.0000      -2.225822       -60.5677 
  42   1.0000      -2.224976       -60.5447 
  43   1.0000      -2.224349       -60.5276 
  44   1.0000      -2.222530       -60.4781 
  45   1.0000      -2.221268       -60.4438 
  46   1.0000      -2.066250       -56.2255 
  47   1.0000      -2.065446       -56.2036 
  48   1.0000      -2.061168       -56.0872 
  49   1.0000      -0.416257       -11.3269 
  50   1.0000      -0.384293       -10.4572 
  51   1.0000      -0.371938       -10.1209 
  52   1.0000      -0.366129        -9.9629 
  53   1.0000      -0.357407        -9.7256 
  54   1.0000      -0.355268        -9.6673 
  55   1.0000      -0.349752        -9.5172 
  56   1.0000      -0.343791        -9.3550 
  57   1.0000      -0.341825        -9.3015 
  58   1.0000      -0.336733        -9.1630 
  59   1.0000      -0.334558        -9.1038 
  60   1.0000      -0.329851        -8.9757 
  61   1.0000      -0.329296        -8.9606 
  62   1.0000      -0.326574        -8.8865 
  63   1.0000      -0.322301        -8.7703 
  64   1.0000      -0.320572        -8.7232 
  65   1.0000      -0.317862        -8.6495 
  66   1.0000      -0.315918        -8.5966 
  67   1.0000      -0.314987        -8.5712 
  68   1.0000      -0.307732        -8.3738 
  69   1.0000      -0.307405        -8.3649 
  70   1.0000      -0.302794        -8.2394 
  71   1.0000      -0.300482        -8.1765 
  72   1.0000      -0.298590        -8.1251 
  73   1.0000      -0.296146        -8.0585 
  74   1.0000      -0.291409        -7.9297 
  75   1.0000      -0.288312        -7.8454 
  76   1.0000      -0.284642        -7.7455 
  77   1.0000      -0.284441        -7.7400 
  78   1.0000      -0.282978        -7.7002 
  79   1.0000      -0.280724        -7.6389 
  80   1.0000      -0.275677        -7.5016 
  81   1.0000      -0.274944        -7.4816 
  82   1.0000      -0.272310        -7.4099 
  83   1.0000      -0.271256        -7.3813 
  84   1.0000      -0.270123        -7.3504 
  85   1.0000      -0.267830        -7.2880 
  86   1.0000      -0.266080        -7.2404 
  87   1.0000      -0.265780        -7.2322 
  88   1.0000      -0.262950        -7.1552 
  89   1.0000      -0.261669        -7.1204 
  90   1.0000      -0.258281        -7.0282 
  91   1.0000      -0.255654        -6.9567 
  92   1.0000      -0.254728        -6.9315 
  93   1.0000      -0.253556        -6.8996 
  94   1.0000      -0.252157        -6.8616 
  95   1.0000      -0.251250        -6.8369 
  96   1.0000      -0.249302        -6.7839 
  97   1.0000      -0.243767        -6.6332 
  98   1.0000      -0.243609        -6.6289 
  99   1.0000      -0.241167        -6.5625 
 100   1.0000      -0.236904        -6.4465 
 101   1.0000      -0.232407        -6.3241 
 102   1.0000      -0.229749        -6.2518 
 103   1.0000      -0.211038        -5.7426 
 104   1.0000      -0.193845        -5.2748 
 105   1.0000      -0.188364        -5.1256 
 106   0.0000      -0.174743        -4.7550 
 107   0.0000      -0.165798        -4.5116 
 108   0.0000      -0.157316        -4.2808 
 109   0.0000      -0.151093        -4.1115 
 110   0.0000      -0.144535        -3.9330 
 111   0.0000      -0.142831        -3.8866 
 112   0.0000      -0.126766        -3.4495 
 113   0.0000      -0.108460        -2.9513 
 114   0.0000      -0.103452        -2.8151 
 115   0.0000      -0.075998        -2.0680 
 116   0.0000      -0.054242        -1.4760 
 117   0.0000      -0.051956        -1.4138 
 118   0.0000      -0.045478        -1.2375 
 119   0.0000      -0.039400        -1.0721 
 120   0.0000      -0.034790        -0.9467 
 121   0.0000      -0.033168        -0.9026 
 122   0.0000      -0.015383        -0.4186 
 123   0.0000      -0.002036        -0.0554 
 124   0.0000       0.001871         0.0509 
 125   0.0000       0.010817         0.2943 
 126   0.0000       0.029009         0.7894 
 127   0.0000       0.034590         0.9412 
 128   0.0000       0.047415         1.2902 
 129   0.0000       0.049379         1.3437 
 130   0.0000       0.051984         1.4146 
 131   0.0000       0.057354         1.5607 
 132   0.0000       0.059220         1.6114 
 133   0.0000       0.061294         1.6679 
 134   0.0000       0.062245         1.6938 
 135   0.0000       0.074979         2.0403 
 136   0.0000       0.080248         2.1837 
 137   0.0000       0.085368         2.3230 
 138   0.0000       0.092743         2.5237 
 139   0.0000       0.095741         2.6052 
 140   0.0000       0.102333         2.7846 
 141   0.0000       0.109195         2.9714 
 142   0.0000       0.118717         3.2304 
 143   0.0000       0.132907         3.6166 
 144   0.0000       0.137266         3.7352 
 145   0.0000       0.148142         4.0311 
 146   0.0000       0.156446         4.2571 
 147   0.0000       0.157838         4.2950 
 148   0.0000       0.169256         4.6057 
 149   0.0000       0.180866         4.9216 
 150   0.0000       0.185419         5.0455 
 151   0.0000       0.187398         5.0993 
 152   0.0000       0.191396         5.2082 
 153   0.0000       0.193581         5.2676 
 154   0.0000       0.209075         5.6892 
 155   0.0000       0.217029         5.9057 
 156   0.0000       0.220406         5.9975 
 157   0.0000       0.226644         6.1673 
 158   0.0000       0.234236         6.3739 
 159   0.0000       0.241342         6.5673 
 160   0.0000       0.248137         6.7521 
 161   0.0000       0.249184         6.7806 
 162   0.0000       0.253942         6.9101 
 163   0.0000       0.257031         6.9942 
 164   0.0000       0.265138         7.2148 
 165   0.0000       0.266583         7.2541 
 166   0.0000       0.277134         7.5412 
 167   0.0000       0.280881         7.6432 
 168   0.0000       0.284295         7.7361 
 169   0.0000       0.293771         7.9939 
 170   0.0000       0.297317         8.0904 
 171   0.0000       0.298607         8.1255 
 172   0.0000       0.306357         8.3364 
 173   0.0000       0.310293         8.4435 
 174   0.0000       0.314820         8.5667 
 175   0.0000       0.315441         8.5836 
 176   0.0000       0.321349         8.7443 
 177   0.0000       0.324694         8.8354 
 178   0.0000       0.326325         8.8797 
 179   0.0000       0.335125         9.1192 
 180   0.0000       0.343460         9.3460 
 181   0.0000       0.345990         9.4149 
 182   0.0000       0.355659         9.6780 
 183   0.0000       0.361853         9.8465 
 184   0.0000       0.370817        10.0904 
 185   0.0000       0.378965        10.3122 
 186   0.0000       0.385148        10.4804 
 187   0.0000       0.387114        10.5339 
 188   0.0000       0.399202        10.8628 
 189   0.0000       0.404142        10.9973 
 190   0.0000       0.411751        11.2043 
 191   0.0000       0.417400        11.3580 
 192   0.0000       0.419766        11.4224 
 193   0.0000       0.424756        11.5582 
 194   0.0000       0.433293        11.7905 
 195   0.0000       0.444099        12.0846 
 196   0.0000       0.448737        12.2107 
 197   0.0000       0.452500        12.3131 
 198   0.0000       0.460867        12.5408 
 199   0.0000       0.466947        12.7063 
 200   0.0000       0.476409        12.9637 
 201   0.0000       0.482265        13.1231 
 202   0.0000       0.487034        13.2529 
 203   0.0000       0.492993        13.4150 
 204   0.0000       0.495968        13.4960 
 205   0.0000       0.499951        13.6043 
 206   0.0000       0.507573        13.8118 
 207   0.0000       0.509723        13.8703 
 208   0.0000       0.513797        13.9811 
 209   0.0000       0.516410        14.0522 
 210   0.0000       0.525679        14.3045 
 211   0.0000       0.535518        14.5722 
 212   0.0000       0.541865        14.7449 
 213   0.0000       0.551952        15.0194 
[...]
  63( 2) :    -0.323471 a.u.    -8.802 eV
  64( 2) :    -0.321806 a.u.    -8.757 eV
  65( 2) :    -0.317563 a.u.    -8.641 eV
  66( 2) :    -0.316008 a.u.    -8.599 eV
  67( 2) :    -0.313099 a.u.    -8.520 eV
  68( 2) :    -0.311535 a.u.    -8.477 eV
  69( 2) :    -0.307037 a.u.    -8.355 eV
  70( 2) :    -0.305698 a.u.    -8.318 eV
  71( 2) :    -0.299110 a.u.    -8.139 eV
  72( 2) :    -0.297185 a.u.    -8.087 eV
  73( 2) :    -0.293901 a.u.    -7.997 eV
  74( 2) :    -0.292118 a.u.    -7.949 eV
  75( 2) :    -0.287464 a.u.    -7.822 eV
  76( 2) :    -0.286528 a.u.    -7.797 eV
  77( 2) :    -0.284975 a.u.    -7.755 eV
  78( 2) :    -0.283888 a.u.    -7.725 eV
  79( 2) :    -0.279179 a.u.    -7.597 eV
  80( 2) :    -0.277431 a.u.    -7.549 eV
  81( 2) :    -0.276478 a.u.    -7.523 eV
  82( 2) :    -0.273409 a.u.    -7.440 eV
  83( 2) :    -0.271831 a.u.    -7.397 eV
  84( 2) :    -0.268974 a.u.    -7.319 eV
  85( 2) :    -0.267029 a.u.    -7.266 eV
  86( 2) :    -0.266776 a.u.    -7.259 eV
  87( 2) :    -0.265747 a.u.    -7.231 eV
  88( 2) :    -0.261462 a.u.    -7.115 eV
  89( 2) :    -0.259650 a.u.    -7.065 eV
  90( 2) :    -0.257695 a.u.    -7.012 eV
  91( 2) :    -0.257320 a.u.    -7.002 eV
  92( 2) :    -0.256399 a.u.    -6.977 eV
  93( 2) :    -0.252083 a.u.    -6.860 eV
  94( 2) :    -0.249942 a.u.    -6.801 eV
  95( 2) :    -0.249488 a.u.    -6.789 eV
  96( 2) :    -0.246379 a.u.    -6.704 eV
  97( 2) :    -0.244072 a.u.    -6.642 eV
  98( 2) :    -0.241584 a.u.    -6.574 eV
  99( 2) :    -0.239173 a.u.    -6.508 eV
 100( 2) :    -0.236075 a.u.    -6.424 eV
 101( 2) :    -0.230288 a.u.    -6.266 eV
 102( 2) :    -0.228203 a.u.    -6.210 eV
 103( 2) :    -0.213263 a.u.    -5.803 eV
 104( 2) :    -0.201965 a.u.    -5.496 eV
 105( 2) :    -0.185823 a.u.    -5.057 eV
 106( 1) :    -0.230207 a.u.    -6.264 eV alpha=   -8.006 beta=   -4.523
 107( 1) :    -0.217689 a.u.    -5.924 eV alpha=   -7.468 beta=   -4.379
 108( 1) :    -0.203203 a.u.    -5.529 eV alpha=   -7.103 beta=   -3.956
 109( 1) :    -0.191079 a.u.    -5.200 eV alpha=   -6.269 beta=   -4.130
 110( 0) :    -0.153462 a.u.    -4.176 eV
 111( 0) :    -0.146651 a.u.    -3.991 eV
 112( 0) :    -0.145074 a.u.    -3.948 eV
 113( 0) :    -0.116484 a.u.    -3.170 eV
 114( 0) :    -0.106613 a.u.    -2.901 eV
 115( 0) :    -0.084406 a.u.    -2.297 eV
 116( 0) :    -0.061601 a.u.    -1.676 eV
 117( 0) :    -0.057777 a.u.    -1.572 eV
 118( 0) :    -0.050630 a.u.    -1.378 eV
 119( 0) :    -0.043372 a.u.    -1.180 eV
 120( 0) :    -0.038153 a.u.    -1.038 eV
 121( 0) :    -0.032683 a.u.    -0.889 eV
 122( 0) :    -0.012701 a.u.    -0.346 eV
 123( 0) :    -0.011751 a.u.    -0.320 eV
 124( 0) :    -0.006733 a.u.    -0.183 eV
 125( 0) :     0.016480 a.u.     0.448 eV
 126( 0) :     0.031286 a.u.     0.851 eV
 127( 0) :     0.038127 a.u.     1.037 eV
 128( 0) :     0.042813 a.u.     1.165 eV
 129( 0) :     0.046211 a.u.     1.257 eV
 130( 0) :     0.046239 a.u.     1.258 eV
 131( 0) :     0.051341 a.u.     1.397 eV
 132( 0) :     0.054079 a.u.     1.472 eV
 133( 0) :     0.063922 a.u.     1.739 eV
 134( 0) :     0.066357 a.u.     1.806 eV
 135( 0) :     0.068603 a.u.     1.867 eV
 136( 0) :     0.075577 a.u.     2.057 eV
 137( 0) :     0.083307 a.u.     2.267 eV
 138( 0) :     0.087482 a.u.     2.381 eV
 139( 0) :     0.094582 a.u.     2.574 eV
 140( 0) :     0.100547 a.u.     2.736 eV
 141( 0) :     0.112463 a.u.     3.060 eV
 142( 0) :     0.115436 a.u.     3.141 eV
 143( 0) :     0.134996 a.u.     3.673 eV
 144( 0) :     0.136593 a.u.     3.717 eV
 145( 0) :     0.145903 a.u.     3.970 eV
 146( 0) :     0.146628 a.u.     3.990 eV
 147( 0) :     0.149097 a.u.     4.057 eV
 148( 0) :     0.164991 a.u.     4.490 eV
 149( 0) :     0.175152 a.u.     4.766 eV
 150( 0) :     0.176524 a.u.     4.803 eV
 151( 0) :     0.181707 a.u.     4.945 eV
 152( 0) :     0.183340 a.u.     4.989 eV
 153( 0) :     0.189442 a.u.     5.155 eV
 154( 0) :     0.200465 a.u.     5.455 eV
 155( 0) :     0.209529 a.u.     5.702 eV
 156( 0) :     0.219690 a.u.     5.978 eV
 157( 0) :     0.222010 a.u.     6.041 eV
 158( 0) :     0.229679 a.u.     6.250 eV
 159( 0) :     0.242306 a.u.     6.593 eV
 160( 0) :     0.251347 a.u.     6.840 eV
 161( 0) :     0.254982 a.u.     6.938 eV
 162( 0) :     0.256484 a.u.     6.979 eV
 163( 0) :     0.260316 a.u.     7.084 eV
 164( 0) :     0.264899 a.u.     7.208 eV
 165( 0) :     0.271616 a.u.     7.391 eV
 166( 0) :     0.274674 a.u.     7.474 eV
 167( 0) :     0.275773 a.u.     7.504 eV
 168( 0) :     0.288869 a.u.     7.861 eV
 169( 0) :     0.290236 a.u.     7.898 eV
 170( 0) :     0.291665 a.u.     7.937 eV
 171( 0) :     0.299869 a.u.     8.160 eV
 172( 0) :     0.302437 a.u.     8.230 eV
 173( 0) :     0.305414 a.u.     8.311 eV
 174( 0) :     0.305577 a.u.     8.315 eV
 175( 0) :     0.313705 a.u.     8.536 eV
 176( 0) :     0.327434 a.u.     8.910 eV
 177( 0) :     0.328660 a.u.     8.943 eV
 178( 0) :     0.336599 a.u.     9.159 eV
 179( 0) :     0.338282 a.u.     9.205 eV
 180( 0) :     0.349613 a.u.     9.513 eV
 181( 0) :     0.353495 a.u.     9.619 eV
 182( 0) :     0.359173 a.u.     9.774 eV
 183( 0) :     0.366831 a.u.     9.982 eV
 184( 0) :     0.373944 a.u.    10.176 eV
 185( 0) :     0.375223 a.u.    10.210 eV
 186( 0) :     0.387851 a.u.    10.554 eV
 187( 0) :     0.388883 a.u.    10.582 eV
 188( 0) :     0.394427 a.u.    10.733 eV
 189( 0) :     0.395227 a.u.    10.755 eV
 190( 0) :     0.402260 a.u.    10.946 eV
 191( 0) :     0.409193 a.u.    11.135 eV
 192( 0) :     0.416098 a.u.    11.323 eV
 193( 0) :     0.421008 a.u.    11.456 eV
 194( 0) :     0.424228 a.u.    11.544 eV
 195( 0) :     0.429929 a.u.    11.699 eV
 196( 0) :     0.439046 a.u.    11.947 eV
 197( 0) :     0.449175 a.u.    12.223 eV
 198( 0) :     0.456198 a.u.    12.414 eV
 199( 0) :     0.461146 a.u.    12.548 eV
 200( 0) :     0.463009 a.u.    12.599 eV
 201( 0) :     0.466279 a.u.    12.688 eV
 202( 0) :     0.470681 a.u.    12.808 eV
 203( 0) :     0.479249 a.u.    13.041 eV
 204( 0) :     0.493559 a.u.    13.430 eV
 205( 0) :     0.505608 a.u.    13.758 eV
 206( 0) :     0.511215 a.u.    13.911 eV
 207( 0) :     0.513184 a.u.    13.964 eV
 208( 0) :     0.515818 a.u.    14.036 eV
 209( 0) :     0.522537 a.u.    14.219 eV
 210( 0) :     0.531383 a.u.    14.460 eV
 211( 0) :     0.534021 a.u.    14.531 eV
 212( 0) :     0.548221 a.u.    14.918 eV
 213( 0) :     0.557336 a.u.    15.166 eV
 214( 0) :     0.564090 a.u.    15.350 eV
 215( 0) :     0.629908 a.u.    17.141 eV
 216( 0) :     0.641642 a.u.    17.460 eV
 217( 0) :     0.651157 a.u.    17.719 eV
 218( 0) :     0.657078 a.u.    17.880 eV
 219( 0) :     0.662492 a.u.    18.027 eV
 220( 0) :     0.686044 a.u.    18.668 eV
 221( 0) :     0.700870 a.u.    19.072 eV
 222( 0) :     0.711201 a.u.    19.353 eV
 223( 0) :     0.717003 a.u.    19.511 eV
 224( 0) :     0.726023 a.u.    19.756 eV
 225( 0) :     0.737415 a.u.    20.066 eV
 226( 0) :     0.743140 a.u.    20.222 eV
 227( 0) :     0.772153 a.u.    21.011 eV
 228( 0) :     0.778941 a.u.    21.196 eV
 229( 0) :     0.779891 a.u.    21.222 eV
 230( 0) :     0.796705 a.u.    21.679 eV
 231( 0) :     0.799269 a.u.    21.749 eV
 232( 0) :     0.825301 a.u.    22.458 eV
 233( 0) :     0.833188 a.u.    22.672 eV
 234( 0) :     0.846092 a.u.    23.023 eV
 235( 0) :     0.867698 a.u.    23.611 eV
 236( 0) :     0.871836 a.u.    23.724 eV
 237( 0) :     0.878729 a.u.    23.911 eV
 238( 0) :     0.893911 a.u.    24.325 eV
 239( 0) :     0.896201 a.u.    24.387 eV
 240( 0) :     0.914875 a.u.    24.895 eV
 241( 0) :     0.918211 a.u.    24.986 eV
 242( 0) :     0.942820 a.u.    25.655 eV
 243( 0) :     0.964868 a.u.    26.255 eV
 244( 0) :     0.967816 a.u.    26.336 eV
 245( 0) :     0.992650 a.u.    27.011 eV
 246( 0) :     1.010263 a.u.    27.491 eV
 247( 0) :     1.064231 a.u.    28.959 eV
 248( 0) :     1.089026 a.u.    29.634 eV
 249( 0) :     1.208899 a.u.    32.896 eV
 250( 0) :     1.210674 a.u.    32.944 eV
 251( 0) :     1.248199 a.u.    33.965 eV
 252( 0) :     1.263083 a.u.    34.370 eV
 253( 0) :     1.270445 a.u.    34.571 eV
 254( 0) :     1.285069 a.u.    34.969 eV
 255( 0) :     1.294202 a.u.    35.217 eV
 256( 0) :     1.305235 a.u.    35.517 eV
 257( 0) :     1.312242 a.u.    35.708 eV
 258( 0) :     1.331112 a.u.    36.221 eV
 259( 0) :     1.332301 a.u.    36.254 eV
 260( 0) :     1.334877 a.u.    36.324 eV
 261( 0) :     1.353675 a.u.    36.835 eV
 262( 0) :     1.355931 a.u.    36.897 eV
 263( 0) :     1.365478 a.u.    37.157 eV
 264( 0) :     1.366293 a.u.    37.179 eV
 265( 0) :     1.374521 a.u.    37.403 eV
 266( 0) :     1.381808 a.u.    37.601 eV
 267( 0) :     1.391473 a.u.    37.864 eV
 268( 0) :     1.395721 a.u.    37.980 eV
 269( 0) :     1.409335 a.u.    38.350 eV
 270( 0) :     1.418664 a.u.    38.604 eV
 271( 0) :     1.420566 a.u.    38.656 eV
 272( 0) :     1.427570 a.u.    38.846 eV
 273( 0) :     1.430425 a.u.    38.924 eV
 274( 0) :     1.435277 a.u.    39.056 eV
 275( 0) :     1.439750 a.u.    39.178 eV
 276( 0) :     1.443340 a.u.    39.275 eV
 277( 0) :     1.446758 a.u.    39.368 eV
 278( 0) :     1.452924 a.u.    39.536 eV
 279( 0) :     1.455982 a.u.    39.619 eV
 280( 0) :     1.460887 a.u.    39.753 eV
 281( 0) :     1.465904 a.u.    39.889 eV
 282( 0) :     1.467791 a.u.    39.941 eV
 283( 0) :     1.468822 a.u.    39.969 eV
 284( 0) :     1.474988 a.u.    40.136 eV
 285( 0) :     1.476392 a.u.    40.175 eV
 286( 0) :     1.476632 a.u.    40.181 eV
 287( 0) :     1.479241 a.u.    40.252 eV
 288( 0) :     1.486646 a.u.    40.454 eV
 289( 0) :     1.487413 a.u.    40.475 eV
 290( 0) :     1.488815 a.u.    40.513 eV
 291( 0) :     1.489425 a.u.    40.529 eV
 292( 0) :     1.491333 a.u.    40.581 eV
 293( 0) :     1.495357 a.u.    40.691 eV
 294( 0) :     1.498060 a.u.    40.764 eV
 295( 0) :     1.499674 a.u.    40.808 eV
 296( 0) :     1.500848 a.u.    40.840 eV
 297( 0) :     1.501357 a.u.    40.854 eV
 298( 0) :     1.502663 a.u.    40.890 eV
 299( 0) :     1.504856 a.u.    40.949 eV
 300( 0) :     1.505278 a.u.    40.961 eV
 301( 0) :     1.508626 a.u.    41.052 eV
 302( 0) :     1.509728 a.u.    41.082 eV
 303( 0) :     1.511773 a.u.    41.137 eV
 304( 0) :     1.516636 a.u.    41.270 eV
 305( 0) :     1.517966 a.u.    41.306 eV
 306( 0) :     1.518992 a.u.    41.334 eV
 307( 0) :     1.519565 a.u.    41.349 eV
 308( 0) :     1.522488 a.u.    41.429 eV
 309( 0) :     1.523809 a.u.    41.465 eV
 310( 0) :     1.525942 a.u.    41.523 eV
 311( 0) :     1.526958 a.u.    41.551 eV
 312( 0) :     1.530202 a.u.    41.639 eV
 313( 0) :     1.534798 a.u.    41.764 eV
 314( 0) :     1.537212 a.u.    41.830 eV
 315( 0) :     1.537784 a.u.    41.845 eV
 316( 0) :     1.538598 a.u.    41.867 eV
 317( 0) :     1.539732 a.u.    41.898 eV
 318( 0) :     1.541558 a.u.    41.948 eV
 319( 0) :     1.546574 a.u.    42.084 eV
 320( 0) :     1.546845 a.u.    42.092 eV
 321( 0) :     1.551827 a.u.    42.227 eV
 322( 0) :     1.553337 a.u.    42.268 eV
 323( 0) :     1.555283 a.u.    42.321 eV
 324( 0) :     1.556860 a.u.    42.364 eV
 325( 0) :     1.559635 a.u.    42.440 eV
 326( 0) :     1.565211 a.u.    42.592 eV
 327( 0) :     1.567559 a.u.    42.655 eV
 328( 0) :     1.569190 a.u.    42.700 eV
 329( 0) :     1.569818 a.u.    42.717 eV
 330( 0) :     1.573100 a.u.    42.806 eV
 331( 0) :     1.575257 a.u.    42.865 eV
 332( 0) :     1.576931 a.u.    42.910 eV
 333( 0) :     1.584259 a.u.    43.110 eV
 334( 0) :     1.587409 a.u.    43.196 eV
 335( 0) :     1.589870 a.u.    43.263 eV
 336( 0) :     1.591696 a.u.    43.312 eV
 337( 0) :     1.594987 a.u.    43.402 eV
 338( 0) :     1.601762 a.u.    43.586 eV
 339( 0) :     1.603336 a.u.    43.629 eV
 340( 0) :     1.605506 a.u.    43.688 eV
 341( 0) :     1.609744 a.u.    43.803 eV
 342( 0) :     1.612930 a.u.    43.890 eV
 343( 0) :     1.617289 a.u.    44.009 eV
 344( 0) :     1.619825 a.u.    44.078 eV
 345( 0) :     1.625811 a.u.    44.241 eV
 346( 0) :     1.631968 a.u.    44.408 eV
 347( 0) :     1.638316 a.u.    44.581 eV
 348( 0) :     1.646567 a.u.    44.805 eV
 349( 0) :     1.650962 a.u.    44.925 eV
 350( 0) :     1.666157 a.u.    45.338 eV
 351( 0) :     1.670494 a.u.    45.456 eV
 352( 0) :     1.684017 a.u.    45.824 eV
 353( 0) :     1.696539 a.u.    46.165 eV
 354( 0) :     1.713622 a.u.    46.630 eV
 355( 0) :     1.726589 a.u.    46.983 eV
 356( 0) :     1.742727 a.u.    47.422 eV
 357( 0) :     1.759264 a.u.    47.872 eV
 358( 0) :     1.763594 a.u.    47.990 eV
 359( 0) :     1.792563 a.u.    48.778 eV
 360( 0) :     1.814078 a.u.    49.364 eV
 361( 0) :     1.833861 a.u.    49.902 eV
 362( 0) :     1.841687 a.u.    50.115 eV
 363( 0) :     1.855168 a.u.    50.482 eV
 364( 0) :     1.856912 a.u.    50.529 eV
 365( 0) :     1.904416 a.u.    51.822 eV
 366( 0) :     1.909635 a.u.    51.964 eV
 367( 0) :     1.944663 a.u.    52.917 eV
 368( 0) :     1.964511 a.u.    53.457 eV
 369( 0) :     2.106800 a.u.    57.329 eV
 370( 0) :     2.160652 a.u.    58.794 eV
 371( 0) :     2.203431 a.u.    59.958 eV
 372( 0) :     2.247550 a.u.    61.159 eV
 373( 0) :     2.318818 a.u.    63.098 eV
 374( 0) :     2.342934 a.u.    63.754 eV
 375( 0) :     2.375565 a.u.    64.642 eV
 376( 0) :     2.378795 a.u.    64.730 eV
 377( 0) :     2.387985 a.u.    64.980 eV
 378( 0) :     2.458477 a.u.    66.899 eV
 379( 0) :     2.463215 a.u.    67.027 eV
 380( 0) :     2.503998 a.u.    68.137 eV
 381( 0) :     2.507374 a.u.    68.229 eV
 382( 0) :     3.112099 a.u.    84.685 eV
 383( 0) :     3.417602 a.u.    92.998 eV
 384( 0) :     3.496867 a.u.    95.155 eV
 385( 0) :     3.566122 a.u.    97.039 eV
 386( 0) :     3.615204 a.u.    98.375 eV
 387( 0) :     3.656163 a.u.    99.489 eV
 388( 0) :     3.874856 a.u.   105.440 eV
 389( 0) :     3.878137 a.u.   105.529 eV
 390( 0) :     3.897463 a.u.   106.055 eV
 391( 0) :     3.899486 a.u.   106.110 eV
 392( 0) :     3.906416 a.u.   106.299 eV
 393( 0) :     3.916423 a.u.   106.571 eV
 394( 0) :     3.920648 a.u.   106.686 eV
 395( 0) :    23.278131 a.u.   633.430 eV
 396( 0) :    23.575581 a.u.   641.524 eV
 397( 0) :    23.772163 a.u.   646.873 eV
 398( 0) :    24.071731 a.u.   655.025 eV
 399( 0) :    24.332970 a.u.   662.134 eV
 400( 0) :    24.428910 a.u.   664.744 eV
 401( 0) :    24.526484 a.u.   667.400 eV
 402( 0) :    24.619791 a.u.   669.939 eV
 403( 0) :    25.007197 a.u.   680.480 eV
 404( 0) :    25.137828 a.u.   684.035 eV
 405( 0) :    25.283649 a.u.   688.003 eV
 406( 0) :    25.443415 a.u.   692.351 eV
 407( 0) :    25.532411 a.u.   694.772 eV
 408( 0) :    25.694039 a.u.   699.170 eV
 409( 0) :    25.826471 a.u.   702.774 eV
 410( 0) :    26.278604 a.u.   715.077 eV
 411( 0) :    26.319531 a.u.   716.191 eV
 412( 0) :    26.480215 a.u.   720.563 eV
 413( 0) :    26.590663 a.u.   723.569 eV
 414( 0) :    26.712130 a.u.   726.874 eV
 415( 0) :    26.777309 a.u.   728.648 eV
 416( 0) :    26.789168 a.u.   728.970 eV
 417( 0) :    27.086719 a.u.   737.067 eV
 418( 0) :    27.225624 a.u.   740.847 eV
 419( 0) :    27.392516 a.u.   745.388 eV
 420( 0) :    27.875914 a.u.   758.542 eV
 421( 0) :    27.904802 a.u.   759.328 eV
 422( 0) :    27.931284 a.u.   760.049 eV
 423( 0) :    28.182496 a.u.   766.885 eV
 424( 0) :    28.358985 a.u.   771.687 eV
 425( 0) :    43.870500 a.u.  1193.777 eV
 426( 0) :    43.951443 a.u.  1195.980 eV
 427( 0) :    43.988243 a.u.  1196.981 eV
 428( 0) :    44.029302 a.u.  1198.098 eV
 429( 0) :    44.044069 a.u.  1198.500 eV
 430( 0) :    44.069350 a.u.  1199.188 eV
 431( 0) :    44.119336 a.u.  1200.548 eV
 432( 0) :    44.136187 a.u.  1201.007 eV
 433( 0) :    44.178349 a.u.  1202.154 eV
 434( 0) :    44.180193 a.u.  1202.204 eV
 435( 0) :   205.079812 a.u.  5580.505 eV
 436( 0) :   205.112674 a.u.  5581.400 eV
 437( 0) :   205.127693 a.u.  5581.808 eV
 438( 0) :   205.144626 a.u.  5582.269 eV
 439( 0) :   205.148962 a.u.  5582.387 eV
 440( 0) :   205.164421 a.u.  5582.808 eV
 441( 0) :   205.179335 a.u.  5583.214 eV
 442( 0) :   205.193416 a.u.  5583.597 eV
 443( 0) :   205.203628 a.u.  5583.875 eV
 444( 0) :   205.205146 a.u.  5583.916 eV
-------
TIMINGS
-------

Total SCF time: 0 days 0 hours 3 min 22 sec 

Total time                  ....     202.067 sec
Sum of individual times     ....     200.490 sec  ( 99.2%)

Fock matrix formation       ....     196.850 sec  ( 97.4%)
  Split-RI-J                ....      77.263 sec  ( 39.2% of F)
  XC integration            ....     119.422 sec  ( 60.7% of F)
    Basis function eval.    ....      20.163 sec  ( 16.9% of XC)
    Density eval.           ....      43.745 sec  ( 36.6% of XC)
    XC-Functional eval.     ....       2.350 sec  (  2.0% of XC)
    XC-Potential eval.      ....      48.751 sec  ( 40.8% of XC)
Diagonalization             ....       0.939 sec  (  0.5%)
Density matrix formation    ....       0.224 sec  (  0.1%)
Population analysis         ....       0.265 sec  (  0.1%)
Initial guess               ....       0.066 sec  (  0.0%)
Orbital Transformation      ....       0.562 sec  (  0.3%)
Orbital Orthonormalization  ....       0.054 sec  (  0.0%)
DIIS solution               ....       0.000 sec  (  0.0%)
Grid generation             ....       1.581 sec  (  0.8%)

Maximum memory used throughout the entire SCF-calculation: 358.5 MB

-------------------------   --------------------
FINAL SINGLE POINT ENERGY     -2621.734803050577
-------------------------   --------------------

                                *** OPTIMIZATION RUN DONE ***

                            ***************************************
                            *     ORCA property calculations      *
                            ***************************************

                                    ---------------------
                                    Active property flags
                                    ---------------------
   (+) Dipole Moment


------------------------------------------------------------------------------
                       ORCA ELECTRIC PROPERTIES CALCULATION
------------------------------------------------------------------------------

Dipole Moment Calculation                       ... on
Quadrupole Moment Calculation                   ... off
Polarizability Calculation                      ... off
GBWName                                         ... pbe.gbw
Electron density                                ... pbe.scfp
The origin for moment calculation is the CENTER OF MASS  = (18.531131, 11.423511 14.451762)

-------------
DIPOLE MOMENT
-------------
                                X             Y             Z
Electronic contribution:      2.11884     -12.91677      25.97198
Nuclear contribution   :     -2.16580      12.70435     -25.66062
                        -----------------------------------------
Total Dipole Moment    :     -0.04696      -0.21243       0.31136
                        -----------------------------------------
Magnitude (a.u.)       :      0.37984
Magnitude (Debye)      :      0.96547



--------------------
Rotational spectrum 
--------------------
 
Rotational constants in cm-1:     0.002273     0.001569     0.001248 
Rotational constants in MHz :    68.143328    47.038427    37.424704 

 Dipole components along the rotational axes: 
x,y,z [a.u.] :    -0.149294     0.024430    -0.348412 
x,y,z [Debye]:    -0.379474     0.062097    -0.885593 

 

Timings for individual modules:

Sum of individual times         ...     8666.711 sec (= 144.445 min)
GTO integral calculation        ...      146.153 sec (=   2.436 min)   1.7 %
SCF iterations                  ...     7264.497 sec (= 121.075 min)  83.8 %
SCF Gradient evaluation         ...     1252.138 sec (=  20.869 min)  14.4 %
Geometry relaxation             ...        3.923 sec (=   0.065 min)   0.0 %
                             ****ORCA TERMINATED NORMALLY****
TOTAL RUN TIME: 0 days 2 hours 24 minutes 33 seconds 237 msec
