
                                 *****************
                                 * O   R   C   A *
                                 *****************

                                            #,                                       
                                            ###                                      
                                            ####                                     
                                            #####                                    
                                            ######                                   
                                           ########,                                 
                                     ,,################,,,,,                         
                               ,,#################################,,                 
                          ,,##########################################,,             
                       ,#########################################, ''#####,          
                    ,#############################################,,   '####,        
                  ,##################################################,,,,####,       
                ,###########''''           ''''###############################       
              ,#####''   ,,,,##########,,,,          '''####'''          '####       
            ,##' ,,,,###########################,,,                        '##       
           ' ,,###''''                  '''############,,,                           
         ,,##''                                '''############,,,,        ,,,,,,###''
      ,#''                                            '''#######################'''  
     '                                                          ''''####''''         
             ,#######,   #######,   ,#######,      ##                                
            ,#'     '#,  ##    ##  ,#'     '#,    #''#        ######   ,####,        
            ##       ##  ##   ,#'  ##            #'  '#       #        #'  '#        
            ##       ##  #######   ##           ,######,      #####,   #    #        
            '#,     ,#'  ##    ##  '#,     ,#' ,#      #,         ##   #,  ,#        
             '#######'   ##     ##  '#######'  #'      '#     #####' # '####'        



                  #######################################################
                  #                        -***-                        #
                  #          Department of theory and spectroscopy      #
                  #    Directorship and core code : Frank Neese         #
                  #        Max Planck Institute fuer Kohlenforschung    #
                  #                Kaiser Wilhelm Platz 1               #
                  #                 D-45470 Muelheim/Ruhr               #
                  #                      Germany                        #
                  #                                                     #
                  #                  All rights reserved                #
                  #                        -***-                        #
                  #######################################################


                         Program Version 5.0.3 -  RELEASE  -


 With contributions from (in alphabetic order):
   Daniel Aravena         : Magnetic Suceptibility
   Michael Atanasov       : Ab Initio Ligand Field Theory (pilot matlab implementation)
   Alexander A. Auer      : GIAO ZORA, VPT2 properties, NMR spectrum
   Ute Becker             : Parallelization
   Giovanni Bistoni       : ED, misc. LED, open-shell LED, HFLD
   Martin Brehm           : Molecular dynamics
   Dmytro Bykov           : SCF Hessian
   Vijay G. Chilkuri      : MRCI spin determinant printing, contributions to CSF-ICE
   Dipayan Datta          : RHF DLPNO-CCSD density
   Achintya Kumar Dutta   : EOM-CC, STEOM-CC
   Dmitry Ganyushin       : Spin-Orbit,Spin-Spin,Magnetic field MRCI
   Miquel Garcia          : C-PCM and meta-GGA Hessian, CC/C-PCM, Gaussian charge scheme
   Yang Guo               : DLPNO-NEVPT2, F12-NEVPT2, CIM, IAO-localization
   Andreas Hansen         : Spin unrestricted coupled pair/coupled cluster methods
   Benjamin Helmich-Paris : MC-RPA, TRAH-SCF, COSX integrals
   Lee Huntington         : MR-EOM, pCC
   Robert Izsak           : Overlap fitted RIJCOSX, COSX-SCS-MP3, EOM
   Marcus Kettner         : VPT2
   Christian Kollmar      : KDIIS, OOCD, Brueckner-CCSD(T), CCSD density, CASPT2, CASPT2-K
   Simone Kossmann        : Meta GGA functionals, TD-DFT gradient, OOMP2, MP2 Hessian
   Martin Krupicka        : Initial AUTO-CI
   Lucas Lang             : DCDCAS
   Marvin Lechner         : AUTO-CI (C++ implementation), FIC-MRCC
   Dagmar Lenk            : GEPOL surface, SMD
   Dimitrios Liakos       : Extrapolation schemes; Compound Job, initial MDCI parallelization
   Dimitrios Manganas     : Further ROCIS development; embedding schemes
   Dimitrios Pantazis     : SARC Basis sets
   Anastasios Papadopoulos: AUTO-CI, single reference methods and gradients
   Taras Petrenko         : DFT Hessian,TD-DFT gradient, ASA, ECA, R-Raman, ABS, FL, XAS/XES, NRVS
   Peter Pinski           : DLPNO-MP2, DLPNO-MP2 Gradient
   Christoph Reimann      : Effective Core Potentials
   Marius Retegan         : Local ZFS, SOC
   Christoph Riplinger    : Optimizer, TS searches, QM/MM, DLPNO-CCSD(T), (RO)-DLPNO pert. Triples
   Tobias Risthaus        : Range-separated hybrids, TD-DFT gradient, RPA, STAB
   Michael Roemelt        : Original ROCIS implementation
   Masaaki Saitow         : Open-shell DLPNO-CCSD energy and density
   Barbara Sandhoefer     : DKH picture change effects
   Avijit Sen             : IP-ROCIS
   Kantharuban Sivalingam : CASSCF convergence, NEVPT2, FIC-MRCI
   Bernardo de Souza      : ESD, SOC TD-DFT
   Georgi Stoychev        : AutoAux, RI-MP2 NMR, DLPNO-MP2 response
   Willem Van den Heuvel  : Paramagnetic NMR
   Boris Wezisla          : Elementary symmetry handling
   Frank Wennmohs         : Technical directorship


 We gratefully acknowledge several colleagues who have allowed us to
 interface, adapt or use parts of their codes:
   Stefan Grimme, W. Hujo, H. Kruse, P. Pracht,  : VdW corrections, initial TS optimization,
                  C. Bannwarth, S. Ehlert          DFT functionals, gCP, sTDA/sTD-DF
   Ed Valeev, F. Pavosevic, A. Kumar             : LibInt (2-el integral package), F12 methods
   Garnet Chan, S. Sharma, J. Yang, R. Olivares  : DMRG
   Ulf Ekstrom                                   : XCFun DFT Library
   Mihaly Kallay                                 : mrcc  (arbitrary order and MRCC methods)
   Jiri Pittner, Ondrej Demel                    : Mk-CCSD
   Frank Weinhold                                : gennbo (NPA and NBO analysis)
   Christopher J. Cramer and Donald G. Truhlar   : smd solvation model
   Lars Goerigk                                  : TD-DFT with DH, B97 family of functionals
   V. Asgeirsson, H. Jonsson                     : NEB implementation
   FAccTs GmbH                                   : IRC, NEB, NEB-TS, DLPNO-Multilevel, CI-OPT
                                                   MM, QMMM, 2- and 3-layer-ONIOM, Crystal-QMMM,
                                                   LR-CPCM, SF, NACMEs, symmetry and pop. for TD-DFT,
                                                   nearIR, NL-DFT gradient (VV10), updates on ESD,
                                                   ML-optimized integration grids
   S Lehtola, MJT Oliveira, MAL Marques          : LibXC Library
   Liviu Ungur et al                             : ANISO software


 Your calculation uses the libint2 library for the computation of 2-el integrals
 For citations please refer to: http://libint.valeyev.net

 Your ORCA version has been built with support for libXC version: 5.1.0
 For citations please refer to: https://tddft.org/programs/libxc/

 This ORCA versions uses:
   CBLAS   interface :  Fast vector & matrix operations
   LAPACKE interface :  Fast linear algebra routines
   SCALAPACK package :  Parallel linear algebra routines
   Shared memory     :  Shared parallel matrices
   BLAS/LAPACK       :  OpenBLAS 0.3.15  USE64BITINT DYNAMIC_ARCH NO_AFFINITY Haswell SINGLE_THREADED
        Core in use  :  Haswell
   Copyright (c) 2011-2014, The OpenBLAS Project




***************************************
The coordinates will be read from file: pbe.xyz
***************************************


================================================================================

cite the ECPs for Au [Def2-ECP] as follows:
Ce-Yb(ecp-28): M. Dolg, H. Stoll, H.Preuss, J. Chem. Phys., 1989, 90, 1730-1734.
Y-Cd(ecp-28), Hf-Hg(ecp-46): D. Andrae,U. Haeussermann, M. Dolg, H. Stoll, H. Preuss, Theor. Chim. Acta, 1990, 77, 123-141.
In-Sb(ecp-28), Tl-Bi(ecp-46): B. Metz, H. Stoll, M. Dolg, J. Chem. Phys., 2000, 113, 2563-2569.
Te-Xe(ecp-28), Po-Rn(ecp-46): K. A. Peterson, D. Figgen, E. Goll, H. Stoll, M. Dolg, J. Chem. Phys., 2003, 119, 11113-11123.
Rb(ecp-28), Cs(ecp-46): T. Leininger, A. Nicklass, W. Kuechle, H. Stoll, M. Dolg, A. Bergner, Chem. Phys. Lett., 1996, 255, 274-280.
Sr(ecp-28), Ba(ecp-46): M. Kaupp, P. V. Schleyer, H. Stoll and H. Preuss, J. Chem. Phys., 1991, 94, 1360-1366.
La(ecp-46): M. Dolg, H. Stoll, A. Savin, H. Preuss, Theor. Chim. Acta, 1989, 75, 173-194.
Lu(ecp-28): X. Cao, M. Dolg, J. Chem. Phys., 2001, 115, 7348-7355.

ECP parameters for Au [Def2-ECP] have been obtained from:
TURBOMOLE (7.0.2)

----- Orbital basis set information -----
Your calculation utilizes the basis: def2-TZVP
   F. Weigend and R. Ahlrichs, Phys. Chem. Chem. Phys. 7, 3297 (2005).

----- AuxJ basis set information -----
Your calculation utilizes the auxiliary basis: def2/J
   F. Weigend, Phys. Chem. Chem. Phys. 8, 1057 (2006).

----- AuxC basis set information -----
Your calculation utilizes the auxiliary basis: def2-TZVP/C
  H-La, Hf-Rn : A. Hellweg, C. Hattig, S. Hofener and W. Klopper, Theor. Chem. Acc. 117, 587 (2007).
        Ce-Lu : J. Chmela and M. E. Harding, Mol. Phys. (2018).

================================================================================
                                        WARNINGS
                       Please study these warnings very carefully!
================================================================================


INFO   : the flag for use of the SHARK integral package has been found!

================================================================================
                                       INPUT FILE
================================================================================
NAME = casscf.inp
|  1> !CASSCF def2-TZVP def2-TZVP/C
|  2> !MOREAD RIJCOSX
|  3> %maxcore 6000
|  4> %moinp "pbe.qro"
|  5> %pal nprocs 2 end 
|  6> 
|  7> %casscf
|  8>  mult 5,3
|  9>  bweight 1,1
| 10>  nroots 5,45
| 11>  nel 6
| 12>  norb 5
| 13> end
| 14> 
| 15> 
| 16> *xyzfile 0 5 pbe.xyz
| 17> 
| 18> 
| 19>                          ****END OF INPUT****
================================================================================

                       ****************************
                       * Single Point Calculation *
                       ****************************

---------------------------------
CARTESIAN COORDINATES (ANGSTROEM)
---------------------------------
  Au     6.242057    7.616814    9.596161
  Au     8.992418    7.808188    9.469127
  Au     8.828230   10.483443    5.652705
  Au    11.434070    9.532791    5.989987
  Au     9.897492   10.272155    8.309779
  Au    11.534761    7.900982    8.312534
  Au     6.069878   10.425135    5.585283
  Au     7.215914    9.531898    7.903313
  Au     8.850198    5.794376    5.213794
  Au    11.503021    6.690118    5.728705
  Au     9.733958    8.278339    4.063815
  Au     7.072670    7.941412    5.077442
  Au     7.171636    6.328865    7.378391
  Au     9.896627    5.598202    7.886611
  Cr     9.274990    8.019550    6.755307

----------------------------
CARTESIAN COORDINATES (A.U.)
----------------------------
  NO LB      ZA    FRAG     MASS         X           Y           Z
   0 Au   19.0000*   0   196.966   11.795778   14.393693   18.134115
   1 Au   19.0000*   0   196.966   16.993207   14.755337   17.894057
   2 Au   19.0000*   0   196.966   16.682937   19.810837   10.682064
   3 Au   19.0000*   0   196.966   21.607260   18.014365   11.319435
   4 Au   19.0000*   0   196.966   18.703549   19.411561   15.703207
   5 Au   19.0000*   0   196.966   21.797539   14.930693   15.708412
   6 Au   19.0000*   0   196.966   11.470407   19.700650   10.554655
   7 Au   19.0000*   0   196.966   13.636100   18.012677   14.935098
   8 Au   19.0000*   0   196.966   16.724451   10.949784    9.852642
   9 Au   19.0000*   0   196.966   21.737559   12.642491   10.825683
  10 Au   19.0000*   0   196.966   18.394514   15.643794    7.679498
  11 Au   19.0000*   0   196.966   13.365410   15.007093    9.594974
  12 Au   19.0000*   0   196.966   13.552428   11.959821   13.943138
  13 Au   19.0000*   0   196.966   18.701915   10.579069   14.903534
  14 Cr   24.0000    0    52.000   17.527191   15.154753   12.765680
* core charge reduced due to ECP

--------------------------------
INTERNAL COORDINATES (ANGSTROEM)
--------------------------------
 Au     0   0   0     0.000000000000     0.00000000     0.00000000
 Au     1   0   0     2.759936021386     0.00000000     0.00000000
 Au     2   1   0     4.663585314497    92.42771910     0.00000000
 Au     3   2   1     2.794261806491    70.92685227   194.53602414
 Au     2   1   3     2.869561487697   113.10677510    30.04621195
 Au     2   1   3     2.794606886792   158.11402474   320.26494886
 Au     3   2   1     2.759792081770    92.46793488   359.94460361
 Au     1   2   3     2.735264890877    64.41582381   346.78559538
 Au     6   2   1     4.609431068924    74.52707137   338.20803690
 Au     9   6   2     2.846919788109    36.09092439   180.04921782
 Au     4   3   2     2.859050178194    60.88330830   101.28398655
 Au     7   3   2     2.726238281526    69.88907129   293.11646511
 Au     1   2   3     2.727898987946    69.86292334    66.90894524
 Au     6   2   1     2.857916788565    60.88749817   301.20994172
 Cr     3   2   1     2.736073536997    31.55770734   256.97766846

---------------------------
INTERNAL COORDINATES (A.U.)
---------------------------
 Au     0   0   0     0.000000000000     0.00000000     0.00000000
 Au     1   0   0     5.215523227564     0.00000000     0.00000000
 Au     2   1   0     8.812899046575    92.42771910     0.00000000
 Au     3   2   1     5.280389560744    70.92685227   194.53602414
 Au     2   1   3     5.422685336195   113.10677510    30.04621195
 Au     2   1   3     5.281041668007   158.11402474   320.26494886
 Au     3   2   1     5.215251221109    92.46793488   359.94460361
 Au     1   2   3     5.168901547487    64.41582381   346.78559538
 Au     6   2   1     8.710562353454    74.52707137   338.20803690
 Au     9   6   2     5.379898724768    36.09092439   180.04921782
 Au     4   3   2     5.402821839926    60.88330830   101.28398655
 Au     7   3   2     5.151843727897    69.88907129   293.11646511
 Au     1   2   3     5.154982008218    69.86292334    66.90894524
 Au     6   2   1     5.400680043923    60.88749817   301.20994172
 Cr     3   2   1     5.170429667194    31.55770734   256.97766846

---------------------
BASIS SET INFORMATION
---------------------
There are 2 groups of distinct atoms

 Group   1 Type Au  : 8s7p6d1f contracted to 6s4p3d1f pattern {311111/4111/411/1}
 Group   2 Type Cr  : 17s11p7d1f contracted to 6s4p4d1f pattern {842111/6311/4111/1}

Atom   0Au   basis set group =>   1
Atom   1Au   basis set group =>   1
Atom   2Au   basis set group =>   1
Atom   3Au   basis set group =>   1
Atom   4Au   basis set group =>   1
Atom   5Au   basis set group =>   1
Atom   6Au   basis set group =>   1
Atom   7Au   basis set group =>   1
Atom   8Au   basis set group =>   1
Atom   9Au   basis set group =>   1
Atom  10Au   basis set group =>   1
Atom  11Au   basis set group =>   1
Atom  12Au   basis set group =>   1
Atom  13Au   basis set group =>   1
Atom  14Cr   basis set group =>   2
---------------------------------
AUXILIARY/J BASIS SET INFORMATION
---------------------------------
There are 2 groups of distinct atoms

 Group   1 Type Au  : 11s5p5d3f3g contracted to 8s5p5d2f3g pattern {41111111/11111/11111/21/111}
 Group   2 Type Cr  : 19s5p5d3f3g contracted to 8s5p5d2f3g pattern {121111111/11111/11111/21/111}

Atom   0Au   basis set group =>   1
Atom   1Au   basis set group =>   1
Atom   2Au   basis set group =>   1
Atom   3Au   basis set group =>   1
Atom   4Au   basis set group =>   1
Atom   5Au   basis set group =>   1
Atom   6Au   basis set group =>   1
Atom   7Au   basis set group =>   1
Atom   8Au   basis set group =>   1
Atom   9Au   basis set group =>   1
Atom  10Au   basis set group =>   1
Atom  11Au   basis set group =>   1
Atom  12Au   basis set group =>   1
Atom  13Au   basis set group =>   1
Atom  14Cr   basis set group =>   2
---------------------------------
AUXILIARY/C BASIS SET INFORMATION
---------------------------------
There are 2 groups of distinct atoms

 Group   1 Type Au  : 8s8p7d5f3g2h contracted to 8s8p7d5f3g2h pattern {11111111/11111111/1111111/11111/111/11}
 Group   2 Type Cr  : 11s9p8d6f5g2h contracted to 9s8p8d6f5g2h pattern {311111111/21111111/11111111/111111/11111/11}

Atom   0Au   basis set group =>   1
Atom   1Au   basis set group =>   1
Atom   2Au   basis set group =>   1
Atom   3Au   basis set group =>   1
Atom   4Au   basis set group =>   1
Atom   5Au   basis set group =>   1
Atom   6Au   basis set group =>   1
Atom   7Au   basis set group =>   1
Atom   8Au   basis set group =>   1
Atom   9Au   basis set group =>   1
Atom  10Au   basis set group =>   1
Atom  11Au   basis set group =>   1
Atom  12Au   basis set group =>   1
Atom  13Au   basis set group =>   1
Atom  14Cr   basis set group =>   2
-------------------------
ECP PARAMETER INFORMATION
-------------------------

 Group 1, Type Au ECP Def2-ECP (replacing 60 core electrons, lmax=3)

Atom   0Au   ECP group =>   1
Atom   1Au   ECP group =>   1
Atom   2Au   ECP group =>   1
Atom   3Au   ECP group =>   1
Atom   4Au   ECP group =>   1
Atom   5Au   ECP group =>   1
Atom   6Au   ECP group =>   1
Atom   7Au   ECP group =>   1
Atom   8Au   ECP group =>   1
Atom   9Au   ECP group =>   1
Atom  10Au   ECP group =>   1
Atom  11Au   ECP group =>   1
Atom  12Au   ECP group =>   1
Atom  13Au   ECP group =>   1



           ************************************************************
           *        Program running with 2 parallel MPI-processes     *
           *              working on a common directory               *
           ************************************************************
------------------------------------------------------------------------------
                           ORCA GTO INTEGRAL CALCULATION
                           -- RI-GTO INTEGRALS CHOSEN --
------------------------------------------------------------------------------
------------------------------------------------------------------------------
                   ___                                                        
                  /   \      - P O W E R E D   B Y -                         
                 /     \                                                     
                 |  |  |   _    _      __       _____    __    __             
                 |  |  |  | |  | |    /  \     |  _  \  |  |  /  |          
                  \  \/   | |  | |   /    \    | | | |  |  | /  /          
                 / \  \   | |__| |  /  /\  \   | |_| |  |  |/  /          
                |  |  |   |  __  | /  /__\  \  |    /   |      \           
                |  |  |   | |  | | |   __   |  |    \   |  |\   \          
                \     /   | |  | | |  |  |  |  | |\  \  |  | \   \       
                 \___/    |_|  |_| |__|  |__|  |_| \__\ |__|  \__/        
                                                                              
                      - O R C A' S   B I G   F R I E N D -                    
                                      &                                       
                       - I N T E G R A L  F E E D E R -                       
                                                                              
 v1 FN, 2020, v2 2021                                                         
------------------------------------------------------------------------------


Reading SHARK input file casscf.SHARKINP.tmp ... ok
----------------------
SHARK INTEGRAL PACKAGE
----------------------

Number of atoms                             ...     15
Number of basis functions                   ...    605
Number of shells                            ...    211
Maximum angular momentum                    ...      3
Integral batch strategy                     ... SHARK/LIBINT Hybrid
RI-J (if used) integral strategy            ... SPLIT-RIJ (Revised 2003 algorithm where possible)
Printlevel                                  ...      1
Contraction scheme used                     ... SEGMENTED contraction
Coulomb Range Separation                    ... NOT USED
Exchange Range Separation                   ... NOT USED
Finite Nucleus Model                        ... NOT USED
Auxiliary Coulomb fitting basis             ... AVAILABLE
   # of basis functions in Aux-J            ...   1335
   # of shells in Aux-J                     ...    345
   Maximum angular momentum in Aux-J        ...      4
Auxiliary J/K fitting basis                 ... NOT available
Auxiliary Correlation fitting basis         ... AVAILABLE
   # of basis functions in Aux-C            ...   2296
   # of shells in Aux-C                     ...    500
   Maximum angular momentum in Aux-C        ...      5
Auxiliary 'external' fitting basis          ... NOT available
Integral threshold                          ...     1.000000e-10
Primitive cut-off                           ...     1.000000e-11
Primitive pair pre-selection threshold      ...     1.000000e-11

Calculating pre-screening integrals         ... done (  0.2 sec) Dimension = 211
Organizing shell pair data                  ... done (  0.3 sec)
Shell pair information
Total number of shell pairs                 ...     22366
Shell pairs after pre-screening             ...     18057
Total number of primitive shell pairs       ...     59609
Primitive shell pairs kept                  ...     35110
          la=0 lb=0:   2830 shell pairs
          la=1 lb=0:   4117 shell pairs
          la=1 lb=1:   1541 shell pairs
          la=2 lb=0:   3598 shell pairs
          la=2 lb=1:   2494 shell pairs
          la=2 lb=2:   1029 shell pairs
          la=3 lb=0:    974 shell pairs
          la=3 lb=1:    730 shell pairs
          la=3 lb=2:    642 shell pairs
          la=3 lb=3:    102 shell pairs

Calculating one electron integrals          ... done (  0.0 sec)
Calculating ECP integrals                   ... done (  7.4 sec)
Calculating RI/J V-Matrix + Cholesky decomp.... done (  0.1 sec)
Calculating RI/C V-Matrix + Cholesky decomp.... done (  0.2 sec)
Calculating Nuclear repulsion               ... done (  0.0 sec) ENN=   5661.486425635314 Eh

SHARK setup successfully completed in   8.7 seconds

Maximum memory used throughout the entire GTOINT-calculation: 89.9 MB


           ************************************************************
           *        Program running with 2 parallel MPI-processes     *
           *              working on a common directory               *
           ************************************************************
-------------------------------------------------------------------------------
                                 ORCA SCF
-------------------------------------------------------------------------------

------------
SCF SETTINGS
------------
Hamiltonian:
 Ab initio Hamiltonian  Method          .... Hartree-Fock(GTOs)
 RI-approximation to the Coulomb term is turned on
   Number of AuxJ basis functions       .... 1335
   RIJ-COSX (HFX calculated with COS-X)).... on


General Settings:
 Integral files         IntName         .... casscf
 Hartree-Fock type      HFTyp           .... CASSCF
 Total Charge           Charge          ....    0
 Multiplicity           Mult            ....    5
 Number of Electrons    NEL             ....  290
 Basis Dimension        Dim             ....  605
 Nuclear Repulsion      ENuc            ....   5661.4864256353 Eh


Diagonalization of the overlap matrix:
Smallest eigenvalue                        ... 5.413e-05
Time for diagonalization                   ...    0.039 sec
Threshold for overlap eigenvalues          ... 1.000e-08
Number of eigenvalues below threshold      ... 0
Time for construction of square roots      ...    0.021 sec
Total time needed                          ...    0.061 sec

---------------------
INITIAL GUESS: MOREAD
---------------------
Guess MOs are being read from file: pbe.qro
Input Geometry matches current geometry (good)
Input basis set matches current basis set (good)
MOs were renormalized
Gram-Schmidt orthogonalization of all MOs with pivot on actives
                      ------------------
                      INITIAL GUESS DONE (   1.1 sec)
                      ------------------
--------------------
COSX GRID GENERATION
--------------------

GRIDX 1
-------
General Integration Accuracy     IntAcc      ... 3.816
Radial Grid Type                 RadialGrid  ... OptM3 with GC (2021)
Angular Grid (max. ang.)         AngularGrid ... 1 (Lebedev-50)
Angular grid pruning method      GridPruning ... 4 (adaptive)
Weight generation scheme         WeightScheme... Becke
Basis function cutoff            BFCut       ... 1.0000e-10
Integration weight cutoff        WCut        ... 1.0000e-14
Angular grids for H and He will be reduced by one unit
Partially contracted basis set               ... on
Rotationally invariant grid construction     ... off

Total number of grid points                  ...    17356
Total number of batches                      ...      279
Average number of points per batch           ...       62
Average number of grid points per atom       ...     1157
UseSFitting                                  ... on

GRIDX 2
-------
General Integration Accuracy     IntAcc      ... 4.020
Radial Grid Type                 RadialGrid  ... OptM3 with GC (2021)
Angular Grid (max. ang.)         AngularGrid ... 2 (Lebedev-110)
Angular grid pruning method      GridPruning ... 4 (adaptive)
Weight generation scheme         WeightScheme... Becke
Basis function cutoff            BFCut       ... 1.0000e-10
Integration weight cutoff        WCut        ... 1.0000e-14
Angular grids for H and He will be reduced by one unit
Partially contracted basis set               ... on
Rotationally invariant grid construction     ... off

Total number of grid points                  ...    52569
Total number of batches                      ...      831
Average number of points per batch           ...       63
Average number of grid points per atom       ...     3505
UseSFitting                                  ... on

GRIDX 3
-------
General Integration Accuracy     IntAcc      ... 4.338
Radial Grid Type                 RadialGrid  ... OptM3 with GC (2021)
Angular Grid (max. ang.)         AngularGrid ... 3 (Lebedev-194)
Angular grid pruning method      GridPruning ... 4 (adaptive)
Weight generation scheme         WeightScheme... Becke
Basis function cutoff            BFCut       ... 1.0000e-10
Integration weight cutoff        WCut        ... 1.0000e-14
Angular grids for H and He will be reduced by one unit
Partially contracted basis set               ... on
Rotationally invariant grid construction     ... off

Total number of grid points                  ...    95627
Total number of batches                      ...     1501
Average number of points per batch           ...       63
Average number of grid points per atom       ...     6375
UseSFitting                                  ... on

Time for X-Grid setup             =    1.885 sec



 ... the calculation is a CASSCF calculation -I'm leaving here GOOD LUCK!!!



           ************************************************************
           *        Program running with 2 parallel MPI-processes     *
           *              working on a common directory               *
           ************************************************************
-------------------------------------------------------------------------------
                              ORCA-CASSCF
-------------------------------------------------------------------------------

Setting up the integral package       ... done
Setting up the integral package (RI)  ... done
Building the CAS space                ... done (5 configurations for Mult=5)
Building the CAS space                ... done (35 configurations for Mult=3)

SYSTEM-SPECIFIC SETTINGS:
Number of active electrons          ...    6
Number of active orbitals           ...    5
Total number of electrons           ...  290
Total number of orbitals            ...  605
Total number aux. functions         ... 2296

Determined orbital ranges:
   Internal       0 -  141 ( 142 orbitals)
   Active       142 -  146 (   5 orbitals)
   External     147 -  604 ( 458 orbitals)
Number of rotation parameters      ...  68036

CI-STEP:
CI strategy                         ... General CI
Number of multiplicity blocks       ...    2
BLOCK  1 WEIGHT=   0.5000
  Multiplicity                      ...    5
  #(Configurations)                 ...    5
  #(CSFs)                           ...    5
  #(Roots)                          ...    5
    ROOT=0 WEIGHT=    0.100000
    ROOT=1 WEIGHT=    0.100000
    ROOT=2 WEIGHT=    0.100000
    ROOT=3 WEIGHT=    0.100000
    ROOT=4 WEIGHT=    0.100000

BLOCK  2 WEIGHT=   0.5000
  Multiplicity                      ...    3
  #(Configurations)                 ...   35
  #(CSFs)                           ...   45
  #(Roots)                          ...   45
    ROOT=0 WEIGHT=    0.011111
    ROOT=1 WEIGHT=    0.011111
    ROOT=2 WEIGHT=    0.011111
    ROOT=3 WEIGHT=    0.011111
    ROOT=4 WEIGHT=    0.011111
    ROOT=5 WEIGHT=    0.011111
    ROOT=6 WEIGHT=    0.011111
    ROOT=7 WEIGHT=    0.011111
    ROOT=8 WEIGHT=    0.011111
    ROOT=9 WEIGHT=    0.011111
    ROOT=10 WEIGHT=    0.011111
    ROOT=11 WEIGHT=    0.011111
    ROOT=12 WEIGHT=    0.011111
    ROOT=13 WEIGHT=    0.011111
    ROOT=14 WEIGHT=    0.011111
    ROOT=15 WEIGHT=    0.011111
    ROOT=16 WEIGHT=    0.011111
    ROOT=17 WEIGHT=    0.011111
    ROOT=18 WEIGHT=    0.011111
    ROOT=19 WEIGHT=    0.011111
    ROOT=20 WEIGHT=    0.011111
    ROOT=21 WEIGHT=    0.011111
    ROOT=22 WEIGHT=    0.011111
    ROOT=23 WEIGHT=    0.011111
    ROOT=24 WEIGHT=    0.011111
    ROOT=25 WEIGHT=    0.011111
    ROOT=26 WEIGHT=    0.011111
    ROOT=27 WEIGHT=    0.011111
    ROOT=28 WEIGHT=    0.011111
    ROOT=29 WEIGHT=    0.011111
    ROOT=30 WEIGHT=    0.011111
    ROOT=31 WEIGHT=    0.011111
    ROOT=32 WEIGHT=    0.011111
    ROOT=33 WEIGHT=    0.011111
    ROOT=34 WEIGHT=    0.011111
    ROOT=35 WEIGHT=    0.011111
    ROOT=36 WEIGHT=    0.011111
    ROOT=37 WEIGHT=    0.011111
    ROOT=38 WEIGHT=    0.011111
    ROOT=39 WEIGHT=    0.011111
    ROOT=40 WEIGHT=    0.011111
    ROOT=41 WEIGHT=    0.011111
    ROOT=42 WEIGHT=    0.011111
    ROOT=43 WEIGHT=    0.011111
    ROOT=44 WEIGHT=    0.011111

  PrintLevel                        ...    1
  N(GuessMat)                       ...       512
  MaxDim(CI)                        ...        10
  MaxIter(CI)                       ...        64
  Energy Tolerance CI               ...  1.00e-08
  Residual Tolerance CI             ...  1.00e-08
  Shift(CI)                         ...  1.00e-04

INTEGRAL-TRANSFORMATION-STEP:
  Algorithm                         ... RI-MO

ORBITAL-IMPROVEMENT-STEP:
  Algorithm                         ... SuperCI(PT)
  Default Parametrization           ... CAYLEY
  Act-Act rotations                 ... depends on algorithm used

  Note: SuperCI(PT) will ignore FreezeIE, FreezeAct and FreezeGrad. In general Default settings are encouraged.
        In conjunction with ShiftUp, ShiftDn or GradScaling the performance of SuperCI(PT) is less optimal.  

  MaxRot                            ... 2.00e-01 
  Max. no of vectors (DIIS)         ... 15
  DThresh (cut-off) metric          ... 1.00e-06
  Switch step at gradient           ...  3.00e-02 
  Switch step at iteration          ...        50   
  Switch step to                    ... SuperCI(PT)    

SCF-SETTINGS:
  Incremental                       ... off
  RIJCOSX approximation             ... on
  UseFinalGrid                      ... on
  RI-JK approximation               ... off
  AO integral handling              ... DIRECT
  Integral Neglect Thresh           ...  1.00e-10
  Primitive cutoff TCut             ...  1.00e-11
  Energy convergence tolerance      ...  1.00e-07
  Orbital gradient convergence      ...  1.00e-03
  Max. number of iterations         ...        75  


FINAL ORBITALS:
  Active   Orbitals                 ... natural 
  Internal Orbitals                 ... canonical 
  External Orbitals                 ... canonical 

------------------
CAS-SCF ITERATIONS
------------------


MACRO-ITERATION   1: 
   --- Inactive Energy E0 = -2924.14444205 Eh
CI-ITERATION   0: 
 -2930.093529559   0.000000000000 (    0.00)
 -2930.080521509   0.000000000000
 -2929.974453004   0.000000000000
 -2929.867151083   0.000000000000
 -2929.866160795   0.000000000000
   CI-PROBLEM SOLVED
   DENSITIES MADE
CI-ITERATION   0: 
 -2930.084861693   0.000000000000 (    0.00)
 -2930.071438528   0.000000000000
 -2930.060512959   0.000000000000
 -2930.049023230   0.000000000000
 -2930.046850559   0.000000000000
 -2930.045123432   0.000000000000
 -2930.042869167   0.000000000000
 -2930.038307044   0.000000000000
 -2930.031874948   0.000000000000
 -2930.030695201   0.000000000000
 -2930.029748061   0.000000000000
 -2930.026136252   0.000000000000
 -2930.024626721   0.000000000000
 -2930.016922597   0.000000000000
 -2930.014274742   0.000000000000
 -2929.981125592   0.000000000000
 -2929.972413113   0.000000000000
 -2929.971976723   0.000000000000
 -2929.969952706   0.000000000000
 -2929.964218309   0.000000000000
 -2929.962364407   0.000000000000
 -2929.954230484   0.000000000000
 -2929.953004104   0.000000000000
 -2929.948469621   0.000000000000
 -2929.926983808   0.000000000000
 -2929.918098685   0.000000000000
 -2929.914243716   0.000000000000
 -2929.873227856   0.000000000000
 -2929.869121176   0.000000000000
 -2929.853439870   0.000000000000
 -2929.847655104   0.000000000000
 -2929.847531616   0.000000000000
 -2929.844338348   0.000000000000
 -2929.843487311   0.000000000000
 -2929.829657318   0.000000000000
 -2929.826872825   0.000000000000
 -2929.824342733   0.000000000000
 -2929.813268229   0.000000000000
 -2929.685513984   0.000000000000
 -2929.654153384   0.000000000000
 -2929.645321072   0.000000000000
 -2929.625193843   0.000000000000
 -2929.619450649   0.000000000000
 -2929.474928465   0.000000000000
 -2929.448778514   0.000000000000
   CI-PROBLEM SOLVED
   DENSITIES MADE

                 <<<<<<<<<<<<<<<<<<INITIAL CI STATE CHECK>>>>>>>>>>>>>>>>>>

BLOCK  1 MULT= 5 NROOTS= 5 
ROOT   0:  E=   -2930.0935295590 Eh
      0.98348 [     4]: 21111
      0.01639 [     3]: 12111
ROOT   1:  E=   -2930.0805215095 Eh  0.354 eV   2854.9 cm**-1
      0.98261 [     3]: 12111
      0.01630 [     4]: 21111
ROOT   2:  E=   -2929.9744530041 Eh  3.240 eV  26134.3 cm**-1
      0.99932 [     0]: 11112
ROOT   3:  E=   -2929.8671510831 Eh  6.160 eV  49684.3 cm**-1
      0.69219 [     2]: 11211
      0.30754 [     1]: 11121
ROOT   4:  E=   -2929.8661607951 Eh  6.187 eV  49901.7 cm**-1
      0.69178 [     1]: 11121
      0.30767 [     2]: 11211

BLOCK  2 MULT= 3 NROOTS=45 
ROOT   0:  E=   -2930.0848616929 Eh
      0.99304 [    34]: 22110
ROOT   1:  E=   -2930.0714385277 Eh  0.365 eV   2946.0 cm**-1
      0.97362 [    28]: 21111
      0.01638 [    33]: 22101
      0.00687 [    18]: 12111
ROOT   2:  E=   -2930.0605129595 Eh  0.663 eV   5343.9 cm**-1
      0.94627 [    18]: 12111
      0.04066 [    33]: 22101
      0.00540 [    28]: 21111
      0.00523 [    25]: 21012
ROOT   3:  E=   -2930.0490232297 Eh  0.975 eV   7865.6 cm**-1
      0.82969 [    27]: 21102
      0.09375 [    33]: 22101
      0.02275 [    29]: 21120
      0.01625 [    17]: 12102
      0.01033 [    28]: 21111
      0.00802 [    22]: 20112
      0.00743 [    20]: 12201
      0.00451 [    18]: 12111
ROOT   4:  E=   -2930.0468505589 Eh  1.034 eV   8342.5 cm**-1
      0.66749 [    33]: 22101
      0.17636 [    28]: 21111
      0.09773 [    27]: 21102
      0.04034 [    18]: 12111
      0.00759 [    32]: 22011
ROOT   5:  E=   -2930.0451234316 Eh  1.081 eV   8721.5 cm**-1
      0.79651 [    28]: 21111
      0.09860 [    33]: 22101
      0.06819 [    15]: 12012
      0.01974 [    18]: 12111
      0.00841 [    32]: 22011
      0.00416 [    27]: 21102
ROOT   6:  E=   -2930.0428691670 Eh  1.143 eV   9216.3 cm**-1
      0.80274 [    32]: 22011
      0.06635 [    17]: 12102
      0.05178 [    26]: 21021
      0.03588 [    25]: 21012
      0.01672 [    30]: 21201
      0.00801 [    33]: 22101
      0.00683 [    28]: 21111
      0.00508 [    18]: 12111
ROOT   7:  E=   -2930.0383070443 Eh  1.267 eV  10217.6 cm**-1
      0.71659 [    25]: 21012
      0.17707 [    18]: 12111
      0.03160 [    31]: 21210
      0.02921 [    32]: 22011
      0.01666 [    15]: 12012
      0.01015 [    28]: 21111
      0.00721 [    17]: 12102
      0.00319 [    26]: 21021
      0.00259 [    30]: 21201
ROOT   8:  E=   -2930.0318749477 Eh  1.442 eV  11629.2 cm**-1
      0.49835 [    30]: 21201
      0.17039 [    17]: 12102
      0.12273 [    26]: 21021
      0.10013 [    32]: 22011
      0.03120 [    15]: 12012
      0.02037 [    18]: 12111
      0.01919 [    28]: 21111
      0.01402 [    20]: 12201
      0.00538 [    16]: 12021
      0.00516 [    27]: 21102
      0.00423 [    19]: 12120
      0.00302 [    25]: 21012
      0.00276 [    10]: 11112
ROOT   9:  E=   -2930.0306952010 Eh  1.474 eV  11888.2 cm**-1
      0.48889 [    18]: 12111
      0.15577 [    15]: 12012
      0.13947 [    25]: 21012
      0.10445 [    28]: 21111
      0.05112 [    30]: 21201
      0.02553 [    31]: 21210
      0.01646 [    26]: 21021
      0.00936 [    32]: 22011
      0.00299 [    21]: 12210
ROOT  10:  E=   -2930.0297480610 Eh  1.500 eV  12096.0 cm**-1
      0.43543 [    15]: 12012
      0.30225 [    18]: 12111
      0.19368 [    28]: 21111
      0.02229 [    21]: 12210
      0.01334 [    25]: 21012
      0.01262 [    30]: 21201
      0.00645 [    26]: 21021
      0.00588 [    31]: 21210
      0.00410 [     9]: 11022
ROOT  11:  E=   -2930.0261362520 Eh  1.598 eV  12888.7 cm**-1
      0.63421 [    17]: 12102
      0.12572 [    30]: 21201
      0.08629 [    26]: 21021
      0.06251 [    28]: 21111
      0.03756 [    19]: 12120
      0.01679 [    10]: 11112
      0.01416 [    27]: 21102
      0.01328 [    32]: 22011
      0.00368 [    18]: 12111
      0.00294 [    33]: 22101
ROOT  12:  E=   -2930.0246267210 Eh  1.639 eV  13220.0 cm**-1
      0.60424 [    28]: 21111
      0.22881 [    15]: 12012
      0.06244 [    33]: 22101
      0.03108 [    17]: 12102
      0.02742 [    21]: 12210
      0.01412 [    18]: 12111
      0.00769 [     9]: 11022
      0.00597 [    26]: 21021
      0.00596 [    30]: 21201
      0.00478 [    25]: 21012
ROOT  13:  E=   -2930.0169225966 Eh  1.849 eV  14910.9 cm**-1
      0.60652 [    16]: 12021
      0.35870 [    20]: 12201
      0.00847 [    26]: 21021
      0.00662 [    30]: 21201
      0.00448 [    29]: 21120
      0.00361 [    27]: 21102
ROOT  14:  E=   -2930.0142747423 Eh  1.921 eV  15492.0 cm**-1
      0.94647 [    18]: 12111
      0.02201 [    28]: 21111
      0.01449 [    31]: 21210
      0.01176 [    25]: 21012
ROOT  15:  E=   -2929.9811255924 Eh  2.823 eV  22767.4 cm**-1
      0.63403 [    26]: 21021
      0.25291 [    30]: 21201
      0.03994 [    10]: 11112
      0.02307 [    32]: 22011
      0.01745 [    19]: 12120
      0.01251 [    16]: 12021
      0.00696 [    20]: 12201
      0.00527 [    17]: 12102
      0.00320 [    31]: 21210
ROOT  16:  E=   -2929.9724131135 Eh  3.060 eV  24679.6 cm**-1
      0.50430 [    22]: 20112
      0.18549 [    29]: 21120
      0.15006 [    20]: 12201
      0.07479 [    16]: 12021
      0.02736 [    10]: 11112
      0.02543 [    31]: 21210
      0.00983 [    26]: 21021
      0.00894 [    30]: 21201
      0.00437 [    19]: 12120
      0.00350 [    13]: 11211
ROOT  17:  E=   -2929.9719767226 Eh  3.072 eV  24775.4 cm**-1
      0.87053 [    31]: 21210
      0.06192 [    25]: 21012
      0.02038 [    22]: 20112
      0.01636 [    18]: 12111
      0.01269 [    21]: 12210
      0.00534 [    29]: 21120
ROOT  18:  E=   -2929.9699527059 Eh  3.127 eV  25219.6 cm**-1
      0.43877 [    20]: 12201
      0.26374 [    16]: 12021
      0.23634 [    22]: 20112
      0.01320 [    10]: 11112
      0.01151 [    29]: 21120
      0.00856 [     3]: 02112
      0.00733 [    30]: 21201
      0.00541 [    27]: 21102
      0.00467 [    26]: 21021
      0.00374 [    19]: 12120
ROOT  19:  E=   -2929.9642183093 Eh  3.283 eV  26478.2 cm**-1
      0.60700 [    19]: 12120
      0.23005 [    29]: 21120
      0.09545 [    10]: 11112
      0.02515 [    22]: 20112
      0.01613 [    17]: 12102
      0.01092 [    26]: 21021
      0.01004 [    27]: 21102
ROOT  20:  E=   -2929.9623644074 Eh  3.333 eV  26885.0 cm**-1
      0.52654 [    29]: 21120
      0.23473 [    19]: 12120
      0.13494 [    22]: 20112
      0.02770 [    16]: 12021
      0.02206 [    27]: 21102
      0.02201 [    10]: 11112
      0.01318 [    20]: 12201
      0.00690 [    17]: 12102
      0.00437 [    13]: 11211
      0.00265 [    26]: 21021
ROOT  21:  E=   -2929.9542304836 Eh  3.555 eV  28670.2 cm**-1
      0.90686 [    10]: 11112
      0.03888 [    22]: 20112
      0.03710 [     3]: 02112
      0.00974 [    26]: 21021
ROOT  22:  E=   -2929.9530041036 Eh  3.588 eV  28939.4 cm**-1
      0.91828 [    21]: 12210
      0.03950 [    15]: 12012
      0.01468 [    31]: 21210
      0.00776 [     9]: 11022
      0.00557 [    28]: 21111
      0.00331 [    12]: 11202
      0.00262 [    33]: 22101
ROOT  23:  E=   -2929.9484696205 Eh  3.711 eV  29934.6 cm**-1
      0.86464 [    10]: 11112
      0.07813 [    19]: 12120
      0.02689 [    17]: 12102
      0.00843 [    26]: 21021
      0.00721 [    22]: 20112
      0.00701 [     3]: 02112
      0.00266 [     6]: 10122
ROOT  24:  E=   -2929.9269838078 Eh  4.296 eV  34650.2 cm**-1
      0.93319 [     3]: 02112
      0.03614 [    10]: 11112
      0.01736 [    22]: 20112
      0.00466 [    13]: 11211
      0.00354 [    16]: 12021
ROOT  25:  E=   -2929.9180986852 Eh  4.538 eV  36600.2 cm**-1
      0.58614 [    12]: 11202
      0.39403 [     9]: 11022
      0.00773 [    15]: 12012
      0.00638 [    21]: 12210
ROOT  26:  E=   -2929.9142437161 Eh  4.643 eV  37446.3 cm**-1
      0.95483 [    10]: 11112
      0.01490 [    26]: 21021
      0.01204 [    17]: 12102
      0.00702 [    30]: 21201
      0.00301 [    19]: 12120
      0.00252 [     9]: 11022
ROOT  27:  E=   -2929.8732278564 Eh  5.759 eV  46448.3 cm**-1
      0.56845 [     9]: 11022
      0.39784 [    12]: 11202
      0.01269 [    14]: 11220
      0.00925 [    15]: 12012
      0.00388 [    28]: 21111
ROOT  28:  E=   -2929.8691211762 Eh  5.871 eV  47349.6 cm**-1
      0.93716 [    24]: 20211
      0.04941 [    13]: 11211
      0.00563 [     5]: 02211
      0.00374 [    10]: 11112
ROOT  29:  E=   -2929.8534398698 Eh  6.297 eV  50791.2 cm**-1
      0.89564 [    23]: 20121
      0.05878 [    11]: 11121
      0.03672 [     4]: 02121
      0.00251 [     9]: 11022
ROOT  30:  E=   -2929.8476551038 Eh  6.455 eV  52060.8 cm**-1
      0.56346 [    13]: 11211
      0.37390 [    11]: 11121
      0.01688 [     5]: 02211
      0.01539 [    24]: 20211
      0.01337 [     4]: 02121
      0.01160 [    23]: 20121
ROOT  31:  E=   -2929.8475316160 Eh  6.458 eV  52087.9 cm**-1
      0.58197 [    11]: 11121
      0.38323 [    13]: 11211
      0.01029 [     4]: 02121
      0.00800 [    23]: 20121
      0.00670 [     5]: 02211
      0.00530 [    24]: 20211
ROOT  32:  E=   -2929.8443383476 Eh  6.545 eV  52788.8 cm**-1
      0.93210 [    11]: 11121
      0.02329 [    23]: 20121
      0.02268 [    13]: 11211
      0.01538 [     4]: 02121
ROOT  33:  E=   -2929.8434873114 Eh  6.568 eV  52975.6 cm**-1
      0.93668 [    13]: 11211
      0.02226 [    11]: 11121
      0.01857 [    24]: 20211
      0.01498 [     5]: 02211
ROOT  34:  E=   -2929.8296573184 Eh  6.944 eV  56010.9 cm**-1
      0.91784 [     4]: 02121
      0.05413 [    23]: 20121
      0.02197 [    11]: 11121
ROOT  35:  E=   -2929.8268728253 Eh  7.020 eV  56622.0 cm**-1
      0.92004 [    13]: 11211
      0.07175 [    11]: 11121
      0.00323 [    29]: 21120
ROOT  36:  E=   -2929.8243427331 Eh  7.089 eV  57177.3 cm**-1
      0.92482 [    11]: 11121
      0.07128 [    13]: 11211
ROOT  37:  E=   -2929.8132682290 Eh  7.390 eV  59607.9 cm**-1
      0.94913 [     5]: 02211
      0.03196 [    13]: 11211
      0.01265 [    24]: 20211
ROOT  38:  E=   -2929.6855139836 Eh 10.867 eV  87646.7 cm**-1
      0.97872 [    14]: 11220
      0.00721 [     9]: 11022
      0.00609 [     7]: 10212
      0.00539 [    12]: 11202
ROOT  39:  E=   -2929.6541533839 Eh 11.720 eV  94529.5 cm**-1
      0.95812 [     7]: 10212
      0.02314 [     1]: 01212
      0.00801 [     6]: 10122
      0.00607 [    14]: 11220
ROOT  40:  E=   -2929.6453210718 Eh 11.961 eV  96468.0 cm**-1
      0.95811 [     6]: 10122
      0.02734 [     0]: 01122
      0.00829 [     7]: 10212
      0.00271 [    10]: 11112
ROOT  41:  E=   -2929.6251938428 Eh 12.508 eV 100885.4 cm**-1
      0.94082 [     0]: 01122
      0.02750 [     6]: 10122
      0.02605 [     1]: 01212
ROOT  42:  E=   -2929.6194506492 Eh 12.664 eV 102145.9 cm**-1
      0.94697 [     1]: 01212
      0.02628 [     0]: 01122
      0.02269 [     7]: 10212
ROOT  43:  E=   -2929.4749284649 Eh 16.597 eV 133864.9 cm**-1
      0.97352 [     8]: 10221
      0.02425 [     2]: 01221
ROOT  44:  E=   -2929.4487785142 Eh 17.309 eV 139604.1 cm**-1
      0.97436 [     2]: 01221
      0.02441 [     8]: 10221

                 <<<<<<<<<<<<<<<<<<INITIAL CI STATE CHECK>>>>>>>>>>>>>>>>>>

   E(CAS)= -2929.937921914 Eh DE=    0.000000e+00
   --- Energy gap subspaces: Ext-Act = 0.171   Act-Int = 0.111
   N(occ)=  1.20000 1.20000 1.20000 1.20000 1.20000
   ||g|| =     2.859242e+00 Max(G)=   -4.409403e-01 Rot=534,1
   --- Orbital Update [SuperCI(PT)]
   --- Canonicalize Internal Space
   --- Canonicalize External Space
   --- SX_PT (Skipped TA=0 IT=0): ||X|| =      0.896223830 Max(X)(146,141) =      0.362433831 
   --- SFit(Active Orbitals)

MACRO-ITERATION   2: 
   --- Inactive Energy E0 = -2922.10006106 Eh
CI-ITERATION   0: 
 -2930.102514936   0.000000000000 (    0.00)
 -2930.099416316   0.000000000000
 -2930.091904914   0.000000000000
 -2929.758562401   0.000000000000
 -2929.755144518   0.000000000000
   CI-PROBLEM SOLVED
   DENSITIES MADE
CI-ITERATION   0: 
 -2930.251474162   0.000000000000 (    0.00)
 -2930.245269936   0.000000000000
 -2930.244734806   0.000000000000
 -2930.243629258   0.000000000000
 -2930.239054600   0.000000000000
 -2930.238552066   0.000000000000
 -2930.089979166   0.000000000000
 -2930.087336936   0.000000000000
 -2930.086670443   0.000000000000
 -2930.085953941   0.000000000000
 -2930.084156559   0.000000000000
 -2930.082927243   0.000000000000
 -2930.080274140   0.000000000000
 -2930.078132101   0.000000000000
 -2930.074785659   0.000000000000
 -2930.072971718   0.000000000000
 -2930.069407749   0.000000000000
 -2930.067349101   0.000000000000
 -2930.066372418   0.000000000000
 -2930.061830456   0.000000000000
 -2930.057557120   0.000000000000
 -2930.054197315   0.000000000000
 -2930.053765800   0.000000000000
 -2930.008854903   0.000000000000
 -2929.746388196   0.000000000000
 -2929.742802614   0.000000000000
 -2929.712875627   0.000000000000
 -2929.711420631   0.000000000000
 -2929.710029363   0.000000000000
 -2929.708038574   0.000000000000
 -2929.707367375   0.000000000000
 -2929.706630848   0.000000000000
 -2929.705553859   0.000000000000
 -2929.704100638   0.000000000000
 -2929.703459499   0.000000000000
 -2929.700612714   0.000000000000
 -2929.675963520   0.000000000000
 -2929.672877657   0.000000000000
 -2929.669712650   0.000000000000
 -2929.668468619   0.000000000000
 -2929.667952087   0.000000000000
 -2929.660249552   0.000000000000
 -2929.172515453   0.000000000000
 -2929.164261472   0.000000000000
 -2929.153514349   0.000000000000
   CI-PROBLEM SOLVED
   DENSITIES MADE
   E(CAS)= -2929.922865785 Eh DE=    1.505613e-02
   --- Energy gap subspaces: Ext-Act = -0.135   Act-Int = -0.292
   N(occ)=  1.20000 1.20000 1.20000 1.20000 1.20000
   ||g|| =     3.211572e+00 Max(G)=    5.818426e-01 Rot=150,144
   --- Orbital Update [SuperCI(PT)]
   --- Canonicalize Internal Space
   --- Canonicalize External Space
   --- SX_PT (Skipped TA=0 IT=0): ||X|| =     56.098372468 Max(X)(146,134) =     48.930663033 
   --- SFit(Active Orbitals)

MACRO-ITERATION   3: 
   --- Inactive Energy E0 = -2922.27819719 Eh
CI-ITERATION   0: 
 -2930.148712949   0.000000000000 (    0.00)
 -2930.144780630   0.000000000000
 -2930.138256259   0.000000000000
 -2929.821584265   0.000000000000
 -2929.818973345   0.000000000000
   CI-PROBLEM SOLVED
   DENSITIES MADE
CI-ITERATION   0: 
 -2930.268432279   0.000000000000 (    0.00)
 -2930.262389587   0.000000000000
 -2930.262069666   0.000000000000
 -2930.260557463   0.000000000000
 -2930.257245648   0.000000000000
 -2930.256262134   0.000000000000
 -2930.137275141   0.000000000000
 -2930.133874737   0.000000000000
 -2930.133275081   0.000000000000
 -2930.132037214   0.000000000000
 -2930.130231299   0.000000000000
 -2930.128340593   0.000000000000
 -2930.127281378   0.000000000000
 -2930.124338365   0.000000000000
 -2930.121421641   0.000000000000
 -2930.119354880   0.000000000000
 -2930.115185418   0.000000000000
 -2930.112542826   0.000000000000
 -2930.111908744   0.000000000000
 -2930.109043136   0.000000000000
 -2930.103082352   0.000000000000
 -2930.100173883   0.000000000000
 -2930.099545613   0.000000000000
 -2930.053353598   0.000000000000
 -2929.810328326   0.000000000000
 -2929.807547853   0.000000000000
 -2929.776575871   0.000000000000
 -2929.773866506   0.000000000000
 -2929.773175004   0.000000000000
 -2929.771302741   0.000000000000
 -2929.769844367   0.000000000000
 -2929.768820143   0.000000000000
 -2929.768251924   0.000000000000
 -2929.766417463   0.000000000000
 -2929.766077293   0.000000000000
 -2929.763849391   0.000000000000
 -2929.737159203   0.000000000000
 -2929.733767611   0.000000000000
 -2929.731559000   0.000000000000
 -2929.729296782   0.000000000000
 -2929.728183616   0.000000000000
 -2929.721313064   0.000000000000
 -2929.241208420   0.000000000000
 -2929.233832319   0.000000000000
 -2929.218102223   0.000000000000
   CI-PROBLEM SOLVED
   DENSITIES MADE
   E(CAS)= -2929.974449653 Eh DE=   -5.158387e-02
   --- Energy gap subspaces: Ext-Act = -0.105   Act-Int = -0.271
   N(occ)=  1.20000 1.20000 1.20000 1.20000 1.20000
   ||g|| =     2.934458e+00 Max(G)=    5.389225e-01 Rot=150,144
   --- Orbital Update [SuperCI(PT)]
   --- Canonicalize Internal Space
   --- Canonicalize External Space
   --- SX_PT (Skipped TA=0 IT=0): ||X|| =      5.983387124 Max(X)(146,139) =      3.695524108 
   --- SFit(Active Orbitals)

MACRO-ITERATION   4: 
   --- Inactive Energy E0 = -2923.20501712 Eh
CI-ITERATION   0: 
 -2930.376971506   0.000000000000 (    0.00)
 -2930.373087018   0.000000000000
 -2930.368149435   0.000000000000
 -2930.148642487   0.000000000000
 -2930.147057446   0.000000000000
   CI-PROBLEM SOLVED
   DENSITIES MADE
CI-ITERATION   0: 
 -2930.371099711   0.000000000000 (    0.00)
 -2930.367168456   0.000000000000
 -2930.365194574   0.000000000000
 -2930.363533717   0.000000000000
 -2930.362649479   0.000000000000
 -2930.362088822   0.000000000000
 -2930.361102472   0.000000000000
 -2930.358533778   0.000000000000
 -2930.354898028   0.000000000000
 -2930.354454462   0.000000000000
 -2930.352527054   0.000000000000
 -2930.351334672   0.000000000000
 -2930.349223010   0.000000000000
 -2930.345545687   0.000000000000
 -2930.342557005   0.000000000000
 -2930.341612592   0.000000000000
 -2930.339976057   0.000000000000
 -2930.339049838   0.000000000000
 -2930.337486795   0.000000000000
 -2930.336094496   0.000000000000
 -2930.333039974   0.000000000000
 -2930.329168726   0.000000000000
 -2930.328979637   0.000000000000
 -2930.279628137   0.000000000000
 -2930.140917697   0.000000000000
 -2930.139937656   0.000000000000
 -2930.099334407   0.000000000000
 -2930.097274836   0.000000000000
 -2930.096354691   0.000000000000
 -2930.095333531   0.000000000000
 -2930.094937449   0.000000000000
 -2930.094189380   0.000000000000
 -2930.093471405   0.000000000000
 -2930.092282926   0.000000000000
 -2930.090721847   0.000000000000
 -2930.089554667   0.000000000000
 -2930.059949999   0.000000000000
 -2930.056665506   0.000000000000
 -2930.054318584   0.000000000000
 -2930.052590102   0.000000000000
 -2930.051641085   0.000000000000
 -2930.050743818   0.000000000000
 -2929.626922622   0.000000000000
 -2929.606888812   0.000000000000
 -2929.597832052   0.000000000000
   CI-PROBLEM SOLVED
   DENSITIES MADE
   E(CAS)= -2930.238155347 Eh DE=   -2.637057e-01
   --- Energy gap subspaces: Ext-Act = 0.044   Act-Int = -0.158
   N(occ)=  1.20000 1.20000 1.20000 1.20000 1.20000
   ||g|| =     1.708076e+00 Max(G)=    3.522034e-01 Rot=150,144
   --- Orbital Update [SuperCI(PT)]
   --- Canonicalize Internal Space
   --- Canonicalize External Space
   --- SX_PT (Skipped TA=0 IT=0): ||X|| =      1.971602523 Max(X)(146,139) =     -1.127173780 
   --- SFit(Active Orbitals)

MACRO-ITERATION   5: 
   --- Inactive Energy E0 = -2924.21365302 Eh
CI-ITERATION   0: 
 -2930.482713997   0.000000000000 (    0.00)
 -2930.478748796   0.000000000000
 -2930.460289224   0.000000000000
 -2930.444473166   0.000000000000
 -2930.441985590   0.000000000000
   CI-PROBLEM SOLVED
   DENSITIES MADE
CI-ITERATION   0: 
 -2930.469350085   0.000000000000 (    0.00)
 -2930.465957180   0.000000000000
 -2930.449825278   0.000000000000
 -2930.448304387   0.000000000000
 -2930.444540043   0.000000000000
 -2930.432818592   0.000000000000
 -2930.432598255   0.000000000000
 -2930.431565610   0.000000000000
 -2930.430623329   0.000000000000
 -2930.430125725   0.000000000000
 -2930.429666867   0.000000000000
 -2930.426497653   0.000000000000
 -2930.426239688   0.000000000000
 -2930.425899008   0.000000000000
 -2930.424023120   0.000000000000
 -2930.423455511   0.000000000000
 -2930.423057506   0.000000000000
 -2930.421660651   0.000000000000
 -2930.421032450   0.000000000000
 -2930.420280808   0.000000000000
 -2930.418065093   0.000000000000
 -2930.416271532   0.000000000000
 -2930.414158671   0.000000000000
 -2930.413590399   0.000000000000
 -2930.412902593   0.000000000000
 -2930.408296312   0.000000000000
 -2930.405547787   0.000000000000
 -2930.398647092   0.000000000000
 -2930.397547511   0.000000000000
 -2930.383453284   0.000000000000
 -2930.378152079   0.000000000000
 -2930.376793954   0.000000000000
 -2930.374779429   0.000000000000
 -2930.372769773   0.000000000000
 -2930.370551154   0.000000000000
 -2930.343183108   0.000000000000
 -2930.258294628   0.000000000000
 -2930.224460102   0.000000000000
 -2930.218097510   0.000000000000
 -2930.215310963   0.000000000000
 -2930.212987782   0.000000000000
 -2930.208129027   0.000000000000
 -2930.208031673   0.000000000000
 -2930.178112708   0.000000000000
 -2930.171295984   0.000000000000
   CI-PROBLEM SOLVED
   DENSITIES MADE
   E(CAS)= -2930.418120543 Eh DE=   -1.799652e-01
   --- Energy gap subspaces: Ext-Act = 0.297   Act-Int = 0.103
   N(occ)=  1.20000 1.20000 1.20000 1.20000 1.20000
   ||g|| =     5.755781e-01 Max(G)=    7.374659e-02 Rot=150,144
   --- Orbital Update [SuperCI(PT)]
   --- Canonicalize Internal Space
   --- Canonicalize External Space
   --- SX_PT (Skipped TA=0 IT=0): ||X|| =      0.266790761 Max(X)(148,144) =      0.081996098 
   --- SFit(Active Orbitals)

MACRO-ITERATION   6: 
   --- Inactive Energy E0 = -2923.69300247 Eh
CI-ITERATION   0: 
 -2930.517496716   0.000000000000 (    0.00)
 -2930.515208386   0.000000000000
 -2930.513952983   0.000000000000
 -2930.504244410   0.000000000000
 -2930.501351467   0.000000000000
   CI-PROBLEM SOLVED
   DENSITIES MADE
CI-ITERATION   0: 
 -2930.505369420   0.000000000000 (    0.00)
 -2930.503556430   0.000000000000
 -2930.502614880   0.000000000000
 -2930.502252279   0.000000000000
 -2930.498789901   0.000000000000
 -2930.492254238   0.000000000000
 -2930.490748649   0.000000000000
 -2930.490177631   0.000000000000
 -2930.488616016   0.000000000000
 -2930.484927096   0.000000000000
 -2930.484120851   0.000000000000
 -2930.478388142   0.000000000000
 -2930.472917271   0.000000000000
 -2930.469594936   0.000000000000
 -2930.465107108   0.000000000000
 -2930.464401924   0.000000000000
 -2930.463473667   0.000000000000
 -2930.462520176   0.000000000000
 -2930.460186887   0.000000000000
 -2930.459176434   0.000000000000
 -2930.456826083   0.000000000000
 -2930.453726336   0.000000000000
 -2930.452539122   0.000000000000
 -2930.451476849   0.000000000000
 -2930.449694930   0.000000000000
 -2930.447175537   0.000000000000
 -2930.444845112   0.000000000000
 -2930.444588465   0.000000000000
 -2930.443120417   0.000000000000
 -2930.401958097   0.000000000000
 -2930.397636508   0.000000000000
 -2930.396392366   0.000000000000
 -2930.394241393   0.000000000000
 -2930.392725957   0.000000000000
 -2930.390706300   0.000000000000
 -2930.382697029   0.000000000000
 -2930.257066761   0.000000000000
 -2930.251173181   0.000000000000
 -2930.247087300   0.000000000000
 -2930.242511194   0.000000000000
 -2930.221269476   0.000000000000
 -2930.211147249   0.000000000000
 -2930.205762724   0.000000000000
 -2930.163709020   0.000000000000
 -2930.154655127   0.000000000000
   CI-PROBLEM SOLVED
   DENSITIES MADE
   E(CAS)= -2930.459602357 Eh DE=   -4.148181e-02
   --- Energy gap subspaces: Ext-Act = 0.287   Act-Int = 0.064
   N(occ)=  1.20000 1.20000 1.20000 1.20000 1.20000
   ||g|| =     2.908957e-01 Max(G)=    5.991027e-02 Rot=150,144
   --- Orbital Update [SuperCI(PT)]
   --- Canonicalize Internal Space
   --- Canonicalize External Space
   --- SX_PT (Skipped TA=0 IT=0): ||X|| =      0.158738686 Max(X)(147,145) =      0.059229269 
   --- SFit(Active Orbitals)

MACRO-ITERATION   7: 
   --- Inactive Energy E0 = -2923.59314753 Eh
CI-ITERATION   0: 
 -2930.544841776   0.000000000000 (    0.00)
 -2930.541856808   0.000000000000
 -2930.524618641   0.000000000000
 -2930.511211832   0.000000000000
 -2930.509619035   0.000000000000
   CI-PROBLEM SOLVED
   DENSITIES MADE
CI-ITERATION   0: 
 -2930.531887314   0.000000000000 (    0.00)
 -2930.529396731   0.000000000000
 -2930.512749675   0.000000000000
 -2930.511745731   0.000000000000
 -2930.507655193   0.000000000000
 -2930.499300524   0.000000000000
 -2930.498339793   0.000000000000
 -2930.497027396   0.000000000000
 -2930.495938758   0.000000000000
 -2930.492922795   0.000000000000
 -2930.492091008   0.000000000000
 -2930.486327024   0.000000000000
 -2930.483451048   0.000000000000
 -2930.482423733   0.000000000000
 -2930.482028432   0.000000000000
 -2930.478452525   0.000000000000
 -2930.476770896   0.000000000000
 -2930.475194853   0.000000000000
 -2930.473761512   0.000000000000
 -2930.472398077   0.000000000000
 -2930.470777456   0.000000000000
 -2930.470358572   0.000000000000
 -2930.469103861   0.000000000000
 -2930.467006163   0.000000000000
 -2930.465670899   0.000000000000
 -2930.464947717   0.000000000000
 -2930.460445838   0.000000000000
 -2930.455991937   0.000000000000
 -2930.453438049   0.000000000000
 -2930.418986730   0.000000000000
 -2930.414338519   0.000000000000
 -2930.413257062   0.000000000000
 -2930.410600716   0.000000000000
 -2930.408012229   0.000000000000
 -2930.406245735   0.000000000000
 -2930.385477836   0.000000000000
 -2930.233870590   0.000000000000
 -2930.220397704   0.000000000000
 -2930.216290880   0.000000000000
 -2930.211657672   0.000000000000
 -2930.205964883   0.000000000000
 -2930.174660764   0.000000000000
 -2930.170895357   0.000000000000
 -2930.165535382   0.000000000000
 -2930.165311814   0.000000000000
   CI-PROBLEM SOLVED
   DENSITIES MADE
   E(CAS)= -2930.470760447 Eh DE=   -1.115809e-02
   --- Energy gap subspaces: Ext-Act = 0.302   Act-Int = 0.081
   N(occ)=  1.20000 1.20000 1.20000 1.20000 1.20000
   ||g|| =     4.894582e-01 Max(G)=   -3.496003e-02 Rot=149,65
   --- Orbital Update [SuperCI(PT)]
   --- Canonicalize Internal Space
   --- Canonicalize External Space
   --- SX_PT (Skipped TA=0 IT=0): ||X|| =      0.155316773 Max(X)(146,141) =     -0.044630538 
   --- SFit(Active Orbitals)

MACRO-ITERATION   8: 
   --- Inactive Energy E0 = -2923.14483168 Eh
CI-ITERATION   0: 
 -2930.550975285   0.000000000000 (    0.00)
 -2930.548766763   0.000000000000
 -2930.545711060   0.000000000000
 -2930.540577527   0.000000000000
 -2930.538992730   0.000000000000
   CI-PROBLEM SOLVED
   DENSITIES MADE
CI-ITERATION   0: 
 -2930.538504362   0.000000000000 (    0.00)
 -2930.536690556   0.000000000000
 -2930.534090034   0.000000000000
 -2930.532987511   0.000000000000
 -2930.529874132   0.000000000000
 -2930.528488746   0.000000000000
 -2930.527871425   0.000000000000
 -2930.524694530   0.000000000000
 -2930.522854609   0.000000000000
 -2930.521943923   0.000000000000
 -2930.521069660   0.000000000000
 -2930.509206968   0.000000000000
 -2930.507986977   0.000000000000
 -2930.503914054   0.000000000000
 -2930.489951947   0.000000000000
 -2930.489014661   0.000000000000
 -2930.488085831   0.000000000000
 -2930.487607345   0.000000000000
 -2930.486276473   0.000000000000
 -2930.483098781   0.000000000000
 -2930.482143750   0.000000000000
 -2930.479635684   0.000000000000
 -2930.475335344   0.000000000000
 -2930.473511207   0.000000000000
 -2930.470540011   0.000000000000
 -2930.469458629   0.000000000000
 -2930.467765574   0.000000000000
 -2930.466689217   0.000000000000
 -2930.466115990   0.000000000000
 -2930.414850786   0.000000000000
 -2930.411958340   0.000000000000
 -2930.410731465   0.000000000000
 -2930.409259496   0.000000000000
 -2930.405893314   0.000000000000
 -2930.403554942   0.000000000000
 -2930.396295032   0.000000000000
 -2930.230156649   0.000000000000
 -2930.227135067   0.000000000000
 -2930.221944259   0.000000000000
 -2930.215880004   0.000000000000
 -2930.194022409   0.000000000000
 -2930.188059372   0.000000000000
 -2930.176031988   0.000000000000
 -2930.119291961   0.000000000000
 -2930.110532559   0.000000000000
   CI-PROBLEM SOLVED
   DENSITIES MADE
   E(CAS)= -2930.484180176 Eh DE=   -1.341973e-02
   --- Energy gap subspaces: Ext-Act = 0.289   Act-Int = 0.044
   N(occ)=  1.20000 1.20000 1.20000 1.20000 1.20000
   ||g|| =     9.510522e-02 Max(G)=   -1.817184e-02 Rot=148,143
   --- Orbital Update [SuperCI(PT)]
   --- Canonicalize Internal Space
   --- Canonicalize External Space
   --- SX_PT (Skipped TA=0 IT=0): ||X|| =      0.055681246 Max(X)(146,141) =     -0.016205229 
   --- SFit(Active Orbitals)

MACRO-ITERATION   9: 
   --- Inactive Energy E0 = -2923.07783485 Eh
CI-ITERATION   0: 
 -2930.555499355   0.000000000000 (    0.00)
 -2930.553267421   0.000000000000
 -2930.543794372   0.000000000000
 -2930.541127161   0.000000000000
 -2930.539838786   0.000000000000
   CI-PROBLEM SOLVED
   DENSITIES MADE
CI-ITERATION   0: 
 -2930.542163056   0.000000000000 (    0.00)
 -2930.540638124   0.000000000000
 -2930.531751551   0.000000000000
 -2930.531475032   0.000000000000
 -2930.529231735   0.000000000000
 -2930.528398511   0.000000000000
 -2930.527985199   0.000000000000
 -2930.523913912   0.000000000000
 -2930.522620086   0.000000000000
 -2930.522405518   0.000000000000
 -2930.521512491   0.000000000000
 -2930.508657039   0.000000000000
 -2930.507130209   0.000000000000
 -2930.503427326   0.000000000000
 -2930.489932718   0.000000000000
 -2930.489028542   0.000000000000
 -2930.487890076   0.000000000000
 -2930.486075131   0.000000000000
 -2930.485674530   0.000000000000
 -2930.483731159   0.000000000000
 -2930.482443013   0.000000000000
 -2930.480424259   0.000000000000
 -2930.476516506   0.000000000000
 -2930.475619643   0.000000000000
 -2930.473863928   0.000000000000
 -2930.471938698   0.000000000000
 -2930.470654563   0.000000000000
 -2930.470257743   0.000000000000
 -2930.469746238   0.000000000000
 -2930.418617543   0.000000000000
 -2930.415314109   0.000000000000
 -2930.414286307   0.000000000000
 -2930.411426646   0.000000000000
 -2930.410499228   0.000000000000
 -2930.407916694   0.000000000000
 -2930.397465786   0.000000000000
 -2930.222764598   0.000000000000
 -2930.219709413   0.000000000000
 -2930.213732430   0.000000000000
 -2930.207421155   0.000000000000
 -2930.193920166   0.000000000000
 -2930.187076802   0.000000000000
 -2930.177491734   0.000000000000
 -2930.129658312   0.000000000000
 -2930.121844319   0.000000000000
   CI-PROBLEM SOLVED
   DENSITIES MADE
   E(CAS)= -2930.485399951 Eh DE=   -1.219775e-03
   --- Energy gap subspaces: Ext-Act = 0.289   Act-Int = 0.046
   N(occ)=  1.20000 1.20000 1.20000 1.20000 1.20000
   ||g|| =     9.373002e-02 Max(G)=   -1.414831e-02 Rot=148,143
   --- Orbital Update [SuperCI(PT)]
   --- Canonicalize Internal Space
   --- Canonicalize External Space
   --- SX_PT (Skipped TA=0 IT=0): ||X|| =      0.048242856 Max(X)(146,141) =     -0.013291376 
   --- SFit(Active Orbitals)

MACRO-ITERATION  10: 
   --- Inactive Energy E0 = -2922.95037559 Eh
CI-ITERATION   0: 
 -2930.557647024   0.000000000000 (    0.00)
 -2930.555993637   0.000000000000
 -2930.544209472   0.000000000000
 -2930.543449460   0.000000000000
 -2930.542669556   0.000000000000
   CI-PROBLEM SOLVED
   DENSITIES MADE
CI-ITERATION   0: 
 -2930.543445674   0.000000000000 (    0.00)
 -2930.542705072   0.000000000000
 -2930.532885574   0.000000000000
 -2930.531341843   0.000000000000
 -2930.530613897   0.000000000000
 -2930.530289245   0.000000000000
 -2930.529575880   0.000000000000
 -2930.525278751   0.000000000000
 -2930.524718683   0.000000000000
 -2930.524061006   0.000000000000
 -2930.523872473   0.000000000000
 -2930.510728438   0.000000000000
 -2930.507940207   0.000000000000
 -2930.503770908   0.000000000000
 -2930.490401138   0.000000000000
 -2930.489408685   0.000000000000
 -2930.488335070   0.000000000000
 -2930.485505822   0.000000000000
 -2930.485112991   0.000000000000
 -2930.482257304   0.000000000000
 -2930.481389417   0.000000000000
 -2930.480292714   0.000000000000
 -2930.475626037   0.000000000000
 -2930.475192814   0.000000000000
 -2930.474237855   0.000000000000
 -2930.472226853   0.000000000000
 -2930.471568161   0.000000000000
 -2930.470967915   0.000000000000
 -2930.470797136   0.000000000000
 -2930.418958644   0.000000000000
 -2930.415530168   0.000000000000
 -2930.414714304   0.000000000000
 -2930.412928445   0.000000000000
 -2930.411496301   0.000000000000
 -2930.408959112   0.000000000000
 -2930.396818405   0.000000000000
 -2930.219632348   0.000000000000
 -2930.216701990   0.000000000000
 -2930.209636481   0.000000000000
 -2930.202993441   0.000000000000
 -2930.198893499   0.000000000000
 -2930.190648200   0.000000000000
 -2930.169034095   0.000000000000
 -2930.130683549   0.000000000000
 -2930.124048172   0.000000000000
   CI-PROBLEM SOLVED
   DENSITIES MADE
   E(CAS)= -2930.486577189 Eh DE=   -1.177238e-03
   --- Energy gap subspaces: Ext-Act = 0.286   Act-Int = 0.043
   N(occ)=  1.20000 1.20000 1.20000 1.20000 1.20000
   ||g|| =     7.982312e-02 Max(G)=   -1.430009e-02 Rot=148,143
   --- Orbital Update [SuperCI(PT)]
   --- Canonicalize Internal Space
   --- Canonicalize External Space
   --- SX_PT (Skipped TA=0 IT=0): ||X|| =      0.041654942 Max(X)(159,143) =      0.010956163 
   --- SFit(Active Orbitals)

MACRO-ITERATION  11: 
   --- Inactive Energy E0 = -2922.86233606 Eh
CI-ITERATION   0: 
 -2930.558436326   0.000000000000 (    0.00)
 -2930.557104192   0.000000000000
 -2930.545454217   0.000000000000
 -2930.544314294   0.000000000000
 -2930.542915962   0.000000000000
   CI-PROBLEM SOLVED
   DENSITIES MADE
CI-ITERATION   0: 
 -2930.543480365   0.000000000000 (    0.00)
 -2930.543100518   0.000000000000
 -2930.533766730   0.000000000000
 -2930.531801709   0.000000000000
 -2930.531039374   0.000000000000
 -2930.530852269   0.000000000000
 -2930.529095872   0.000000000000
 -2930.526307956   0.000000000000
 -2930.525377865   0.000000000000
 -2930.524777970   0.000000000000
 -2930.523524950   0.000000000000
 -2930.511727007   0.000000000000
 -2930.507895891   0.000000000000
 -2930.502985923   0.000000000000
 -2930.490681465   0.000000000000
 -2930.489447581   0.000000000000
 -2930.488396807   0.000000000000
 -2930.484923221   0.000000000000
 -2930.484438936   0.000000000000
 -2930.480840024   0.000000000000
 -2930.480109266   0.000000000000
 -2930.479482991   0.000000000000
 -2930.474846815   0.000000000000
 -2930.474442353   0.000000000000
 -2930.474099321   0.000000000000
 -2930.472167332   0.000000000000
 -2930.471822298   0.000000000000
 -2930.470881764   0.000000000000
 -2930.470699218   0.000000000000
 -2930.418821981   0.000000000000
 -2930.415527556   0.000000000000
 -2930.414591356   0.000000000000
 -2930.413652289   0.000000000000
 -2930.411608333   0.000000000000
 -2930.409246874   0.000000000000
 -2930.396079614   0.000000000000
 -2930.221241963   0.000000000000
 -2930.218313106   0.000000000000
 -2930.210663680   0.000000000000
 -2930.204878106   0.000000000000
 -2930.203132185   0.000000000000
 -2930.195624211   0.000000000000
 -2930.166507259   0.000000000000
 -2930.134482529   0.000000000000
 -2930.128641621   0.000000000000
   CI-PROBLEM SOLVED
   DENSITIES MADE
   E(CAS)= -2930.487222793 Eh DE=   -6.456036e-04
   --- Energy gap subspaces: Ext-Act = 0.284   Act-Int = 0.040
   N(occ)=  1.20000 1.20000 1.20000 1.20000 1.20000
   ||g|| =     7.502690e-02 Max(G)=   -1.449361e-02 Rot=148,143
   --- Orbital Update [SuperCI(PT)]
   --- Canonicalize Internal Space
   --- Canonicalize External Space
   --- SX_PT (Skipped TA=0 IT=0): ||X|| =      0.039492438 Max(X)(159,143) =      0.010831896 
   --- SFit(Active Orbitals)

MACRO-ITERATION  12: 
   --- Inactive Energy E0 = -2922.80603604 Eh
CI-ITERATION   0: 
 -2930.559293560   0.000000000000 (    0.00)
 -2930.558313741   0.000000000000
 -2930.545136022   0.000000000000
 -2930.544085658   0.000000000000
 -2930.541600109   0.000000000000
   CI-PROBLEM SOLVED
   DENSITIES MADE
CI-ITERATION   0: 
 -2930.543733563   0.000000000000 (    0.00)
 -2930.542978453   0.000000000000
 -2930.533611491   0.000000000000
 -2930.530655282   0.000000000000
 -2930.530105624   0.000000000000
 -2930.529942249   0.000000000000
 -2930.527051385   0.000000000000
 -2930.525796483   0.000000000000
 -2930.524653074   0.000000000000
 -2930.523697468   0.000000000000
 -2930.521815792   0.000000000000
 -2930.510875299   0.000000000000
 -2930.506421732   0.000000000000
 -2930.500500830   0.000000000000
 -2930.490233660   0.000000000000
 -2930.488611559   0.000000000000
 -2930.487886771   0.000000000000
 -2930.484186788   0.000000000000
 -2930.483574807   0.000000000000
 -2930.480395465   0.000000000000
 -2930.479681816   0.000000000000
 -2930.479345009   0.000000000000
 -2930.475024630   0.000000000000
 -2930.474809798   0.000000000000
 -2930.474402943   0.000000000000
 -2930.473097228   0.000000000000
 -2930.472452944   0.000000000000
 -2930.470984253   0.000000000000
 -2930.470788968   0.000000000000
 -2930.419805518   0.000000000000
 -2930.416528932   0.000000000000
 -2930.415499973   0.000000000000
 -2930.414882121   0.000000000000
 -2930.412552361   0.000000000000
 -2930.410243506   0.000000000000
 -2930.395040950   0.000000000000
 -2930.226064007   0.000000000000
 -2930.223098000   0.000000000000
 -2930.215448552   0.000000000000
 -2930.211191744   0.000000000000
 -2930.205937870   0.000000000000
 -2930.201333058   0.000000000000
 -2930.173301923   0.000000000000
 -2930.145787726   0.000000000000
 -2930.140763631   0.000000000000
   CI-PROBLEM SOLVED
   DENSITIES MADE
   E(CAS)= -2930.487785078 Eh DE=   -5.622851e-04
   --- Energy gap subspaces: Ext-Act = 0.281   Act-Int = 0.041
   N(occ)=  1.20000 1.20000 1.20000 1.20000 1.20000
   ||g|| =     7.387564e-02 Max(G)=   -1.298445e-02 Rot=148,143
   --- Orbital Update [SuperCI(PT)]
   --- Canonicalize Internal Space
   --- Canonicalize External Space
   --- SX_PT (Skipped TA=0 IT=0): ||X|| =      0.036436256 Max(X)(159,143) =      0.010248568 
   --- SFit(Active Orbitals)

MACRO-ITERATION  13: 
   --- Inactive Energy E0 = -2922.75592832 Eh
CI-ITERATION   0: 
 -2930.561218345   0.000000000000 (    0.00)
 -2930.560670384   0.000000000000
 -2930.543466356   0.000000000000
 -2930.542586656   0.000000000000
 -2930.539422068   0.000000000000
   CI-PROBLEM SOLVED
   DENSITIES MADE
CI-ITERATION   0: 
 -2930.545110919   0.000000000000 (    0.00)
 -2930.543505370   0.000000000000
 -2930.532317519   0.000000000000
 -2930.528318204   0.000000000000
 -2930.528041125   0.000000000000
 -2930.527428183   0.000000000000
 -2930.524100952   0.000000000000
 -2930.523930031   0.000000000000
 -2930.522531826   0.000000000000
 -2930.521328588   0.000000000000
 -2930.518938193   0.000000000000
 -2930.508525981   0.000000000000
 -2930.503632391   0.000000000000
 -2930.496762311   0.000000000000
 -2930.489216977   0.000000000000
 -2930.487089280   0.000000000000
 -2930.486937860   0.000000000000
 -2930.483759200   0.000000000000
 -2930.483295265   0.000000000000
 -2930.480908485   0.000000000000
 -2930.480320370   0.000000000000
 -2930.479552320   0.000000000000
 -2930.476600712   0.000000000000
 -2930.476203490   0.000000000000
 -2930.475652509   0.000000000000
 -2930.475117159   0.000000000000
 -2930.473378826   0.000000000000
 -2930.471415260   0.000000000000
 -2930.470766207   0.000000000000
 -2930.421971873   0.000000000000
 -2930.418538263   0.000000000000
 -2930.417674829   0.000000000000
 -2930.416480343   0.000000000000
 -2930.414336603   0.000000000000
 -2930.412089114   0.000000000000
 -2930.392968409   0.000000000000
 -2930.229828009   0.000000000000
 -2930.226885009   0.000000000000
 -2930.219968590   0.000000000000
 -2930.214023342   0.000000000000
 -2930.207189930   0.000000000000
 -2930.204188197   0.000000000000
 -2930.186337960   0.000000000000
 -2930.162138727   0.000000000000
 -2930.157890466   0.000000000000
   CI-PROBLEM SOLVED
   DENSITIES MADE
   E(CAS)= -2930.488260772 Eh DE=   -4.756935e-04
   --- Energy gap subspaces: Ext-Act = 0.279   Act-Int = 0.046
   N(occ)=  1.20000 1.20000 1.20000 1.20000 1.20000
   ||g|| =     7.573380e-02 Max(G)=   -9.529937e-03 Rot=148,143
   --- Orbital Update [SuperCI(PT)]
   --- Canonicalize Internal Space
   --- Canonicalize External Space
   --- SX_PT (Skipped TA=0 IT=0): ||X|| =      0.031784223 Max(X)(159,143) =      0.006971879 
   --- SFit(Active Orbitals)

MACRO-ITERATION  14: 
   --- Inactive Energy E0 = -2922.69173760 Eh
CI-ITERATION   0: 
 -2930.563361712   0.000000000000 (    0.00)
 -2930.562745415   0.000000000000
 -2930.541631292   0.000000000000
 -2930.540949306   0.000000000000
 -2930.536995917   0.000000000000
   CI-PROBLEM SOLVED
   DENSITIES MADE
CI-ITERATION   0: 
 -2930.546339632   0.000000000000 (    0.00)
 -2930.543636713   0.000000000000
 -2930.531177280   0.000000000000
 -2930.526498950   0.000000000000
 -2930.525146957   0.000000000000
 -2930.524618061   0.000000000000
 -2930.522024173   0.000000000000
 -2930.520587091   0.000000000000
 -2930.520087562   0.000000000000
 -2930.518614743   0.000000000000
 -2930.515507779   0.000000000000
 -2930.505766060   0.000000000000
 -2930.500160351   0.000000000000
 -2930.492284414   0.000000000000
 -2930.488442638   0.000000000000
 -2930.486556610   0.000000000000
 -2930.485243276   0.000000000000
 -2930.483864655   0.000000000000
 -2930.483630123   0.000000000000
 -2930.481370972   0.000000000000
 -2930.481105754   0.000000000000
 -2930.479521579   0.000000000000
 -2930.478080834   0.000000000000
 -2930.477534140   0.000000000000
 -2930.476302025   0.000000000000
 -2930.475803850   0.000000000000
 -2930.473513800   0.000000000000
 -2930.471001007   0.000000000000
 -2930.469489402   0.000000000000
 -2930.423917709   0.000000000000
 -2930.420241092   0.000000000000
 -2930.419597458   0.000000000000
 -2930.417303093   0.000000000000
 -2930.415650037   0.000000000000
 -2930.413295951   0.000000000000
 -2930.390172107   0.000000000000
 -2930.234906980   0.000000000000
 -2930.232015911   0.000000000000
 -2930.226191537   0.000000000000
 -2930.216671549   0.000000000000
 -2930.208746795   0.000000000000
 -2930.206960318   0.000000000000
 -2930.200690922   0.000000000000
 -2930.179459658   0.000000000000
 -2930.176175393   0.000000000000
   CI-PROBLEM SOLVED
   DENSITIES MADE
   E(CAS)= -2930.488633997 Eh DE=   -3.732251e-04
   --- Energy gap subspaces: Ext-Act = 0.277   Act-Int = 0.050
   N(occ)=  1.20000 1.20000 1.20000 1.20000 1.20000
   ||g|| =     7.842914e-02 Max(G)=   -6.039949e-03 Rot=148,143
   --- Orbital Update [SuperCI(PT)]
   --- Canonicalize Internal Space
   --- Canonicalize External Space
   --- SX_PT (Skipped TA=0 IT=0): ||X|| =      0.027653621 Max(X)(146,141) =      0.005105724 
   --- SFit(Active Orbitals)

MACRO-ITERATION  15: 
   --- Inactive Energy E0 = -2922.67858133 Eh
CI-ITERATION   0: 
 -2930.563706656   0.000000000000 (    0.00)
 -2930.562897453   0.000000000000
 -2930.540929991   0.000000000000
 -2930.540310930   0.000000000000
 -2930.536423920   0.000000000000
   CI-PROBLEM SOLVED
   DENSITIES MADE
CI-ITERATION   0: 
 -2930.546420629   0.000000000000 (    0.00)
 -2930.543079952   0.000000000000
 -2930.530961252   0.000000000000
 -2930.526042899   0.000000000000
 -2930.524098966   0.000000000000
 -2930.523613478   0.000000000000
 -2930.521380311   0.000000000000
 -2930.519697780   0.000000000000
 -2930.519166629   0.000000000000
 -2930.517728656   0.000000000000
 -2930.514449886   0.000000000000
 -2930.504596309   0.000000000000
 -2930.498946319   0.000000000000
 -2930.490818735   0.000000000000
 -2930.488343505   0.000000000000
 -2930.486398225   0.000000000000
 -2930.484764671   0.000000000000
 -2930.483997694   0.000000000000
 -2930.483789362   0.000000000000
 -2930.481444919   0.000000000000
 -2930.481210884   0.000000000000
 -2930.479697939   0.000000000000
 -2930.478362545   0.000000000000
 -2930.477945424   0.000000000000
 -2930.476114843   0.000000000000
 -2930.475774400   0.000000000000
 -2930.473269367   0.000000000000
 -2930.470737079   0.000000000000
 -2930.468983500   0.000000000000
 -2930.424497842   0.000000000000
 -2930.420586839   0.000000000000
 -2930.419919358   0.000000000000
 -2930.417358378   0.000000000000
 -2930.415998567   0.000000000000
 -2930.413487101   0.000000000000
 -2930.389580455   0.000000000000
 -2930.238750810   0.000000000000
 -2930.235851913   0.000000000000
 -2930.229581027   0.000000000000
 -2930.218823455   0.000000000000
 -2930.210679285   0.000000000000
 -2930.208677980   0.000000000000
 -2930.206741884   0.000000000000
 -2930.185326118   0.000000000000
 -2930.182403068   0.000000000000
   CI-PROBLEM SOLVED
   DENSITIES MADE
   E(CAS)= -2930.488761342 Eh DE=   -1.273453e-04
   --- Energy gap subspaces: Ext-Act = 0.276   Act-Int = 0.052
   N(occ)=  1.20000 1.20000 1.20000 1.20000 1.20000
   ||g|| =     7.833487e-02 Max(G)=    5.742385e-03 Rot=261,117
   --- Orbital Update [SuperCI(PT)]
   --- Canonicalize Internal Space
[...]
      f-2     :     0.000794
      f+3     :     0.000473
      f-3     :     0.000410
 11 Aus       :     2.427074  s :     2.427074
      pz      :     2.127654  p :     6.532044
      px      :     2.143644
      py      :     2.260747
      dz2     :     2.001931  d :     9.990706
      dxz     :     1.980732
      dyz     :     2.004447
      dx2y2   :     2.002880
      dxy     :     2.000716
      f0      :     0.000562  f :     0.004842
      f+1     :     0.000493
      f-1     :     0.000838
      f+2     :     0.000632
      f-2     :     0.000490
      f+3     :     0.001091
      f-3     :     0.000737
 12 Aus       :     2.427209  s :     2.427209
      pz      :     2.252959  p :     6.533069
      px      :     2.142072
      py      :     2.138038
      dz2     :     1.998264  d :     9.990117
      dxz     :     1.998410
      dyz     :     2.006778
      dx2y2   :     2.006087
      dxy     :     1.980578
      f0      :     0.000571  f :     0.004833
      f+1     :     0.000906
      f-1     :     0.000949
      f+2     :     0.000736
      f-2     :     0.000678
      f+3     :     0.000479
      f-3     :     0.000514
 13 Aus       :     2.440708  s :     2.440708
      pz      :     2.148202  p :     6.441315
      px      :     2.175840
      py      :     2.117274
      dz2     :     1.994891  d :     9.987252
      dxz     :     2.005572
      dyz     :     1.992433
      dx2y2   :     1.993758
      dxy     :     2.000597
      f0      :     0.000531  f :     0.004016
      f+1     :     0.000596
      f-1     :     0.000519
      f+2     :     0.000559
      f-2     :     0.000596
      f+3     :     0.000657
      f-3     :     0.000558
 14 Crs       :     6.230890  s :     6.230890
      pz      :     4.209506  p :    12.611108
      px      :     4.191376
      py      :     4.210226
      dz2     :     1.451061  d :     6.524127
      dxz     :     1.513216
      dyz     :     0.943419
      dx2y2   :     1.294440
      dxy     :     1.321991
      f0      :     0.000403  f :     0.002065
      f+1     :     0.000207
      f-1     :     0.000244
      f+2     :     0.000385
      f-2     :     0.000258
      f+3     :     0.000233
      f-3     :     0.000335

SPIN
  0 Aus       :     0.006264  s :     0.006264
      pz      :     0.003539  p :     0.015534
      px      :     0.003987
      py      :     0.008008
      dz2     :     0.002682  d :     0.008273
      dxz     :     0.000234
      dyz     :     0.001698
      dx2y2   :     0.001435
      dxy     :     0.002225
      f0      :     0.000009  f :     0.000062
      f+1     :     0.000012
      f-1     :     0.000007
      f+2     :     0.000002
      f-2     :     0.000015
      f+3     :     0.000012
      f-3     :     0.000005
  1 Aus       :     0.014853  s :     0.014853
      pz      :     0.003024  p :     0.030046
      px      :     0.004349
      py      :     0.022673
      dz2     :     0.004368  d :     0.018441
      dxz     :     0.002722
      dyz     :     0.005100
      dx2y2   :     0.003915
      dxy     :     0.002336
      f0      :     0.000147  f :     0.000290
      f+1     :     0.000059
      f-1     :     0.000035
      f+2     :     0.000024
      f-2     :     0.000019
      f+3     :     0.000002
      f-3     :     0.000004
  2 Aus       :     0.013855  s :     0.013855
      pz      :     0.022509  p :     0.031045
      px      :     0.003505
      py      :     0.005032
      dz2     :     0.005324  d :     0.018836
      dxz     :     0.002212
      dyz     :     0.003827
      dx2y2   :     0.005403
      dxy     :     0.002071
      f0      :     0.000037  f :     0.000291
      f+1     :     0.000006
      f-1     :     0.000020
      f+2     :     0.000074
      f-2     :     0.000033
      f+3     :     0.000046
      f-3     :     0.000075
  3 Aus       :     0.019704  s :     0.019704
      pz      :     0.016355  p :     0.031976
      px      :     0.010959
      py      :     0.004661
      dz2     :     0.001729  d :     0.016491
      dxz     :     0.004413
      dyz     :     0.003533
      dx2y2   :     0.003869
      dxy     :     0.002947
      f0      :     0.000018  f :     0.000267
      f+1     :     0.000020
      f-1     :     0.000018
      f+2     :     0.000032
      f-2     :     0.000043
      f+3     :     0.000032
      f-3     :     0.000103
  4 Aus       :     0.014787  s :     0.014787
      pz      :     0.003537  p :     0.031132
      px      :     0.023820
      py      :     0.003775
      dz2     :     0.001913  d :     0.015368
      dxz     :     0.002297
      dyz     :     0.003413
      dx2y2   :     0.003298
      dxy     :     0.004446
      f0      :     0.000060  f :     0.000218
      f+1     :     0.000005
      f-1     :     0.000032
      f+2     :     0.000063
      f-2     :     0.000018
      f+3     :     0.000014
      f-3     :     0.000027
  5 Aus       :     0.019919  s :     0.019919
      pz      :     0.011487  p :     0.032691
      px      :     0.009521
      py      :     0.011683
      dz2     :     0.002630  d :     0.016528
      dxz     :     0.003209
      dyz     :     0.004304
      dx2y2   :     0.002098
      dxy     :     0.004287
      f0      :     0.000035  f :     0.000265
      f+1     :     0.000032
      f-1     :     0.000019
      f+2     :     0.000092
      f-2     :     0.000026
      f+3     :     0.000032
      f-3     :     0.000029
  6 Aus       :     0.006257  s :     0.006257
      pz      :     0.006949  p :     0.016037
      px      :     0.003712
      py      :     0.005376
      dz2     :     0.001349  d :     0.008535
      dxz     :     0.002509
      dyz     :     0.000520
      dx2y2   :     0.003674
      dxy     :     0.000483
      f0      :     0.000003  f :     0.000063
      f+1     :     0.000016
      f-1     :     0.000008
      f+2     :     0.000004
      f-2     :     0.000005
      f+3     :     0.000020
      f-3     :     0.000006
  7 Aus       :     0.019094  s :     0.019094
      pz      :     0.004805  p :     0.024637
      px      :     0.010510
      py      :     0.009322
      dz2     :     0.001861  d :     0.014501
      dxz     :     0.002513
      dyz     :     0.004892
      dx2y2   :     0.002416
      dxy     :     0.002818
      f0      :     0.000041  f :     0.000209
      f+1     :     0.000024
      f-1     :     0.000017
      f+2     :     0.000020
      f-2     :     0.000049
      f+3     :     0.000033
      f-3     :     0.000026
  8 Aus       :     0.016808  s :     0.016808
      pz      :     0.002960  p :     0.031737
      px      :     0.026088
      py      :     0.002689
      dz2     :     0.001881  d :     0.014236
      dxz     :     0.002158
      dyz     :     0.003373
      dx2y2   :     0.003011
      dxy     :     0.003813
      f0      :     0.000058  f :     0.000266
      f+1     :     0.000008
      f-1     :     0.000047
      f+2     :     0.000083
      f-2     :     0.000014
      f+3     :     0.000016
      f-3     :     0.000040
  9 Aus       :     0.020128  s :     0.020128
      pz      :     0.007219  p :     0.034289
      px      :     0.010841
      py      :     0.016229
      dz2     :     0.001881  d :     0.016609
      dxz     :     0.001587
      dyz     :     0.005643
      dx2y2   :     0.004566
      dxy     :     0.002933
      f0      :     0.000042  f :     0.000216
      f+1     :     0.000023
      f-1     :     0.000010
      f+2     :     0.000022
      f-2     :     0.000051
      f+3     :     0.000018
      f-3     :     0.000049
 10 Aus       :     0.018770  s :     0.018770
      pz      :     0.002882  p :     0.029836
      px      :     0.002876
      py      :     0.024078
      dz2     :     0.003266  d :     0.016207
      dxz     :     0.002108
      dyz     :     0.006013
      dx2y2   :     0.003203
      dxy     :     0.001616
      f0      :     0.000124  f :     0.000270
      f+1     :     0.000061
      f-1     :     0.000039
      f+2     :     0.000026
      f-2     :     0.000014
      f+3     :     0.000001
      f-3     :     0.000006
 11 Aus       :     0.016878  s :     0.016878
      pz      :     0.007994  p :     0.026867
      px      :     0.009633
      py      :     0.009241
      dz2     :     0.003217  d :     0.016287
      dxz     :     0.002684
      dyz     :     0.002534
      dx2y2   :     0.002268
      dxy     :     0.005585
      f0      :     0.000026  f :     0.000253
      f+1     :     0.000037
      f-1     :     0.000016
      f+2     :     0.000077
      f-2     :     0.000023
      f+3     :     0.000025
      f-3     :     0.000048
 12 Aus       :     0.016557  s :     0.016557
      pz      :     0.012729  p :     0.026360
      px      :     0.010505
      py      :     0.003127
      dz2     :     0.002154  d :     0.016186
      dxz     :     0.004640
      dyz     :     0.002563
      dx2y2   :     0.003611
      dxy     :     0.003217
      f0      :     0.000022  f :     0.000253
      f+1     :     0.000022
      f-1     :     0.000026
      f+2     :     0.000036
      f-2     :     0.000018
      f+3     :     0.000048
      f-3     :     0.000081
 13 Aus       :     0.017801  s :     0.017801
      pz      :     0.023627  p :     0.030964
      px      :     0.002002
      py      :     0.005335
      dz2     :     0.005745  d :     0.016595
      dxz     :     0.001031
      dyz     :     0.004526
      dx2y2   :     0.002931
      dxy     :     0.002363
      f0      :     0.000035  f :     0.000269
      f+1     :     0.000003
      f-1     :     0.000022
      f+2     :     0.000071
      f-2     :     0.000030
      f+3     :     0.000058
      f-3     :     0.000050
 14 Crs       :     0.000479  s :     0.000479
      pz      :     0.000364  p :     0.001448
      px      :     0.000844
      py      :     0.000240
      dz2     :     0.462219  d :     2.166960
      dxz     :     0.509161
      dyz     :     0.319764
      dx2y2   :     0.435852
      dxy     :     0.439964
      f0      :     0.000000  f :     0.000001
      f+1     :     0.000000
      f-1     :     0.000000
      f+2     :     0.000000
      f-2     :     0.000000
      f+3     :     0.000000
      f-3     :     0.000000


                      *****************************
                      * MAYER POPULATION ANALYSIS *
                      *****************************

  NA   - Mulliken gross atomic population
  ZA   - Total nuclear charge
  QA   - Mulliken gross atomic charge
  VA   - Mayer's total valence
  BVA  - Mayer's bonded valence
  FA   - Mayer's free valence

  ATOM       NA         ZA         QA         VA         BVA        FA
  0 Au    18.6232    19.0000     0.3768     1.0874     1.0674     0.0200
  1 Au    18.5946    19.0000     0.4054     1.5853     1.5617     0.0235
  2 Au    18.5982    19.0000     0.4018     1.5909     1.5670     0.0239
  3 Au    18.3824    19.0000     0.6176     1.2275     1.1999     0.0276
  4 Au    18.2383    19.0000     0.7617     0.9740     0.9544     0.0195
  5 Au    18.3835    19.0000     0.6165     1.2256     1.1973     0.0283
  6 Au    18.6235    19.0000     0.3765     1.0877     1.0673     0.0204
  7 Au    18.8951    19.0000     0.1049     1.8367     1.8101     0.0266
  8 Au    18.2919    19.0000     0.7081     1.1472     1.1306     0.0165
  9 Au    18.4145    19.0000     0.5855     1.1753     1.1429     0.0325
 10 Au    18.3007    19.0000     0.6993     1.0813     1.0612     0.0201
 11 Au    18.6040    19.0000     0.3960     1.5070     1.4829     0.0242
 12 Au    18.6002    19.0000     0.3998     1.5039     1.4805     0.0234
 13 Au    18.3022    19.0000     0.6978     1.0854     1.0645     0.0209
 14 Cr    31.1478    24.0000    -7.1478     9.0953     4.9774     4.1179

  Mayer bond orders larger than 0.100000
B(  0-Au,  1-Au) :   0.2110 B(  0-Au,  7-Au) :   0.2751 B(  0-Au, 12-Au) :   0.2066 
B(  0-Au, 14-Cr) :   0.4748 B(  1-Au,  5-Au) :   0.1372 B(  1-Au,  7-Au) :   0.1540 
B(  1-Au, 10-Au) :   0.1701 B(  1-Au, 12-Au) :   0.1009 B(  1-Au, 13-Au) :   0.1010 
B(  1-Au, 14-Cr) :   0.3962 B(  2-Au,  3-Au) :   0.1388 B(  2-Au,  6-Au) :   0.2110 
B(  2-Au,  7-Au) :   0.1528 B(  2-Au, 10-Au) :   0.1013 B(  2-Au, 11-Au) :   0.1010 
B(  2-Au, 13-Au) :   0.1704 B(  2-Au, 14-Cr) :   0.4009 B(  3-Au,  5-Au) :   0.1121 
B(  3-Au,  9-Au) :   0.1313 B(  3-Au, 10-Au) :   0.1103 B(  3-Au, 12-Au) :   0.1515 
B(  3-Au, 14-Cr) :   0.3064 B(  4-Au,  8-Au) :   0.1751 B(  4-Au, 14-Cr) :   0.2180 
B(  5-Au,  9-Au) :   0.1318 B(  5-Au, 11-Au) :   0.1512 B(  5-Au, 13-Au) :   0.1107 
B(  5-Au, 14-Cr) :   0.3052 B(  6-Au,  7-Au) :   0.2740 B(  6-Au, 11-Au) :   0.2086 
B(  6-Au, 14-Cr) :   0.4747 B(  7-Au,  9-Au) :   0.1066 B(  7-Au, 14-Cr) :   0.4143 
B(  8-Au,  9-Au) :   0.1094 B(  8-Au, 11-Au) :   0.1134 B(  8-Au, 12-Au) :   0.1129 
B(  8-Au, 14-Cr) :   0.2178 B(  9-Au, 14-Cr) :   0.3322 B( 10-Au, 14-Cr) :   0.2682 
B( 11-Au, 12-Au) :   0.1016 B( 11-Au, 14-Cr) :   0.4487 B( 12-Au, 14-Cr) :   0.4491 
B( 13-Au, 14-Cr) :   0.2710 


-------------------------------------------------------------
 Forming the transition density       ... done in 0.022191 sec
-------------------------------------------------------------



==========================================
CASSCF UV, CD spectra and dipole moments
==========================================
-------------------
ABSORPTION SPECTRUM
-------------------

Center of mass           = ( 16.8109, 15.4103, 12.9768)
Nuclear contribution to the dipole moment =    13.598597,   -4.851552,   -4.007317 au

Calculating the Dipole integrals                  ... done
Transforming integrals                            ... done
Calculating the Linear Momentum integrals         ... done
Transforming integrals                            ... done
Calculating the Angular Momentum integrals        ... done
Transforming integrals                            ... done

------------------------------------------------------------------------------------------
                                ABSORPTION SPECTRUM
------------------------------------------------------------------------------------------
  States           Energy   Wavelength   fosc          T2        TX         TY        TZ  
                   (cm-1)     (nm)                   (D**2)      (D)        (D)       (D) 
------------------------------------------------------------------------------------------
  0( 0)-> 1( 0) 5     991.0   10091.1   0.000062064   0.13299  -0.20432   0.24880   0.17131
  0( 0)-> 2( 0) 5    6681.3   1496.7   0.000432040   0.13731  -0.31489  -0.19295   0.03043
  0( 0)-> 3( 0) 5    6737.0   1484.3   0.000430709   0.13576   0.12959  -0.14289   0.31392
  0( 0)-> 4( 0) 5    7766.6   1287.6   0.000021496   0.00588  -0.00277  -0.04370   0.06293
------------------------------------------------------------------------------------------



------------------------------------------------------------------------------
                             CD SPECTRUM
------------------------------------------------------------------------------
      States        Energy   Wavelength   R*T        RX        RY        RZ   
                    (cm-1)      (nm)   (1e40*sgs)   (au)      (au)      (au)  
------------------------------------------------------------------------------
  0( 0)-> 1( 0) 5     991.0   10091.1    -1.10773   0.00318  -0.01636  -0.00731
  0( 0)-> 2( 0) 5    6681.3   1496.7    -1.16330   0.03612   0.00359   0.19042
  0( 0)-> 3( 0) 5    6737.0   1484.3     1.32688   0.06962   0.29443   0.12806
  0( 0)-> 4( 0) 5    7766.6   1287.6     0.16681  -0.14989   0.15620   0.11615
------------------------------------------------------------------------------

------------------------------------------------------------------------------
                                 DIPOLE MOMENTS
------------------------------------------------------------------------------
  Root  Block           TX        TY        TZ           |T|
                      (Debye)   (Debye)   (Debye)      (Debye)
------------------------------------------------------------------------------
    0    0           -1.39045   0.47975   0.38966      1.52163

--------------
CASSCF TIMINGS
--------------

Total time                       ...     3145.7 sec
Sum of individual times          ...     3139.1 sec ( 99.8%)

Calculation of AO operators
   F(Core) operator              ...     1536.1 sec ( 48.8%)
   G(Act) operator               ...     1482.2 sec ( 47.1%)
   J(AO) operators               ...        0.0 sec (  0.0%)
Calculation of MO transformed quantities
   J(MO) operators               ...      114.0 sec (  3.6%)
   (pq|rs) integrals             ...        0.0 sec (  0.0%)
   AO->MO one electron integrals ...        0.9 sec (  0.0%)
Configuration interaction steps
   CI-setup phase                ...        0.0 sec (  0.0%)
   CI-solution phase             ...        0.5 sec (  0.0%)
   Generation of densities       ...        0.1 sec (  0.0%)
Orbital improvement steps
   Orbital gradient              ...        0.1 sec (  0.0%)
   O(1) converger                ...        5.2 sec (  0.2%)
Properties                       ...        0.0 sec (  0.0%)
   SOC integral calculation      ...        0.0 sec (  0.0%)
   SSC RMEs (incl. integrals)    ...        0.0 sec (  0.0%)
   SOC RMEs                      ...        0.0 sec (  0.0%)

Maximum memory used throughout the entire CASSCF-calculation: 376.1 MB

-------------------------   --------------------
FINAL SINGLE POINT ENERGY     -2930.489939300272
-------------------------   --------------------


                            ***************************************
                            *     ORCA property calculations      *
                            ***************************************

                                    ---------------------
                                    Active property flags
                                    ---------------------
   (+) Dipole Moment


------------------------------------------------------------------------------
                       ORCA ELECTRIC PROPERTIES CALCULATION
------------------------------------------------------------------------------

Dipole Moment Calculation                       ... on
Quadrupole Moment Calculation                   ... off
Polarizability Calculation                      ... off
GBWName                                         ... casscf.gbw
Electron density                                ... casscf.scfp
The origin for moment calculation is the CENTER OF MASS  = (16.810869, 15.410314 12.976770)

-------------
DIPOLE MOMENT
-------------
                                X             Y             Z
Electronic contribution:    -13.93176       5.03864       4.14768
Nuclear contribution   :     13.59860      -4.85155      -4.00732
                        -----------------------------------------
Total Dipole Moment    :     -0.33316       0.18709       0.14036
                        -----------------------------------------
Magnitude (a.u.)       :      0.40706
Magnitude (Debye)      :      1.03468



--------------------
Rotational spectrum 
--------------------
 
Rotational constants in cm-1:     0.001158     0.001043     0.000934 
Rotational constants in MHz :    34.704580    31.265329    27.986562 

 Dipole components along the rotational axes: 
x,y,z [a.u.] :    -0.398592     0.003459     0.082545 
x,y,z [Debye]:    -1.013141     0.008792     0.209812 

 

Timings for individual modules:

Sum of individual times         ...     3160.560 sec (=  52.676 min)
GTO integral calculation        ...        8.743 sec (=   0.146 min)   0.3 %
SCF iterations                  ...        3.559 sec (=   0.059 min)   0.1 %
CASSCF iterations               ...     3148.259 sec (=  52.471 min)  99.6 %
                             ****ORCA TERMINATED NORMALLY****
TOTAL RUN TIME: 0 days 0 hours 52 minutes 41 seconds 86 msec
