
                                 *****************
                                 * O   R   C   A *
                                 *****************

                                            #,                                       
                                            ###                                      
                                            ####                                     
                                            #####                                    
                                            ######                                   
                                           ########,                                 
                                     ,,################,,,,,                         
                               ,,#################################,,                 
                          ,,##########################################,,             
                       ,#########################################, ''#####,          
                    ,#############################################,,   '####,        
                  ,##################################################,,,,####,       
                ,###########''''           ''''###############################       
              ,#####''   ,,,,##########,,,,          '''####'''          '####       
            ,##' ,,,,###########################,,,                        '##       
           ' ,,###''''                  '''############,,,                           
         ,,##''                                '''############,,,,        ,,,,,,###''
      ,#''                                            '''#######################'''  
     '                                                          ''''####''''         
             ,#######,   #######,   ,#######,      ##                                
            ,#'     '#,  ##    ##  ,#'     '#,    #''#        ######   ,####,        
            ##       ##  ##   ,#'  ##            #'  '#       #        #'  '#        
            ##       ##  #######   ##           ,######,      #####,   #    #        
            '#,     ,#'  ##    ##  '#,     ,#' ,#      #,         ##   #,  ,#        
             '#######'   ##     ##  '#######'  #'      '#     #####' # '####'        



                  #######################################################
                  #                        -***-                        #
                  #          Department of theory and spectroscopy      #
                  #    Directorship and core code : Frank Neese         #
                  #        Max Planck Institute fuer Kohlenforschung    #
                  #                Kaiser Wilhelm Platz 1               #
                  #                 D-45470 Muelheim/Ruhr               #
                  #                      Germany                        #
                  #                                                     #
                  #                  All rights reserved                #
                  #                        -***-                        #
                  #######################################################


                         Program Version 5.0.3 -  RELEASE  -


 With contributions from (in alphabetic order):
   Daniel Aravena         : Magnetic Suceptibility
   Michael Atanasov       : Ab Initio Ligand Field Theory (pilot matlab implementation)
   Alexander A. Auer      : GIAO ZORA, VPT2 properties, NMR spectrum
   Ute Becker             : Parallelization
   Giovanni Bistoni       : ED, misc. LED, open-shell LED, HFLD
   Martin Brehm           : Molecular dynamics
   Dmytro Bykov           : SCF Hessian
   Vijay G. Chilkuri      : MRCI spin determinant printing, contributions to CSF-ICE
   Dipayan Datta          : RHF DLPNO-CCSD density
   Achintya Kumar Dutta   : EOM-CC, STEOM-CC
   Dmitry Ganyushin       : Spin-Orbit,Spin-Spin,Magnetic field MRCI
   Miquel Garcia          : C-PCM and meta-GGA Hessian, CC/C-PCM, Gaussian charge scheme
   Yang Guo               : DLPNO-NEVPT2, F12-NEVPT2, CIM, IAO-localization
   Andreas Hansen         : Spin unrestricted coupled pair/coupled cluster methods
   Benjamin Helmich-Paris : MC-RPA, TRAH-SCF, COSX integrals
   Lee Huntington         : MR-EOM, pCC
   Robert Izsak           : Overlap fitted RIJCOSX, COSX-SCS-MP3, EOM
   Marcus Kettner         : VPT2
   Christian Kollmar      : KDIIS, OOCD, Brueckner-CCSD(T), CCSD density, CASPT2, CASPT2-K
   Simone Kossmann        : Meta GGA functionals, TD-DFT gradient, OOMP2, MP2 Hessian
   Martin Krupicka        : Initial AUTO-CI
   Lucas Lang             : DCDCAS
   Marvin Lechner         : AUTO-CI (C++ implementation), FIC-MRCC
   Dagmar Lenk            : GEPOL surface, SMD
   Dimitrios Liakos       : Extrapolation schemes; Compound Job, initial MDCI parallelization
   Dimitrios Manganas     : Further ROCIS development; embedding schemes
   Dimitrios Pantazis     : SARC Basis sets
   Anastasios Papadopoulos: AUTO-CI, single reference methods and gradients
   Taras Petrenko         : DFT Hessian,TD-DFT gradient, ASA, ECA, R-Raman, ABS, FL, XAS/XES, NRVS
   Peter Pinski           : DLPNO-MP2, DLPNO-MP2 Gradient
   Christoph Reimann      : Effective Core Potentials
   Marius Retegan         : Local ZFS, SOC
   Christoph Riplinger    : Optimizer, TS searches, QM/MM, DLPNO-CCSD(T), (RO)-DLPNO pert. Triples
   Tobias Risthaus        : Range-separated hybrids, TD-DFT gradient, RPA, STAB
   Michael Roemelt        : Original ROCIS implementation
   Masaaki Saitow         : Open-shell DLPNO-CCSD energy and density
   Barbara Sandhoefer     : DKH picture change effects
   Avijit Sen             : IP-ROCIS
   Kantharuban Sivalingam : CASSCF convergence, NEVPT2, FIC-MRCI
   Bernardo de Souza      : ESD, SOC TD-DFT
   Georgi Stoychev        : AutoAux, RI-MP2 NMR, DLPNO-MP2 response
   Willem Van den Heuvel  : Paramagnetic NMR
   Boris Wezisla          : Elementary symmetry handling
   Frank Wennmohs         : Technical directorship


 We gratefully acknowledge several colleagues who have allowed us to
 interface, adapt or use parts of their codes:
   Stefan Grimme, W. Hujo, H. Kruse, P. Pracht,  : VdW corrections, initial TS optimization,
                  C. Bannwarth, S. Ehlert          DFT functionals, gCP, sTDA/sTD-DF
   Ed Valeev, F. Pavosevic, A. Kumar             : LibInt (2-el integral package), F12 methods
   Garnet Chan, S. Sharma, J. Yang, R. Olivares  : DMRG
   Ulf Ekstrom                                   : XCFun DFT Library
   Mihaly Kallay                                 : mrcc  (arbitrary order and MRCC methods)
   Jiri Pittner, Ondrej Demel                    : Mk-CCSD
   Frank Weinhold                                : gennbo (NPA and NBO analysis)
   Christopher J. Cramer and Donald G. Truhlar   : smd solvation model
   Lars Goerigk                                  : TD-DFT with DH, B97 family of functionals
   V. Asgeirsson, H. Jonsson                     : NEB implementation
   FAccTs GmbH                                   : IRC, NEB, NEB-TS, DLPNO-Multilevel, CI-OPT
                                                   MM, QMMM, 2- and 3-layer-ONIOM, Crystal-QMMM,
                                                   LR-CPCM, SF, NACMEs, symmetry and pop. for TD-DFT,
                                                   nearIR, NL-DFT gradient (VV10), updates on ESD,
                                                   ML-optimized integration grids
   S Lehtola, MJT Oliveira, MAL Marques          : LibXC Library
   Liviu Ungur et al                             : ANISO software


 Your calculation uses the libint2 library for the computation of 2-el integrals
 For citations please refer to: http://libint.valeyev.net

 Your ORCA version has been built with support for libXC version: 5.1.0
 For citations please refer to: https://tddft.org/programs/libxc/

 This ORCA versions uses:
   CBLAS   interface :  Fast vector & matrix operations
   LAPACKE interface :  Fast linear algebra routines
   SCALAPACK package :  Parallel linear algebra routines
   Shared memory     :  Shared parallel matrices
   BLAS/LAPACK       :  OpenBLAS 0.3.15  USE64BITINT DYNAMIC_ARCH NO_AFFINITY Haswell SINGLE_THREADED
        Core in use  :  Haswell
   Copyright (c) 2011-2014, The OpenBLAS Project




***************************************
The coordinates will be read from file: 3.xyz
***************************************


================================================================================

cite the ECPs for Au [Def2-ECP] as follows:
Ce-Yb(ecp-28): M. Dolg, H. Stoll, H.Preuss, J. Chem. Phys., 1989, 90, 1730-1734.
Y-Cd(ecp-28), Hf-Hg(ecp-46): D. Andrae,U. Haeussermann, M. Dolg, H. Stoll, H. Preuss, Theor. Chim. Acta, 1990, 77, 123-141.
In-Sb(ecp-28), Tl-Bi(ecp-46): B. Metz, H. Stoll, M. Dolg, J. Chem. Phys., 2000, 113, 2563-2569.
Te-Xe(ecp-28), Po-Rn(ecp-46): K. A. Peterson, D. Figgen, E. Goll, H. Stoll, M. Dolg, J. Chem. Phys., 2003, 119, 11113-11123.
Rb(ecp-28), Cs(ecp-46): T. Leininger, A. Nicklass, W. Kuechle, H. Stoll, M. Dolg, A. Bergner, Chem. Phys. Lett., 1996, 255, 274-280.
Sr(ecp-28), Ba(ecp-46): M. Kaupp, P. V. Schleyer, H. Stoll and H. Preuss, J. Chem. Phys., 1991, 94, 1360-1366.
La(ecp-46): M. Dolg, H. Stoll, A. Savin, H. Preuss, Theor. Chim. Acta, 1989, 75, 173-194.
Lu(ecp-28): X. Cao, M. Dolg, J. Chem. Phys., 2001, 115, 7348-7355.

ECP parameters for Au [Def2-ECP] have been obtained from:
TURBOMOLE (7.0.2)

----- Orbital basis set information -----
Your calculation utilizes the basis: def2-TZVP
   F. Weigend and R. Ahlrichs, Phys. Chem. Chem. Phys. 7, 3297 (2005).

----- AuxJ basis set information -----
Your calculation utilizes the auxiliary basis: def2/J
   F. Weigend, Phys. Chem. Chem. Phys. 8, 1057 (2006).

================================================================================
                                        WARNINGS
                       Please study these warnings very carefully!
================================================================================


WARNING: your system is open-shell and RHF/RKS was chosen
  ===> : WILL SWITCH to UHF/UKS


WARNING: Geometry Optimization
  ===> : Switching off AutoStart
         For restart on a previous wavefunction, please use MOREAD

INFO   : the flag for use of the SHARK integral package has been found!

================================================================================
                                       INPUT FILE
================================================================================
NAME = pbe.inp
|  1> %pal nprocs 1 end 
|  2> 
|  3> !PBE def2-TZVP OPT UNO
|  4> !SLOWCONV KDIIS 
|  5> 
|  6> %geom maxiter 300 end
|  7> 
|  8> *xyzfile 0 3 3.xyz                           ****END OF INPUT****
================================================================================

                       *****************************
                       * Geometry Optimization Run *
                       *****************************

Geometry optimization settings:
Update method            Update   .... BFGS
Choice of coordinates    CoordSys .... Z-matrix Internals
Initial Hessian          InHess   .... Almoef's Model

Convergence Tolerances:
Energy Change            TolE     ....  5.0000e-06 Eh
Max. Gradient            TolMAXG  ....  3.0000e-04 Eh/bohr
RMS Gradient             TolRMSG  ....  1.0000e-04 Eh/bohr
Max. Displacement        TolMAXD  ....  4.0000e-03 bohr
RMS Displacement         TolRMSD  ....  2.0000e-03 bohr
Strict Convergence                ....  False
------------------------------------------------------------------------------
                        ORCA OPTIMIZATION COORDINATE SETUP
------------------------------------------------------------------------------

The optimization will be done in new redundant internal coordinates
Making redundant internal coordinates   ...  (new redundants) done
Evaluating the initial hessian          ...  (Almloef) done
Evaluating the coordinates              ...  done
Calculating the B-matrix                .... done
Calculating the G-matrix                .... done
Diagonalizing the G-matrix              .... done
The first mode is                       ....  393
The number of degrees of freedom        ....   45

    -----------------------------------------------------------------
                    Redundant Internal Coordinates


    -----------------------------------------------------------------
         Definition                    Initial Value    Approx d2E/dq
    -----------------------------------------------------------------
      1. B(Au  2,Au  1)                  2.7823         0.007270   
      2. B(Au  3,Au  2)                  2.7825         0.007267   
      3. B(Au  5,Au  4)                  2.7999         0.006815   
      4. B(Au  5,Au  3)                  2.9562         0.003839   
      5. B(Au  5,Au  2)                  2.8593         0.005480   
      6. B(Au 10,Au  5)                  2.8573         0.005519   
      7. B(Au 10,Au  4)                  2.8599         0.005467   
      8. B(Au 11,Au 10)                  2.7927         0.006999   
      9. B(Au 12,Au 11)                  2.7927         0.006999   
     10. B(Au 12,Au 10)                  2.8160         0.006425   
     11. B(Au 13,Au  2)                  2.8432         0.005814   
     12. B(Au 13,Au  5)                  2.8348         0.005995   
     13. B(Au 13,Au 12)                  2.8544         0.005580   
     14. B(Au 13,Au 10)                  2.8543         0.005581   
     15. B(Au 14,Au 13)                  2.8349         0.005993   
     16. B(Au 14,Au 12)                  2.8574         0.005517   
     17. B(Au 14,Au  2)                  2.8592         0.005482   
     18. B(Au 14,Au  1)                  2.9562         0.003838   
     19. B(Au 15,Au 12)                  2.8600         0.005465   
     20. B(Au 15,Au 14)                  2.7999         0.006816   
     21. B(Cr 16,Au  8)                  2.5872         0.108260   
     22. B(Cr 16,Au  7)                  2.6603         0.082744   
     23. B(Cr 16,Au  3)                  2.7061         0.069946   
     24. B(Cr 16,Au 15)                  2.7929         0.050844   
     25. B(Cr 16,Au  6)                  2.6726         0.079086   
     26. B(Cr 16,Au 11)                  2.9044         0.033755   
     27. B(Cr 16,Au  9)                  2.6726         0.079106   
     28. B(Cr 16,Au  4)                  2.7928         0.050851   
     29. B(Cr 16,Au  1)                  2.7060         0.069949   
     30. B(Cr 16,Au  0)                  2.5871         0.108280   
     31. A(Au  2,Au  1,Cr 16)          103.0356         0.183739   
     32. A(Au 14,Au  1,Cr 16)          103.1382         0.170987   
     33. A(Au  2,Au  1,Au 14)           59.6764         0.132792   
     34. A(Au  5,Au  2,Au 14)          108.7240         0.133528   
     35. A(Au  1,Au  2,Au 14)           63.1854         0.136471   
     36. A(Au  1,Au  2,Au  5)          111.3993         0.136467   
     37. A(Au  3,Au  2,Au 13)          111.3247         0.137102   
     38. A(Au  3,Au  2,Au 14)          111.3999         0.136466   
     39. A(Au  1,Au  2,Au 13)          111.3292         0.137106   
     40. A(Au  1,Au  2,Au  3)           60.2677         0.139599   
     41. A(Au  5,Au  2,Au 13)           59.6186         0.134125   
     42. A(Au 13,Au  2,Au 14)           59.6220         0.134128   
     43. A(Au  3,Au  2,Au  5)           63.1822         0.136462   
     44. A(Au  2,Au  3,Cr 16)          103.0322         0.183729   
     45. A(Au  2,Au  3,Au  5)           59.6776         0.132789   
     46. A(Au  5,Au  3,Cr 16)          103.1403         0.170988   
     47. A(Au  5,Au  4,Cr 16)          105.0440         0.175863   
     48. A(Au 10,Au  4,Cr 16)          104.3726         0.171635   
     49. A(Au  5,Au  4,Au 10)           60.6313         0.135753   
     50. A(Au  3,Au  5,Au 10)          108.2238         0.130145   
     51. A(Au 10,Au  5,Au 13)           60.1901         0.134513   
     52. A(Au  4,Au  5,Au 13)          108.4822         0.136739   
     53. A(Au  2,Au  5,Au 13)           59.9085         0.134440   
     54. A(Au  4,Au  5,Au 10)           60.7233         0.135854   
     55. A(Au  3,Au  5,Au  4)           60.3454         0.132158   
     56. A(Au  2,Au  5,Au  4)          105.6137         0.135778   
     57. A(Au  2,Au  5,Au  3)           57.1403         0.130079   
     58. A(Au  3,Au  5,Au 13)          106.6575         0.130923   
     59. A(Au  2,Au  5,Au 10)          106.8655         0.133597   
     60. A(Au  4,Au 10,Au  5)           58.6454         0.133573   
     61. A(Au  5,Au 10,Au 12)          108.6932         0.135232   
     62. A(Au  5,Au 10,Au 11)          110.0016         0.136136   
     63. A(Au  4,Au 10,Au 13)          106.2981         0.133685   
     64. A(Au 12,Au 10,Au 13)           60.4447         0.135348   
     65. A(Au 11,Au 10,Au 13)          108.4993         0.136254   
     66. A(Au  5,Au 10,Au 13)           59.5138         0.133781   
     67. A(Au  4,Au 10,Au 12)          108.8975         0.135133   
     68. A(Au 11,Au 10,Au 12)           59.7238         0.137785   
     69. A(Au  4,Au 10,Au 11)           62.7057         0.136035   
     70. A(Au 10,Au 11,Cr 16)          103.2201         0.168646   
     71. A(Au 12,Au 11,Cr 16)          103.2198         0.168646   
     72. A(Au 10,Au 11,Au 12)           60.5523         0.138739   
     73. A(Au 14,Au 12,Au 15)           58.6426         0.133565   
     74. A(Au 11,Au 12,Au 14)          110.0002         0.136132   
     75. A(Au 10,Au 12,Au 11)           59.7239         0.137786   
     76. A(Au 11,Au 12,Au 13)          108.4980         0.136252   
     77. A(Au 11,Au 12,Au 15)           62.7085         0.136031   
     78. A(Au 13,Au 12,Au 14)           59.5143         0.133775   
     79. A(Au 10,Au 12,Au 15)          108.8996         0.135129   
     80. A(Au 10,Au 12,Au 13)           60.4429         0.135347   
     81. A(Au 13,Au 12,Au 15)          106.2976         0.133679   
     82. A(Au 10,Au 12,Au 14)          108.6916         0.135228   
     83. A(Au 12,Au 13,Au 14)           60.2968         0.134622   
     84. A(Au  5,Au 13,Au 14)          110.1096         0.135370   
     85. A(Au  2,Au 13,Au 12)          107.3840         0.134309   
     86. A(Au  2,Au 13,Au 10)          107.3852         0.134311   
     87. A(Au  2,Au 13,Au  5)           60.4729         0.135052   
     88. A(Au  5,Au 13,Au 10)           60.2961         0.134628   
     89. A(Au 10,Au 13,Au 12)           59.1124         0.133892   
     90. A(Au  5,Au 13,Au 12)          108.2502         0.134626   
     91. A(Au  2,Au 13,Au 14)           60.4696         0.135048   
     92. A(Au 10,Au 13,Au 14)          108.2502         0.134624   
     93. A(Au  1,Au 14,Au  2)           57.1383         0.130081   
     94. A(Au 13,Au 14,Au 15)          108.4839         0.136736   
     95. A(Au  2,Au 14,Au 13)           59.9084         0.134440   
     96. A(Au  1,Au 14,Au 13)          106.6552         0.130919   
     97. A(Au 12,Au 14,Au 15)           60.7249         0.135851   
     98. A(Au  2,Au 14,Au 15)          105.6167         0.135783   
     99. A(Au  1,Au 14,Au 15)           60.3483         0.132158   
    100. A(Au 12,Au 14,Au 13)           60.1890         0.134506   
    101. A(Au  2,Au 14,Au 12)          106.8654         0.133596   
    102. A(Au  1,Au 14,Au 12)          108.2245         0.130141   
    103. A(Au 12,Au 15,Cr 16)          104.3683         0.171625   
    104. A(Au 12,Au 15,Au 14)           60.6325         0.135750   
    105. A(Au 14,Au 15,Cr 16)          105.0417         0.175862   
    106. A(Au  7,Cr 16,Au 11)          117.0195         0.245231   
    107. A(Au  6,Cr 16,Au 11)           60.8767         0.243640   
    108. A(Au  1,Cr 16,Au  8)          113.9111         0.284798   
    109. A(Au  4,Cr 16,Au 11)           62.1365         0.228930   
    110. A(Au  3,Cr 16,Au 11)          115.3007         0.239401   
    111. A(Au  0,Cr 16,Au  8)          116.7627         0.305153   
    112. A(Au  3,Cr 16,Au  6)          116.0847         0.271365   
    113. A(Au  1,Cr 16,Au 11)          115.3041         0.239402   
    114. A(Au  0,Cr 16,Au 11)          118.2280         0.255037   
    115. A(Au  6,Cr 16,Au  7)           66.9725         0.278433   
    116. A(Au  8,Cr 16,Au  9)          122.2673         0.290327   
    117. A(Au  7,Cr 16,Au  9)           66.9746         0.278444   
    118. A(Au  4,Cr 16,Au  7)          117.9659         0.260414   
    119. A(Au  0,Cr 16,Au  6)          122.2722         0.290324   
    120. A(Au  1,Cr 16,Au  3)           62.1532         0.266367   
    121. A(Au  6,Cr 16,Au  9)           65.2652         0.276516   
    122. A(Au  4,Cr 16,Au  9)          114.9130         0.258678   
    123. A(Au  3,Cr 16,Au  7)          117.8409         0.273240   
    124. A(Au  1,Cr 16,Au  9)          116.0928         0.271377   
    125. A(Au 11,Cr 16,Au 15)           62.1401         0.228925   
    126. A(Au  9,Cr 16,Au 15)           61.3065         0.258672   
    127. A(Au  0,Cr 16,Au  9)           67.3905         0.290336   
    128. A(Au  1,Cr 16,Au  7)          117.8442         0.273242   
    129. A(Au  3,Cr 16,Au  4)           63.5408         0.254017   
    130. A(Au  7,Cr 16,Au 15)          117.9700         0.260408   
    131. A(Au  6,Cr 16,Au 15)          114.9174         0.258663   
    132. A(Au  7,Cr 16,Au  8)           65.3910         0.292386   
    133. A(Au  4,Cr 16,Au 15)          113.4013         0.242524   
    134. A(Au  3,Cr 16,Au 15)          114.6672         0.254012   
    135. A(Au  6,Cr 16,Au  8)           67.3844         0.290316   
    136. A(Au  0,Cr 16,Au  7)           65.3960         0.292395   
    137. A(Au  1,Cr 16,Au 15)           63.5435         0.254013   
    138. A(Au  0,Cr 16,Au 15)           64.8152         0.271167   
    139. A(Au  4,Cr 16,Au  8)           64.8151         0.271165   
    140. A(Au  9,Cr 16,Au 11)           60.8765         0.243649   
    141. A(Au  8,Cr 16,Au 11)          118.2232         0.255030   
    142. A(Au  3,Cr 16,Au  8)           61.7190         0.284797   
    143. A(Au  4,Cr 16,Au  6)           61.3033         0.258669   
    144. A(Au  1,Cr 16,Au  4)          114.6647         0.254019   
    145. A(Au  0,Cr 16,Au  3)          113.9123         0.284805   
    146. A(Au  0,Cr 16,Au  1)           61.7199         0.284807   
    147. D(Au  5,Au  2,Au  1,Au 14)    100.8501         0.001502   
    148. D(Au 13,Au  2,Au  1,Cr 16)    -61.4258         0.001502   
    149. D(Au 14,Au  2,Au  1,Cr 16)    -97.7513         0.001502   
    150. D(Au  5,Au  2,Au  1,Cr 16)      3.0988         0.001502   
    151. D(Au  3,Au  2,Au  1,Au 14)    139.4205         0.001502   
    152. D(Au 13,Au  2,Au  1,Au 14)     36.3256         0.001502   
    153. D(Au  3,Au  2,Au  1,Cr 16)     41.6692         0.001502   
    154. D(Au  5,Au  3,Au  2,Au 13)    -36.3216         0.001502   
    155. D(Cr 16,Au  3,Au  2,Au  5)     97.7558         0.001502   
    156. D(Au  5,Au  3,Au  2,Au 14)   -100.8489         0.001502   
    157. D(Cr 16,Au  3,Au  2,Au 14)     -3.0930         0.001502   
    158. D(Cr 16,Au  3,Au  2,Au 13)     61.4342         0.001502   
    159. D(Cr 16,Au  3,Au  2,Au  1)    -41.6683         0.001502   
    160. D(Au  5,Au  3,Au  2,Au  1)   -139.4242         0.001502   
    161. D(Au 13,Au  5,Au  2,Au 14)    -35.1477         0.001501   
    162. D(Au  2,Au  5,Au  4,Au 10)   -100.8756         0.001502   
    163. D(Au 13,Au  5,Au  2,Au  1)   -102.8911         0.001501   
    164. D(Au  3,Au  5,Au  4,Cr 16)    -38.7722         0.001502   
    165. D(Au  4,Au  5,Au  3,Au  2)    137.4311         0.001501   
    166. D(Au  4,Au  5,Au  3,Cr 16)     39.8620         0.001501   
    167. D(Au  3,Au  5,Au  4,Au 10)   -137.0336         0.001502   
    168. D(Au  3,Au  5,Au  2,Au  1)     37.3473         0.001501   
    169. D(Au 10,Au  5,Au  2,Au 13)     39.0985         0.001501   
    170. D(Au  2,Au  5,Au  3,Cr 16)    -97.5690         0.001501   
    171. D(Au  4,Au  5,Au  2,Au 13)    102.6200         0.001501   
    172. D(Au 10,Au  5,Au  3,Cr 16)      1.1133         0.001501   
    173. D(Au 13,Au  5,Au  4,Au 10)    -37.9723         0.001502   
    174. D(Au 10,Au  5,Au  2,Au  3)   -101.1399         0.001501   
    175. D(Au  2,Au  5,Au  4,Cr 16)     -2.6142         0.001502   
    176. D(Au  4,Au  5,Au  2,Au 14)     67.4723         0.001501   
    177. D(Au 10,Au  5,Au  2,Au 14)      3.9508         0.001501   
    178. D(Au 13,Au  5,Au  4,Cr 16)     60.2890         0.001502   
    179. D(Au 13,Au  5,Au  2,Au  3)   -140.2384         0.001501   
    180. D(Au  4,Au  5,Au  2,Au  3)    -37.6184         0.001501   
    181. D(Au 13,Au  5,Au  3,Au  2)     35.2843         0.001501   
    182. D(Au 10,Au  5,Au  2,Au  1)    -63.7926         0.001501   
    183. D(Au  3,Au  5,Au  2,Au 13)    140.2384         0.001501   
    184. D(Au  3,Au  5,Au  2,Au 14)    105.0907         0.001501   
    185. D(Au 13,Au  5,Au  3,Cr 16)    -62.2848         0.001501   
    186. D(Au 10,Au  5,Au  3,Au  2)     98.6824         0.001501   
    187. D(Au 10,Au  5,Au  4,Cr 16)     98.2614         0.001502   
    188. D(Au  4,Au  5,Au  2,Au  1)     -0.2711         0.001501   
    189. D(Au 13,Au 10,Au  5,Au  4)   -137.7369         0.001501   
    190. D(Au 11,Au 10,Au  5,Au  4)    -37.5107         0.001501   
    191. D(Au 12,Au 10,Au  5,Au  3)    -62.6214         0.001501   
    192. D(Au 11,Au 10,Au  5,Au 13)    100.2261         0.001501   
    193. D(Au 12,Au 10,Au  5,Au 13)     36.5376         0.001501   
    194. D(Au 13,Au 10,Au  5,Au  2)    -38.9670         0.001501   
    195. D(Au 11,Au 10,Au  5,Au  2)     61.2592         0.001501   
    196. D(Au  4,Au 10,Au  5,Au 13)    137.7369         0.001501   
    197. D(Au 12,Au 10,Au  5,Au  4)   -101.1993         0.001501   
    198. D(Au  4,Au 10,Au  5,Au  3)     38.5779         0.001501   
    199. D(Au  4,Au 10,Au  5,Au  2)     98.7699         0.001501   
    200. D(Au 12,Au 10,Au  5,Au  2)     -2.4294         0.001501   
    201. D(Au 13,Au 10,Au  4,Cr 16)    -62.2518         0.001501   
    202. D(Au  5,Au 10,Au  4,Cr 16)    -99.3960         0.001501   
    203. D(Au 13,Au 10,Au  4,Au  5)     37.1443         0.001501   
    204. D(Au 12,Au 10,Au  4,Cr 16)      1.4462         0.001501   
    205. D(Au 13,Au 10,Au  5,Au  3)    -99.1590         0.001501   
    206. D(Au 11,Au 10,Au  4,Cr 16)     40.5230         0.001501   
    207. D(Au 11,Au 10,Au  5,Au  3)      1.0671         0.001501   
    208. D(Au 12,Au 10,Au  4,Au  5)    100.8422         0.001501   
    209. D(Au 11,Au 10,Au  4,Au  5)    139.9191         0.001501   
    210. D(Au 12,Au 11,Au 10,Au  4)   -136.3243         0.001502   
    211. D(Au 12,Au 11,Au 10,Au  5)   -100.5118         0.001502   
    212. D(Au 12,Au 11,Au 10,Au 13)    -37.0969         0.001502   
    213. D(Cr 16,Au 11,Au 10,Au  5)     -2.6295         0.001502   
    214. D(Cr 16,Au 11,Au 10,Au 13)     60.7854         0.001502   
    215. D(Cr 16,Au 11,Au 10,Au 12)     97.8823         0.001502   
    216. D(Cr 16,Au 11,Au 10,Au  4)    -38.4420         0.001502   
    217. D(Au 13,Au 12,Au 10,Au 11)   -138.8860         0.001502   
    218. D(Au 14,Au 12,Au 11,Cr 16)      2.6279         0.001502   
    219. D(Au 15,Au 12,Au 11,Au 10)    136.3239         0.001502   
    220. D(Au 13,Au 12,Au 10,Au  5)    -36.1419         0.001502   
    221. D(Au 10,Au 12,Au 11,Cr 16)    -97.8828         0.001502   
    222. D(Au 13,Au 12,Au 11,Au 10)     37.0958         0.001502   
    223. D(Au 14,Au 12,Au 10,Au 13)     36.1426         0.001502   
    224. D(Au 14,Au 12,Au 10,Au  5)      0.0007         0.001502   
    225. D(Au 14,Au 12,Au 11,Au 10)    100.5107         0.001502   
    226. D(Au 14,Au 12,Au 10,Au 11)   -102.7434         0.001502   
    227. D(Au 13,Au 12,Au 10,Au  4)    -98.4460         0.001502   
    228. D(Au 13,Au 12,Au 11,Cr 16)    -60.7870         0.001502   
    229. D(Au 14,Au 12,Au 10,Au  4)    -62.3034         0.001502   
    230. D(Au 15,Au 12,Au 11,Cr 16)     38.4411         0.001502   
    231. D(Au 15,Au 12,Au 10,Au 13)     98.4438         0.001502   
    232. D(Au 15,Au 12,Au 10,Au  5)     62.3019         0.001502   
    233. D(Au 15,Au 12,Au 10,Au 11)    -40.4422         0.001502   
    234. D(Au 15,Au 12,Au 10,Au  4)     -0.0022         0.001502   
    235. D(Au 11,Au 12,Au 10,Au  5)    102.7442         0.001502   
    236. D(Au 11,Au 12,Au 10,Au  4)     40.4401         0.001502   
    237. D(Au 11,Au 12,Au 10,Au 13)    138.8860         0.001502   
    238. D(Au 10,Au 13,Au  5,Au  2)    135.9275         0.001501   
    239. D(Au  5,Au 13,Au 10,Au  4)    -36.7531         0.001501   
    240. D(Au 10,Au 13,Au  5,Au  4)     38.2092         0.001501   
    241. D(Au  2,Au 13,Au 10,Au  4)      2.6078         0.001501   
    242. D(Au 14,Au 13,Au  5,Au 10)   -100.0830         0.001501   
    243. D(Au 14,Au 13,Au  5,Au  2)     35.8444         0.001501   
    244. D(Au 14,Au 13,Au  5,Au  4)    -61.8738         0.001501   
    245. D(Au 12,Au 13,Au  5,Au  3)     65.9554         0.001501   
    246. D(Au 12,Au 13,Au  5,Au  2)    100.0661         0.001501   
    247. D(Au 14,Au 13,Au  5,Au  3)      1.7337         0.001501   
    248. D(Au 10,Au 13,Au  5,Au  3)    101.8167         0.001501   
    249. D(Au  2,Au 13,Au  5,Au 10)   -135.9275         0.001501   
    250. D(Au  5,Au 13,Au 10,Au 11)   -102.8014         0.001501   
    251. D(Au  2,Au 13,Au 10,Au 12)   -100.2255         0.001501   
    252. D(Au  2,Au 13,Au  5,Au  4)    -97.7182         0.001501   
    253. D(Au  2,Au 13,Au  5,Au  3)    -34.1107         0.001501   
    254. D(Au  5,Au 13,Au 10,Au 12)   -139.5863         0.001501   
    255. D(Au 14,Au 13,Au  2,Au  5)   -140.8032         0.001501   
    256. D(Au  2,Au 13,Au 10,Au  5)     39.3608         0.001501   
    257. D(Au 12,Au 13,Au 10,Au  4)    102.8333         0.001501   
    258. D(Au 14,Au 13,Au  2,Au  1)    -37.7929         0.001501   
    259. D(Au 12,Au 13,Au  5,Au  4)      2.3479         0.001501   
    260. D(Au 12,Au 13,Au  5,Au 10)    -35.8613         0.001501   
    261. D(Au 12,Au 13,Au  2,Au  5)   -101.5260         0.001501   
    262. D(Au 14,Au 13,Au  2,Au  3)   -103.0142         0.001501   
    263. D(Au 12,Au 13,Au  2,Au 14)     39.2772         0.001501   
    264. D(Au 12,Au 13,Au  2,Au  3)    -63.7370         0.001501   
    265. D(Au 12,Au 13,Au  2,Au  1)      1.4843         0.001501   
    266. D(Au  2,Au 13,Au 10,Au 11)    -63.4406         0.001501   
    267. D(Au 10,Au 13,Au  2,Au 14)    101.5247         0.001501   
    268. D(Au 10,Au 13,Au  2,Au  3)     -1.4895         0.001501   
    269. D(Au  5,Au 13,Au  2,Au  1)    103.0103         0.001501   
    270. D(Au 10,Au 13,Au  2,Au  1)     63.7318         0.001501   
    271. D(Au  5,Au 13,Au  2,Au 14)    140.8032         0.001501   
    272. D(Au 14,Au 13,Au 12,Au 15)     36.7496         0.001501   
    273. D(Au 14,Au 13,Au 12,Au 11)    102.8006         0.001501   
    274. D(Au 10,Au 13,Au 12,Au 14)   -139.5853         0.001501   
    275. D(Au 10,Au 13,Au  2,Au  5)    -39.2785         0.001501   
    276. D(Au  5,Au 13,Au  2,Au  3)     37.7890         0.001501   
    277. D(Au  5,Au 13,Au 12,Au 10)     36.3659         0.001501   
    278. D(Au  2,Au 13,Au 12,Au 15)     -2.6081         0.001501   
    279. D(Au  2,Au 13,Au 12,Au 14)    -39.3576         0.001501   
    280. D(Au  2,Au 13,Au 12,Au 10)    100.2276         0.001501   
    281. D(Au  5,Au 13,Au 12,Au 11)     -0.4188         0.001501   
    282. D(Au  5,Au 13,Au 12,Au 14)   -103.2194         0.001501   
    283. D(Au  2,Au 13,Au 12,Au 11)     63.4429         0.001501   
    284. D(Au 14,Au 13,Au 10,Au  5)    103.2193         0.001501   
    285. D(Au 14,Au 13,Au 10,Au 12)    -36.3671         0.001501   
    286. D(Au 10,Au 13,Au 12,Au 11)    -36.7847         0.001501   
    287. D(Au 10,Au 13,Au 12,Au 15)   -102.8357         0.001501   
    288. D(Au 14,Au 13,Au 10,Au 11)      0.4179         0.001501   
    289. D(Au 14,Au 13,Au 10,Au  4)     66.4662         0.001501   
    290. D(Au 12,Au 13,Au 10,Au  5)    139.5863         0.001501   
    291. D(Au 12,Au 13,Au 10,Au 11)     36.7850         0.001501   
    292. D(Au 14,Au 13,Au 12,Au 10)    139.5853         0.001501   
    293. D(Au  5,Au 13,Au 12,Au 15)    -66.4698         0.001501   
    294. D(Au 15,Au 14,Au 13,Au 12)    -38.2082         0.001501   
    295. D(Au 15,Au 14,Au 13,Au 10)     -2.3460         0.001501   
    296. D(Au 15,Au 14,Au 13,Au  5)     61.8750         0.001501   
    297. D(Au 15,Au 14,Au 13,Au  2)     97.7208         0.001501   
    298. D(Au 12,Au 14,Au 13,Au 10)     35.8622         0.001501   
    299. D(Au 12,Au 14,Au 13,Au  2)    135.9290         0.001501   
    300. D(Au  2,Au 14,Au 13,Au 12)   -135.9290         0.001501   
    301. D(Au  2,Au 14,Au 13,Au 10)   -100.0668         0.001501   
    302. D(Au  1,Au 14,Au 13,Au 12)   -101.8186         0.001501   
    303. D(Au  1,Au 14,Au 13,Au 10)    -65.9564         0.001501   
    304. D(Au  1,Au 14,Au 13,Au  5)     -1.7353         0.001501   
    305. D(Au 13,Au 14,Au 12,Au 10)    -36.5374         0.001501   
    306. D(Au 13,Au 14,Au 12,Au 15)   -137.7394         0.001501   
    307. D(Au 13,Au 14,Au 12,Au 11)   -100.2254         0.001501   
    308. D(Au 15,Au 14,Au 12,Au 13)    137.7394         0.001501   
    309. D(Au 15,Au 14,Au 12,Au 10)    101.2020         0.001501   
    310. D(Au 15,Au 14,Au 12,Au 11)     37.5140         0.001501   
    311. D(Au  2,Au 14,Au 12,Au 13)     38.9657         0.001501   
    312. D(Au  2,Au 14,Au 12,Au 15)    -98.7737         0.001501   
    313. D(Au  2,Au 14,Au 12,Au 11)    -61.2598         0.001501   
    314. D(Au  1,Au 14,Au 12,Au 13)     99.1556         0.001501   
    315. D(Au  1,Au 14,Au 12,Au 10)     62.6183         0.001501   
    316. D(Au  1,Au 14,Au 12,Au 15)    -38.5837         0.001501   
    317. D(Au  1,Au 14,Au 12,Au 11)     -1.0698         0.001501   
    318. D(Au 13,Au 14,Au  2,Au  5)     35.1463         0.001501   
    319. D(Au 13,Au 14,Au  2,Au  3)    102.8864         0.001501   
    320. D(Au  2,Au 14,Au 12,Au 10)      2.4283         0.001501   
    321. D(Au 13,Au 14,Au  2,Au  1)    140.2371         0.001501   
    322. D(Au 15,Au 14,Au  2,Au 13)   -102.6204         0.001501   
    323. D(Au 15,Au 14,Au  2,Au  5)    -67.4740         0.001501   
    324. D(Au 15,Au 14,Au  2,Au  3)      0.2660         0.001501   
    325. D(Au 15,Au 14,Au  2,Au  1)     37.6167         0.001501   
    326. D(Au 12,Au 14,Au  2,Au 13)    -39.0967         0.001501   
    327. D(Au 12,Au 14,Au  2,Au  5)     -3.9503         0.001501   
    328. D(Au  1,Au 14,Au 13,Au  2)     34.1105         0.001501   
    329. D(Au 12,Au 14,Au  2,Au  3)     63.7897         0.001501   
    330. D(Au 12,Au 14,Au  2,Au  1)    101.1404         0.001501   
    331. D(Au  1,Au 14,Au  2,Au 13)   -140.2371         0.001501   
    332. D(Au  2,Au 14,Au 13,Au  5)    -35.8458         0.001501   
    333. D(Au  1,Au 14,Au  2,Au  5)   -105.0907         0.001501   
    334. D(Au  1,Au 14,Au  2,Au  3)    -37.3507         0.001501   
    335. D(Au 13,Au 14,Au  1,Au  2)    -35.2849         0.001501   
    336. D(Au 12,Au 14,Au 13,Au  5)    100.0832         0.001501   
    337. D(Au 13,Au 14,Au  1,Cr 16)     62.2891         0.001501   
    338. D(Au 15,Au 14,Au  1,Au  2)   -137.4354         0.001501   
    339. D(Au 15,Au 14,Au  1,Cr 16)    -39.8614         0.001501   
    340. D(Au 12,Au 14,Au  1,Au  2)    -98.6814         0.001501   
    341. D(Au 12,Au 14,Au  1,Cr 16)     -1.1074         0.001501   
    342. D(Au  2,Au 14,Au  1,Cr 16)     97.5740         0.001501   
    343. D(Au 12,Au 15,Au 14,Au 13)     37.9701         0.001502   
    344. D(Au 12,Au 15,Au 14,Au  2)    100.8743         0.001502   
    345. D(Au 12,Au 15,Au 14,Au  1)    137.0285         0.001502   
    346. D(Cr 16,Au 15,Au 14,Au 12)    -98.2579         0.001502   
    347. D(Cr 16,Au 15,Au 14,Au  2)      2.6164         0.001502   
    348. D(Cr 16,Au 15,Au 14,Au  1)     38.7706         0.001502   
    349. D(Au 14,Au 15,Au 12,Au 13)    -37.1423         0.001501   
    350. D(Au 14,Au 15,Au 12,Au 10)   -100.8386         0.001501   
    351. D(Au 14,Au 15,Au 12,Au 11)   -139.9163         0.001501   
    352. D(Cr 16,Au 15,Au 14,Au 13)    -60.2877         0.001502   
    353. D(Cr 16,Au 15,Au 12,Au 13)     62.2535         0.001501   
    354. D(Cr 16,Au 15,Au 12,Au 14)     99.3958         0.001501   
    355. D(Cr 16,Au 15,Au 12,Au 10)     -1.4427         0.001501   
    356. D(Cr 16,Au 15,Au 12,Au 11)    -40.5205         0.001501   
    357. D(Au  9,Cr 16,Au  4,Au  5)   -133.3262         0.001513   
    358. D(Au  9,Cr 16,Au  4,Au 10)    -70.4149         0.001513   
    359. D(Au  8,Cr 16,Au  4,Au  5)    111.0748         0.001513   
    360. D(Au  7,Cr 16,Au  4,Au  5)    150.6598         0.001513   
    361. D(Au  7,Cr 16,Au  4,Au 10)   -146.4289         0.001513   
    362. D(Au  6,Cr 16,Au  4,Au  5)   -172.0475         0.001513   
    363. D(Au  3,Cr 16,Au  4,Au  5)     41.6105         0.001513   
    364. D(Au  3,Cr 16,Au  4,Au 10)    104.5218         0.001513   
    365. D(Au  1,Cr 16,Au  4,Au  5)      4.9979         0.001513   
    366. D(Au  1,Cr 16,Au  4,Au 10)     67.9092         0.001513   
    367. D(Au 15,Cr 16,Au  3,Au  5)     66.4579         0.001524   
    368. D(Au 15,Cr 16,Au  3,Au  2)      5.0201         0.001524   
    369. D(Au 11,Cr 16,Au  3,Au  5)     -2.9508         0.001524   
    370. D(Au  8,Cr 16,Au  3,Au  5)   -112.8067         0.001524   
    371. D(Au  8,Cr 16,Au  3,Au  2)   -174.2446         0.001524   
    372. D(Au  7,Cr 16,Au  3,Au  5)   -147.8296         0.001524   
    373. D(Au  6,Cr 16,Au  3,Au  5)    -71.3613         0.001524   
    374. D(Au  6,Cr 16,Au  3,Au  2)   -132.7991         0.001524   
    375. D(Au  4,Cr 16,Au  3,Au  5)    -38.5896         0.001524   
    376. D(Au  4,Cr 16,Au  3,Au  2)   -100.0274         0.001524   
    377. D(Au  1,Cr 16,Au  3,Au  5)    103.6058         0.001524   
    378. D(Au  1,Cr 16,Au  3,Au  2)     42.1680         0.001524   
    379. D(Au  0,Cr 16,Au  3,Au  5)    138.4827         0.001524   
    380. D(Au  7,Cr 16,Au  3,Au  2)    150.7326         0.001524   
    381. D(Au  0,Cr 16,Au  3,Au  2)     77.0449         0.001524   
    382. D(Au 15,Cr 16,Au  1,Au 14)     38.5882         0.001524   
    383. D(Au 15,Cr 16,Au  1,Au  2)    100.0249         0.001524   
    384. D(Au 11,Cr 16,Au  3,Au  2)    -64.3886         0.001524   
    385. D(Au 11,Cr 16,Au  1,Au 14)      2.9435         0.001524   
    386. D(Au 11,Cr 16,Au  1,Au  2)     64.3802         0.001524   
    387. D(Au  9,Cr 16,Au  1,Au 14)     71.3574         0.001524   
    388. D(Au  9,Cr 16,Au  1,Au  2)    132.7942         0.001524   
    389. D(Au  8,Cr 16,Au  1,Au 14)   -138.4847         0.001524   
    390. D(Au  8,Cr 16,Au  1,Au  2)    -77.0480         0.001524   
    391. D(Au  7,Cr 16,Au  1,Au 14)    147.8330         0.001524   
    392. D(Au  6,Cr 16,Au  4,Au 10)   -109.1362         0.001513   
    393. D(Au  7,Cr 16,Au  1,Au  2)   -150.7303         0.001524   
    394. D(Au  4,Cr 16,Au  1,Au 14)    -66.4612         0.001524   
    395. D(Au  4,Cr 16,Au  1,Au  2)     -5.0244         0.001524   
    396. D(Au  8,Cr 16,Au  4,Au 10)    173.9861         0.001513   
    397. D(Au  3,Cr 16,Au  1,Au 14)   -103.6077         0.001524   
    398. D(Au  3,Cr 16,Au  1,Au  2)    -42.1710         0.001524   
    399. D(Au  0,Cr 16,Au  1,Au 14)    112.8040         0.001524   
    400. D(Au 11,Cr 16,Au  4,Au 10)    -38.9039         0.001513   
    401. D(Au  0,Cr 16,Au  1,Au  2)    174.2407         0.001524   
    402. D(Au 11,Cr 16,Au 15,Au 14)    101.8127         0.001513   
    403. D(Au 11,Cr 16,Au 15,Au 12)     38.9011         0.001513   
    404. D(Au  9,Cr 16,Au 15,Au 14)    172.0421         0.001513   
    405. D(Au  9,Cr 16,Au 15,Au 12)    109.1305         0.001513   
    406. D(Au  7,Cr 16,Au 15,Au 14)   -150.6626         0.001513   
    407. D(Au  6,Cr 16,Au 15,Au 14)    133.3226         0.001513   
    408. D(Au  6,Cr 16,Au 15,Au 12)     70.4111         0.001513   
    409. D(Au  4,Cr 16,Au 15,Au 14)     65.4006         0.001513   
    410. D(Au  3,Cr 16,Au 15,Au 14)     -4.9967         0.001513   
    411. D(Au  3,Cr 16,Au 15,Au 12)    -67.9082         0.001513   
    412. D(Au  1,Cr 16,Au 15,Au 14)    -41.6096         0.001513   
    413. D(Au  0,Cr 16,Au 15,Au 14)   -111.0741         0.001513   
    414. D(Au  0,Cr 16,Au 15,Au 12)   -173.9856         0.001513   
    415. D(Au 15,Cr 16,Au 11,Au 10)   -102.1712         0.001506   
    416. D(Au 15,Cr 16,Au 11,Au 12)    -39.7892         0.001506   
    417. D(Au  9,Cr 16,Au 11,Au 10)   -173.0735         0.001506   
    418. D(Au  9,Cr 16,Au 11,Au 12)   -110.6915         0.001506   
    419. D(Au  8,Cr 16,Au 11,Au 10)     73.6872         0.001506   
    420. D(Au  8,Cr 16,Au 11,Au 12)    136.0692         0.001506   
    421. D(Au  7,Cr 16,Au 11,Au 10)    148.8060         0.001506   
    422. D(Au  7,Cr 16,Au 11,Au 12)   -148.8120         0.001506   
    423. D(Au  6,Cr 16,Au 11,Au 10)    110.6893         0.001506   
    424. D(Au  1,Cr 16,Au 15,Au 12)   -104.5211         0.001513   
    425. D(Au  6,Cr 16,Au 11,Au 12)    173.0713         0.001506   
    426. D(Au  4,Cr 16,Au 11,Au 10)     39.7894         0.001506   
    427. D(Au  4,Cr 16,Au 11,Au 12)    102.1714         0.001506   
    428. D(Au  4,Cr 16,Au 15,Au 12)      2.4890         0.001513   
    429. D(Au  3,Cr 16,Au 11,Au 10)      3.6290         0.001506   
    430. D(Au  3,Cr 16,Au 11,Au 12)     66.0110         0.001506   
    431. D(Au  1,Cr 16,Au 11,Au 10)    -66.0052         0.001506   
    432. D(Au  7,Cr 16,Au 15,Au 12)    146.4259         0.001513   
    433. D(Au  1,Cr 16,Au 11,Au 12)     -3.6232         0.001506   
    434. D(Au  0,Cr 16,Au 11,Au 10)   -136.0673         0.001506   
    435. D(Au  0,Cr 16,Au 11,Au 12)    -73.6853         0.001506   
    436. D(Au 15,Cr 16,Au  4,Au  5)    -65.4017         0.001513   
    437. D(Au 15,Cr 16,Au  4,Au 10)     -2.4904         0.001513   
    438. D(Au 11,Cr 16,Au  4,Au  5)   -101.8152         0.001513   
    -----------------------------------------------------------------

Number of atoms                         .... 17
Number of degrees of freedom            .... 438

         *************************************************************
         *                GEOMETRY OPTIMIZATION CYCLE   1            *
         *************************************************************
---------------------------------
CARTESIAN COORDINATES (ANGSTROEM)
---------------------------------
  Au     5.858956    5.473061    9.282344
  Au     6.456604    7.967353   10.178667
  Au     7.494247   10.548905   10.194524
  Au     5.782980    9.762044    8.146490
  Au     7.504664    9.286117    5.866731
  Au     8.154795   11.424015    7.553807
  Au     6.972528    6.695672    4.982928
  Au     4.839423    5.524636    6.637098
  Au     4.796455    8.303689    6.077189
  Au     7.667639    4.843893    7.079572
  Au    10.234491    9.708109    6.607781
  Au     9.326426    7.068853    6.513481
  Au    10.913597    7.899003    8.656112
  Au    10.201097   10.580814    9.325215
  Au     9.275486    8.438288   10.934439
  Au     8.630467    6.286826    9.262748
  Cr     6.628850    7.256284    7.573400

----------------------------
CARTESIAN COORDINATES (A.U.)
----------------------------
  NO LB      ZA    FRAG     MASS         X           Y           Z
   0 Au   19.0000*   0   196.966   11.071821   10.342586   17.541088
   1 Au   19.0000*   0   196.966   12.201214   15.056115   19.234893
   2 Au   19.0000*   0   196.966   14.162075   19.934542   19.264858
   3 Au   19.0000*   0   196.966   10.928248   18.447589   15.394635
   4 Au   19.0000*   0   196.966   14.181760   17.548218   11.086515
   5 Au   19.0000*   0   196.966   15.410328   21.588259   14.274627
   6 Au   19.0000*   0   196.966   13.176168   12.652987    9.416370
   7 Au   19.0000*   0   196.966    9.145184   10.440049   12.542298
   8 Au   19.0000*   0   196.966    9.063986   15.691698   11.484223
   9 Au   19.0000*   0   196.966   14.489738    9.153632   13.378453
  10 Au   19.0000*   0   196.966   19.340386   18.345667   12.486897
  11 Au   19.0000*   0   196.966   17.624392   13.358196   12.308696
  12 Au   19.0000*   0   196.966   20.623709   14.926953   16.357681
  13 Au   19.0000*   0   196.966   19.277280   19.994841   17.622103
  14 Au   19.0000*   0   196.966   17.528129   15.946053   20.663095
  15 Au   19.0000*   0   196.966   16.309219   11.880380   17.504057
  16 Cr   24.0000    0    52.000   12.526711   13.712390   14.311651
* core charge reduced due to ECP

--------------------------------
INTERNAL COORDINATES (ANGSTROEM)
--------------------------------
 Au     0   0   0     0.000000000000     0.00000000     0.00000000
 Au     1   0   0     2.716996759503     0.00000000     0.00000000
 Au     2   1   0     2.782331053456   159.34156427     0.00000000
 Au     3   2   1     2.782450215800    60.26767471    55.46805331
 Au     4   3   2     2.896205263263   105.08499973   256.63439074
 Au     5   4   3     2.799911285430    62.50066010   322.78745594
 Au     5   4   3     2.788311270577   106.78121341   125.61056628
 Au     1   2   3     2.835389131411   111.72592856   313.07440263
 Au     4   3   2     2.716990642055   159.34025086   304.54281201
 Au     7   5   4     2.882391907239   108.67929961   297.30876845
 Au     6   5   4     2.857348050700    60.72332789   137.03357800
 Au    11   6   5     2.792695247217   110.00157890   322.48926758
 Au    12  11   6     2.792691409925    60.55227427   259.48820143
 Au     6   5   4     2.834824070880   108.48217699    99.06124116
 Au    14   6   5     2.834920599579   110.10964105   298.12622742
 Au    10   7   5     2.788431512752   108.68301213     0.00000000
 Cr     1   2   3     2.587105392885    61.29373266   343.91228661

---------------------------
INTERNAL COORDINATES (A.U.)
---------------------------
 Au     0   0   0     0.000000000000     0.00000000     0.00000000
 Au     1   0   0     5.134379782213     0.00000000     0.00000000
 Au     2   1   0     5.257843704936   159.34156427     0.00000000
 Au     3   2   1     5.258068889132    60.26767471    55.46805331
 Au     4   3   2     5.473034775188   105.08499973   256.63439074
 Au     5   4   3     5.291065528739    62.50066010   322.78745594
 Au     5   4   3     5.269144677517   106.78121341   125.61056628
 Au     1   2   3     5.358108941464   111.72592856   313.07440263
 Au     4   3   2     5.134368221910   159.34025086   304.54281201
 Au     7   5   4     5.446931315313   108.67929961   297.30876845
 Au     6   5   4     5.399605285116    60.72332789   137.03357800
 Au    11   6   5     5.277429192743   110.00157890   322.48926758
 Au    12  11   6     5.277421941312    60.55227427   259.48820143
 Au     6   5   4     5.357041131811   108.48217699    99.06124116
 Au    14   6   5     5.357223544616   110.10964105   298.12622742
 Au    10   7   5     5.269371902297   108.68301213     0.00000000
 Cr     1   2   3     4.888920672143    61.29373266   343.91228661

---------------------
BASIS SET INFORMATION
---------------------
There are 2 groups of distinct atoms

 Group   1 Type Au  : 8s7p6d1f contracted to 6s4p3d1f pattern {311111/4111/411/1}
 Group   2 Type Cr  : 17s11p7d1f contracted to 6s4p4d1f pattern {842111/6311/4111/1}

Atom   0Au   basis set group =>   1
Atom   1Au   basis set group =>   1
Atom   2Au   basis set group =>   1
Atom   3Au   basis set group =>   1
Atom   4Au   basis set group =>   1
Atom   5Au   basis set group =>   1
Atom   6Au   basis set group =>   1
Atom   7Au   basis set group =>   1
Atom   8Au   basis set group =>   1
Atom   9Au   basis set group =>   1
Atom  10Au   basis set group =>   1
Atom  11Au   basis set group =>   1
Atom  12Au   basis set group =>   1
Atom  13Au   basis set group =>   1
Atom  14Au   basis set group =>   1
Atom  15Au   basis set group =>   1
Atom  16Cr   basis set group =>   2
---------------------------------
AUXILIARY/J BASIS SET INFORMATION
---------------------------------
There are 2 groups of distinct atoms

 Group   1 Type Au  : 11s5p5d3f3g contracted to 8s5p5d2f3g pattern {41111111/11111/11111/21/111}
 Group   2 Type Cr  : 19s5p5d3f3g contracted to 8s5p5d2f3g pattern {121111111/11111/11111/21/111}

Atom   0Au   basis set group =>   1
Atom   1Au   basis set group =>   1
Atom   2Au   basis set group =>   1
Atom   3Au   basis set group =>   1
Atom   4Au   basis set group =>   1
Atom   5Au   basis set group =>   1
Atom   6Au   basis set group =>   1
Atom   7Au   basis set group =>   1
Atom   8Au   basis set group =>   1
Atom   9Au   basis set group =>   1
Atom  10Au   basis set group =>   1
Atom  11Au   basis set group =>   1
Atom  12Au   basis set group =>   1
Atom  13Au   basis set group =>   1
Atom  14Au   basis set group =>   1
Atom  15Au   basis set group =>   1
Atom  16Cr   basis set group =>   2
-------------------------
ECP PARAMETER INFORMATION
-------------------------

 Group 1, Type Au ECP Def2-ECP (replacing 60 core electrons, lmax=3)

Atom   0Au   ECP group =>   1
Atom   1Au   ECP group =>   1
Atom   2Au   ECP group =>   1
Atom   3Au   ECP group =>   1
Atom   4Au   ECP group =>   1
Atom   5Au   ECP group =>   1
Atom   6Au   ECP group =>   1
Atom   7Au   ECP group =>   1
Atom   8Au   ECP group =>   1
Atom   9Au   ECP group =>   1
Atom  10Au   ECP group =>   1
Atom  11Au   ECP group =>   1
Atom  12Au   ECP group =>   1
Atom  13Au   ECP group =>   1
Atom  14Au   ECP group =>   1
Atom  15Au   ECP group =>   1

------------------------------------------------------------------------------
                           ORCA GTO INTEGRAL CALCULATION
                           -- RI-GTO INTEGRALS CHOSEN --
------------------------------------------------------------------------------
------------------------------------------------------------------------------
                   ___                                                        
                  /   \      - P O W E R E D   B Y -                         
                 /     \                                                     
                 |  |  |   _    _      __       _____    __    __             
                 |  |  |  | |  | |    /  \     |  _  \  |  |  /  |          
                  \  \/   | |  | |   /    \    | | | |  |  | /  /          
                 / \  \   | |__| |  /  /\  \   | |_| |  |  |/  /          
                |  |  |   |  __  | /  /__\  \  |    /   |      \           
                |  |  |   | |  | | |   __   |  |    \   |  |\   \          
                \     /   | |  | | |  |  |  |  | |\  \  |  | \   \       
                 \___/    |_|  |_| |__|  |__|  |_| \__\ |__|  \__/        
                                                                              
                      - O R C A' S   B I G   F R I E N D -                    
                                      &                                       
                       - I N T E G R A L  F E E D E R -                       
                                                                              
 v1 FN, 2020, v2 2021                                                         
------------------------------------------------------------------------------


Reading SHARK input file pbe.SHARKINP.tmp ... ok
----------------------
SHARK INTEGRAL PACKAGE
----------------------

Number of atoms                             ...     17
Number of basis functions                   ...    685
Number of shells                            ...    239
Maximum angular momentum                    ...      3
Integral batch strategy                     ... SHARK/LIBINT Hybrid
RI-J (if used) integral strategy            ... SPLIT-RIJ (Revised 2003 algorithm where possible)
Printlevel                                  ...      1
Contraction scheme used                     ... SEGMENTED contraction
Coulomb Range Separation                    ... NOT USED
Exchange Range Separation                   ... NOT USED
Finite Nucleus Model                        ... NOT USED
Auxiliary Coulomb fitting basis             ... AVAILABLE
   # of basis functions in Aux-J            ...   1513
   # of shells in Aux-J                     ...    391
   Maximum angular momentum in Aux-J        ...      4
Auxiliary J/K fitting basis                 ... NOT available
Auxiliary Correlation fitting basis         ... NOT available
Auxiliary 'external' fitting basis          ... NOT available
Integral threshold                          ...     2.500000e-11
Primitive cut-off                           ...     2.500000e-12
Primitive pair pre-selection threshold      ...     2.500000e-12

Calculating pre-screening integrals         ... done (  0.4 sec) Dimension = 239
Organizing shell pair data                  ... done (  0.4 sec)
Shell pair information
Total number of shell pairs                 ...     28680
Shell pairs after pre-screening             ...     22423
Total number of primitive shell pairs       ...     75765
Primitive shell pairs kept                  ...     42562
          la=0 lb=0:   3523 shell pairs
          la=1 lb=0:   5168 shell pairs
          la=1 lb=1:   1911 shell pairs
          la=2 lb=0:   4462 shell pairs
          la=2 lb=1:   3152 shell pairs
          la=2 lb=2:   1298 shell pairs
          la=3 lb=0:   1147 shell pairs
          la=3 lb=1:    873 shell pairs
          la=3 lb=2:    772 shell pairs
          la=3 lb=3:    117 shell pairs

Calculating one electron integrals          ... done (  0.1 sec)
Calculating ECP integrals                   ... done ( 13.0 sec)
Calculating RI/J V-Matrix + Cholesky decomp.... done (  0.1 sec)
Calculating Nuclear repulsion               ... done (  0.0 sec) ENN=   6855.236863466716 Eh

SHARK setup successfully completed in  14.8 seconds

Maximum memory used throughout the entire GTOINT-calculation: 628.8 MB
-------------------------------------------------------------------------------
                                 ORCA SCF
-------------------------------------------------------------------------------

------------
SCF SETTINGS
------------
Hamiltonian:
 Density Functional     Method          .... DFT(GTOs)
 Exchange Functional    Exchange        .... PBE
   PBE kappa parameter   XKappa         ....  0.804000
   PBE mue parameter    XMuePBE         ....  0.219520
 Correlation Functional Correlation     .... PBE
   PBE beta parameter  CBetaPBE         ....  0.066725
 LDA part of GGA corr.  LDAOpt          .... PW91-LDA
 Gradients option       PostSCFGGA      .... off
   Density functional embedding theory  .... OFF
   NL short-range parameter             ....  6.400000
 RI-approximation to the Coulomb term is turned on
   Number of AuxJ basis functions       .... 1513


General Settings:
 Integral files         IntName         .... pbe
 Hartree-Fock type      HFTyp           .... UHF
 Total Charge           Charge          ....    0
 Multiplicity           Mult            ....    3
 Number of Electrons    NEL             ....  328
 Basis Dimension        Dim             ....  685
 Nuclear Repulsion      ENuc            ....   6855.2368634667 Eh

Convergence Acceleration:
 DIIS                   CNVDIIS         .... off
 Trust-Rad. Augm. Hess. CNVTRAH         .... auto
   Auto Start mean grad. ratio tolernc. ....  1.125000
   Auto Start start iteration           ....    20
   Auto Start num. interpolation iter.  ....    10
   Max. Number of Micro iterations      ....    16
   Max. Number of Macro iterations      .... Maxiter - #DIIS iter
   Number of Davidson start vectors     ....     2
   Converg. threshold I  (grad. norm)   ....   1.000e-05
   Converg. threshold II (energy diff.) ....   1.000e-08
   Grad. Scal. Fac. for Micro threshold ....   0.100
   Minimum threshold for Micro iter.    ....   0.010
   NR start threshold (gradient norm)   ....   0.001
   Initial trust radius                 ....   0.400
   Minimum AH scaling param. (alpha)    ....   1.000
   Maximum AH scaling param. (alpha)    .... 1000.000
   Orbital update algorithm             .... Taylor
   White noise on init. David. guess    .... on
   Maximum white noise                  ....   0.010
   Quad. conv. algorithm                .... NR
 SOSCF                  CNVSOSCF        .... off
 Level Shifting         CNVShift        .... off
 Zerner damping         CNVZerner       .... off
 Static damping         CNVDamp         .... off
 Fernandez-Rico         CNVRico         .... off

SCF Procedure:
 Maximum # iterations   MaxIter         ....   125
 SCF integral mode      SCFMode         .... Direct
   Integral package                     .... SHARK and LIBINT hybrid scheme
 Reset frequency        DirectResetFreq ....    20
 Integral Threshold     Thresh          ....  2.500e-11 Eh
 Primitive CutOff       TCut            ....  2.500e-12 Eh

Convergence Tolerance:
 Convergence Check Mode ConvCheckMode   .... Total+1el-Energy
 Convergence forced     ConvForced      .... 0
 Energy Change          TolE            ....  1.000e-08 Eh
 1-El. energy change                    ....  1.000e-05 Eh


Diagonalization of the overlap matrix:
Smallest eigenvalue                        ... 8.589e-05
Time for diagonalization                   ...    0.062 sec
Threshold for overlap eigenvalues          ... 1.000e-08
Number of eigenvalues below threshold      ... 0
Time for construction of square roots      ...    0.032 sec
Total time needed                          ...    0.095 sec

Time for model grid setup =    1.553 sec

------------------------------
INITIAL GUESS: MODEL POTENTIAL
------------------------------
Loading Hartree-Fock densities                     ... done
  calling /media/Programs/ORCA501/orca pbe_atom79.inp > pbe_atom79.out in order to generate an atomic fitting density for atom 0 (Au with ECP) on-the-fly... 
    atom 0 (Au), assumed electronic state with S=2: 1s2 2s2 2p6 3s2 3p6 4s2 3d10 4p6 5s2 4d10 5p6 6s1 4f14 5d10           ... done
Calculating cut-offs                               ... done
Initializing the effective Hamiltonian             ... done
Setting up the integral package (SHARK)            ... done
Starting the Coulomb interaction                   ... done (   3.2 sec)
Reading the grid                                   ... done
Mapping shells                                     ... done
Starting the XC term evaluation                    ... done (   3.7 sec)
  promolecular density results
     # of electrons  =   1288.016307250
     EX              =  -5900.388705720
     EC              =    -78.541096877
     EX+EC           =  -5978.929802596
Transforming the Hamiltonian                       ... done (   0.0 sec)
Diagonalizing the Hamiltonian                      ... done (   0.1 sec)
Back transforming the eigenvectors                 ... done (   0.0 sec)
Now organizing SCF variables                       ... done
                      ------------------
                      INITIAL GUESS DONE (   9.0 sec)
                      ------------------
-------------------
DFT GRID GENERATION
-------------------

General Integration Accuracy     IntAcc      ... 4.388
Radial Grid Type                 RadialGrid  ... OptM3 with GC (2021)
Angular Grid (max. ang.)         AngularGrid ... 4 (Lebedev-302)
Angular grid pruning method      GridPruning ... 4 (adaptive)
Weight generation scheme         WeightScheme... Becke
Basis function cutoff            BFCut       ... 1.0000e-11
Integration weight cutoff        WCut        ... 1.0000e-14
Angular grids for H and He will be reduced by one unit
Partially contracted basis set               ... off
Rotationally invariant grid construction     ... off

Total number of grid points                  ...   187173
Total number of batches                      ...     2933
Average number of points per batch           ...       63
Average number of grid points per atom       ...    11010
Time for grid setup =    3.609 sec

--------------
SCF ITERATIONS
--------------
ITER       Energy         Delta-E        Max-DP      RMS-DP      [F,P]   Gradient Norm
               ***  Starting incremental Fock matrix formation  ***
                             ****Resetting KDIIS****
                             ****Turning on KDIIS(Cayley)****
  0  -3215.0627578202   0.000000000000 0.49329343  0.00220401  0.4257291   0.222782249
  1  -3216.4691804110  -1.406422590727 0.72179607  0.00225654  0.3807485   0.167544757
  2  -3217.0332537995  -0.564073388562 0.09831283  0.00118489  0.3005054   0.125469214
  3  -3217.2937440931  -0.260490293576 0.30034562  0.00168473  0.1750767   0.073130202
  4  -3217.3619166313  -0.068172538169 0.08475365  0.00058723  0.0350711   0.021092744
  5  -3217.4090119877  -0.047095356409 0.19728594  0.00117431  0.0177474   0.007609481
  6  -3217.4245540731  -0.015542085399 0.20657077  0.00062304  0.0334637   0.009487621
  7  -3217.4393371422  -0.014783069159 0.16224396  0.00039200  0.0107654   0.005555019
  8  -3217.4368105200   0.002526622220 0.15407684  0.00034965  0.0103463   0.008266850
  9  -3217.4471064942  -0.010295974146 0.05328010  0.00014219  0.0105440   0.002133530
 10  -3217.4488873606  -0.001780866477 0.09481714  0.00021785  0.0094650   0.002014069
 11  -3217.4520190621  -0.003131701487 0.04592597  0.00009959  0.0080663   0.001703064
 12  -3217.4527962309  -0.000777168769 0.02488001  0.00005433  0.0081906   0.002469745
 13  -3217.4535194501  -0.000723219192 0.14708297  0.00032230  0.0095919   0.001488563
 14  -3217.4579407638  -0.004421313696 0.03495291  0.00006468  0.0077585   0.001255252
 15  -3217.4579507348  -0.000009971067 0.15191965  0.00026963  0.0067121   0.001422057
 16  -3217.4611121635  -0.003161428631 0.03322019  0.00010336  0.0085810   0.001196305
 17  -3217.4624152980  -0.001303134562 0.20237940  0.00037001  0.0077333   0.001108941
 18  -3217.4663030819  -0.003887783911 0.07542114  0.00012506  0.0084830   0.001088428
 19  -3217.4669917249  -0.000688642964 0.15290602  0.00028838  0.0090248   0.002056865
               *** Restarting incremental Fock matrix formation ***
                             ****Resetting KDIIS****

 WARNING: the maximum gradient error descreased on average only by a factor   1.0
          during the last 20 iterations

                      *** Initiating the TRAH-SCF procedure ***

                    *** KDIIS BlockDiag ( 0.142 sec) ***

TRAH GRID
---------

General Integration Accuracy     IntAcc      ... 3.467
Radial Grid Type                 RadialGrid  ... OptM3 with GC (2021)
Angular Grid (max. ang.)         AngularGrid ... 1 (Lebedev-50)
Angular grid pruning method      GridPruning ... 4 (adaptive)
Weight generation scheme         WeightScheme... Becke
Basis function cutoff            BFCut       ... 1.0000e-11
Integration weight cutoff        WCut        ... 1.0000e-14
Angular grids for H and He will be reduced by one unit
Partially contracted basis set               ... off
Rotationally invariant grid construction     ... off

Total number of grid points                  ...    80631
Total number of batches                      ...     1268
Average number of points per batch           ...       63
Average number of grid points per atom       ...     4743

 --------------------------------------------------------------------------------------------
   Iter.        energy            ||Error||_2        Shift      TRadius  Mac/Mic        Rej.
 --------------------------------------------------------------------------------------------
    0      -3217.469888549760     2.543069e-02                     0.400 (TRAH MAcro)   No
WARNING : small    HOMO - LUMO gap : (op = alpha) 0.012217
WARNING : small    HOMO - LUMO gap : (op =  beta) 0.009578
    0     dE    -1.347543e-04     5.327521e-02    -1.3475e-04      0.005 (TRAH MIcro)
    0     dE    -6.528690e-03     4.045160e-02    -8.5461e-03      0.400 (TRAH MIcro)
    0     dE    -7.209906e-03     3.035372e-02    -1.2609e-02      0.400 (TRAH MIcro)
    0     dE    -7.435894e-03     2.305133e-02    -1.4148e-02      0.400 (TRAH MIcro)
    0     dE    -7.871044e-03     2.160033e-02    -1.5743e-02      0.400 (TRAH MIcro)
    0     dE    -8.016668e-03     6.876777e-03    -1.6130e-02      0.400 (TRAH MIcro)
    0     dE    -8.042433e-03     3.085825e-03    -1.6218e-02      0.400 (TRAH MIcro)
    0     dE    -8.038417e-03     1.688733e-03    -1.6308e-02      0.399 (TRAH MIcro)
    1      -3217.476360870222     2.788602e-02                     0.480 (TRAH MAcro)   No
WARNING : small    HOMO - LUMO gap : (op = alpha) 0.011399
WARNING : small    HOMO - LUMO gap : (op =  beta) 0.014534
    1     dE    -1.858775e-04     1.689035e-02    -1.8587e-04      0.007 (TRAH MIcro)
    1     dE    -3.104739e-04     6.229380e-03    -3.1032e-04      0.023 (TRAH MIcro)
    1     dE    -5.037126e-04     7.465528e-03    -4.9949e-04      0.092 (TRAH MIcro)
    1     dE    -5.390410e-04     3.771416e-03    -5.3286e-04      0.108 (TRAH MIcro)
    1     dE    -5.471857e-04     2.194676e-03    -5.4049e-04      0.111 (TRAH MIcro)
    2      -3217.476892859087     2.681202e-03                     0.576 (TRAH MAcro)   No
WARNING : small    HOMO - LUMO gap : (op = alpha) 0.016386
WARNING : small    HOMO - LUMO gap : (op =  beta) 0.013696
    2     dE    -1.638958e-06     5.908141e-03    -1.6390e-06      0.001 (TRAH MIcro)
    2     dE    -7.613587e-06     2.528894e-03    -7.6132e-06      0.007 (TRAH MIcro)
    2     dE    -1.032656e-05     1.867133e-03    -1.0325e-05      0.011 (TRAH MIcro)
    2     dE    -1.196396e-05     1.055774e-03    -1.1962e-05      0.013 (TRAH MIcro)
    2     dE    -1.237387e-05     4.085123e-04    -1.2371e-05      0.014 (TRAH MIcro)
    2     dE    -1.251827e-05     2.597743e-04    -1.2516e-05      0.014 (TRAH MIcro)
    3      -3217.476905409434     2.600442e-04                           (NR   MAcro)
WARNING : small    HOMO - LUMO gap : (op = alpha) 0.016160
WARNING : small    HOMO - LUMO gap : (op =  beta) 0.013693
    3     dE    -1.774853e-08     2.063872e-04                           (NR   MIcro)
    3     dE    -2.942262e-08     1.259878e-04                           (NR   MIcro)
    3     dE    -4.256646e-08     9.385399e-05                           (NR   MIcro)
    3     dE    -4.835720e-08     5.284726e-05                           (NR   MIcro)
    3     dE    -4.961538e-08     3.404542e-05                           (NR   MIcro)
    3     dE    -5.000637e-08     1.862016e-05                           (NR   MIcro)
    3     dE    -5.011435e-08     1.100323e-05                           (NR   MIcro)
    3     dE    -5.016340e-08     4.281459e-06                           (NR   MIcro)
    3     dE    -5.017152e-08     1.906816e-06                           (NR   MIcro)
    3     dE    -5.017313e-08     6.945962e-07                           (NR   MIcro)
    4      -3217.476905459616     7.051168e-07                           (NR   MAcro)
WARNING : small    HOMO - LUMO gap : (op = alpha) 0.016151
WARNING : small    HOMO - LUMO gap : (op =  beta) 0.013699
    4     dE    -2.185156e-13     5.644829e-07                           (NR   MIcro)
    5      -3217.476905459612     5.645036e-07                           (NR   MAcro)
WARNING : small    HOMO - LUMO gap : (op = alpha) 0.016151
WARNING : small    HOMO - LUMO gap : (op =  beta) 0.013699

               *****************************************************
               *                     SUCCESS                       *
               *           SCF CONVERGED AFTER  56 CYCLES          *
               *****************************************************


----------------
TOTAL SCF ENERGY
----------------

Total Energy       :        -3217.47690546 Eh          -87551.99766 eV

Components:
Nuclear Repulsion  :         6855.23686347 Eh          186540.47859 eV
Electronic Energy  :       -10072.71376893 Eh         -274092.47624 eV
One Electron Energy:       -18952.42132431 Eh         -515721.60301 eV
Two Electron Energy:         8879.70755538 Eh          241629.12677 eV

Virial components:
Potential Energy   :        -4992.76590957 Eh         -135860.06739 eV
Kinetic Energy     :         1775.28900411 Eh           48308.06974 eV
Virial Ratio       :            2.81236796


DFT components:
N(Alpha)           :      165.000099013577 electrons
N(Beta)            :      163.000101103475 electrons
N(Total)           :      328.000200117052 electrons
E(X)               :     -240.249950849606 Eh       
E(C)               :      -14.299198870154 Eh       
E(XC)              :     -254.549149719760 Eh       
DFET-embed. en.    :        0.000000000000 Eh       

---------------
SCF CONVERGENCE
---------------

  Last Energy change         ...    4.0927e-12  Tolerance :   1.0000e-08
  Last Orbital Gradient      ...    5.6450e-07  Tolerance :   1.0000e-05
  Last Orbital Rotation      ...    9.9306e-07

             **** THE GBW FILE WAS UPDATED (pbe.gbw) ****
             **** DENSITY pbe.scfp WAS UPDATED ****
             **** ENERGY FILE WAS UPDATED (pbe.en.tmp) ****
----------------------
UHF SPIN CONTAMINATION
----------------------

Warning: in a DFT calculation there is little theoretical justification to 
         calculate <S**2> as in Hartree-Fock theory. We will do it anyways
         but you should keep in mind that the values have only limited relevance

Expectation value of <S**2>     :     3.527053
Ideal value S*(S+1) for S=1.0   :     2.000000
Deviation                       :     1.527053

             **** THE GBW FILE WAS UPDATED (pbe.gbw) ****
             **** DENSITY pbe.scfp WAS UPDATED ****
----------------
ORBITAL ENERGIES
----------------
                 SPIN UP ORBITALS
  NO   OCC          E(Eh)            E(eV) 
   0   1.0000    -214.502182     -5836.9011 
   1   1.0000     -24.304442      -661.3575 
   2   1.0000     -20.670675      -562.4777 
   3   1.0000     -20.668864      -562.4284 
   4   1.0000     -20.663906      -562.2935 
   5   1.0000      -4.036011      -109.8254 
   6   1.0000      -4.035971      -109.8244 
   7   1.0000      -4.035876      -109.8218 
   8   1.0000      -4.035837      -109.8207 
   9   1.0000      -4.034259      -109.7778 
  10   1.0000      -4.033412      -109.7547 
  11   1.0000      -4.033295      -109.7515 
  12   1.0000      -4.032874      -109.7401 
  13   1.0000      -4.032868      -109.7399 
  14   1.0000      -4.022382      -109.4546 
  15   1.0000      -4.021259      -109.4240 
  16   1.0000      -4.017978      -109.3347 
  17   1.0000      -4.017870      -109.3318 
  18   1.0000      -4.015952      -109.2796 
  19   1.0000      -4.015951      -109.2796 
  20   1.0000      -4.010684      -109.1362 
  21   1.0000      -2.806289       -76.3630 
  22   1.0000      -2.253649       -61.3249 
  23   1.0000      -2.253372       -61.3174 
  24   1.0000      -2.252270       -61.2874 
  25   1.0000      -2.251862       -61.2763 
  26   1.0000      -2.251579       -61.2686 
  27   1.0000      -2.250866       -61.2492 
  28   1.0000      -2.250429       -61.2373 
  29   1.0000      -2.249365       -61.2083 
  30   1.0000      -2.249279       -61.2060 
  31   1.0000      -2.248139       -61.1750 
  32   1.0000      -2.248056       -61.1727 
  33   1.0000      -2.247511       -61.1579 
  34   1.0000      -2.247204       -61.1495 
  35   1.0000      -2.247199       -61.1494 
  36   1.0000      -2.246837       -61.1395 
  37   1.0000      -2.246770       -61.1377 
  38   1.0000      -2.246607       -61.1333 
  39   1.0000      -2.245986       -61.1164 
  40   1.0000      -2.245258       -61.0966 
  41   1.0000      -2.245163       -61.0940 
  42   1.0000      -2.244598       -61.0786 
  43   1.0000      -2.244226       -61.0685 
  44   1.0000      -2.243967       -61.0614 
  45   1.0000      -2.242173       -61.0126 
  46   1.0000      -2.241663       -60.9987 
  47   1.0000      -2.241534       -60.9952 
  48   1.0000      -2.241419       -60.9921 
  49   1.0000      -2.238368       -60.9091 
  50   1.0000      -2.236199       -60.8501 
  51   1.0000      -2.236084       -60.8469 
  52   1.0000      -2.234593       -60.8064 
  53   1.0000      -2.234045       -60.7914 
  54   1.0000      -2.232828       -60.7583 
  55   1.0000      -2.232229       -60.7420 
  56   1.0000      -2.232112       -60.7389 
  57   1.0000      -2.231448       -60.7208 
  58   1.0000      -2.231395       -60.7193 
  59   1.0000      -2.230577       -60.6971 
  60   1.0000      -2.230098       -60.6841 
  61   1.0000      -2.229638       -60.6715 
  62   1.0000      -2.229634       -60.6714 
  63   1.0000      -2.228258       -60.6340 
  64   1.0000      -2.227537       -60.6144 
  65   1.0000      -2.226439       -60.5845 
  66   1.0000      -2.226314       -60.5811 
  67   1.0000      -2.224921       -60.5432 
  68   1.0000      -2.224810       -60.5402 
  69   1.0000      -2.218830       -60.3774 
  70   1.0000      -1.800190       -48.9857 
  71   1.0000      -1.797017       -48.8993 
  72   1.0000      -1.790689       -48.7271 
  73   1.0000      -0.431005       -11.7282 
  74   1.0000      -0.390990       -10.6394 
  75   1.0000      -0.388522       -10.5722 
  76   1.0000      -0.385342       -10.4857 
  77   1.0000      -0.376667       -10.2496 
  78   1.0000      -0.375573       -10.2199 
  79   1.0000      -0.369514       -10.0550 
  80   1.0000      -0.365077        -9.9342 
  81   1.0000      -0.361441        -9.8353 
  82   1.0000      -0.358708        -9.7609 
  83   1.0000      -0.358485        -9.7549 
  84   1.0000      -0.355158        -9.6644 
  85   1.0000      -0.352706        -9.5976 
  86   1.0000      -0.351254        -9.5581 
  87   1.0000      -0.349013        -9.4971 
  88   1.0000      -0.347412        -9.4536 
  89   1.0000      -0.346141        -9.4190 
  90   1.0000      -0.342174        -9.3110 
  91   1.0000      -0.342058        -9.3079 
  92   1.0000      -0.341291        -9.2870 
  93   1.0000      -0.336456        -9.1554 
  94   1.0000      -0.336215        -9.1489 
  95   1.0000      -0.334698        -9.1076 
  96   1.0000      -0.333884        -9.0854 
  97   1.0000      -0.332139        -9.0380 
  98   1.0000      -0.331838        -9.0298 
  99   1.0000      -0.330150        -8.9838 
 100   1.0000      -0.329616        -8.9693 
 101   1.0000      -0.328391        -8.9360 
 102   1.0000      -0.325831        -8.8663 
 103   1.0000      -0.322577        -8.7778 
 104   1.0000      -0.321053        -8.7363 
 105   1.0000      -0.319613        -8.6971 
 106   1.0000      -0.318317        -8.6618 
 107   1.0000      -0.314216        -8.5502 
 108   1.0000      -0.311185        -8.4678 
 109   1.0000      -0.308951        -8.4070 
 110   1.0000      -0.306969        -8.3530 
 111   1.0000      -0.305383        -8.3099 
 112   1.0000      -0.305009        -8.2997 
 113   1.0000      -0.302932        -8.2432 
 114   1.0000      -0.299418        -8.1476 
 115   1.0000      -0.299150        -8.1403 
 116   1.0000      -0.294106        -8.0030 
 117   1.0000      -0.293857        -7.9963 
 118   1.0000      -0.289075        -7.8661 
 119   1.0000      -0.285413        -7.7665 
 120   1.0000      -0.284430        -7.7397 
 121   1.0000      -0.284081        -7.7302 
 122   1.0000      -0.281723        -7.6661 
 123   1.0000      -0.281382        -7.6568 
 124   1.0000      -0.279708        -7.6113 
 125   1.0000      -0.279377        -7.6022 
 126   1.0000      -0.277680        -7.5561 
 127   1.0000      -0.276358        -7.5201 
 128   1.0000      -0.275524        -7.4974 
 129   1.0000      -0.270897        -7.3715 
 130   1.0000      -0.270330        -7.3560 
 131   1.0000      -0.269897        -7.3443 
 132   1.0000      -0.269621        -7.3367 
 133   1.0000      -0.267278        -7.2730 
 134   1.0000      -0.266309        -7.2466 
 135   1.0000      -0.264543        -7.1986 
 136   1.0000      -0.262642        -7.1469 
 137   1.0000      -0.260245        -7.0816 
 138   1.0000      -0.259020        -7.0483 
 139   1.0000      -0.258629        -7.0376 
 140   1.0000      -0.257900        -7.0178 
 141   1.0000      -0.256858        -6.9895 
 142   1.0000      -0.256545        -6.9809 
 143   1.0000      -0.255688        -6.9576 
 144   1.0000      -0.253517        -6.8985 
 145   1.0000      -0.251694        -6.8489 
 146   1.0000      -0.250731        -6.8227 
 147   1.0000      -0.250307        -6.8112 
 148   1.0000      -0.247783        -6.7425 
 149   1.0000      -0.247233        -6.7275 
 150   1.0000      -0.243947        -6.6381 
 151   1.0000      -0.241683        -6.5765 
 152   1.0000      -0.240189        -6.5359 
 153   1.0000      -0.239702        -6.5226 
 154   1.0000      -0.238828        -6.4988 
 155   1.0000      -0.236904        -6.4465 
 156   1.0000      -0.233716        -6.3597 
 157   1.0000      -0.225605        -6.1390 
 158   1.0000      -0.222788        -6.0624 
 159   1.0000      -0.221429        -6.0254 
 160   1.0000      -0.216937        -5.9032 
 161   1.0000      -0.214800        -5.8450 
 162   1.0000      -0.204501        -5.5648 
 163   1.0000      -0.202983        -5.5234 
 164   1.0000      -0.200708        -5.4615 
 165   0.0000      -0.184556        -5.0220 
 166   0.0000      -0.182538        -4.9671 
 167   0.0000      -0.160133        -4.3574 
 168   0.0000      -0.145233        -3.9520 
 169   0.0000      -0.139069        -3.7842 
 170   0.0000      -0.138002        -3.7552 
 171   0.0000      -0.133797        -3.6408 
 172   0.0000      -0.118805        -3.2328 
 173   0.0000      -0.102162        -2.7800 
 174   0.0000      -0.088461        -2.4071 
 175   0.0000      -0.078795        -2.1441 
 176   0.0000      -0.062919        -1.7121 
 177   0.0000      -0.061647        -1.6775 
 178   0.0000      -0.055078        -1.4987 
 179   0.0000      -0.044479        -1.2103 
 180   0.0000      -0.040580        -1.1042 
 181   0.0000      -0.040358        -1.0982 
 182   0.0000      -0.033056        -0.8995 
 183   0.0000      -0.028891        -0.7862 
 184   0.0000      -0.025882        -0.7043 
 185   0.0000      -0.017342        -0.4719 
 186   0.0000      -0.014451        -0.3932 
 187   0.0000      -0.005608        -0.1526 
 188   0.0000       0.005051         0.1374 
 189   0.0000       0.008597         0.2339 
 190   0.0000       0.030067         0.8182 
 191   0.0000       0.034516         0.9392 
 192   0.0000       0.042492         1.1563 
 193   0.0000       0.044604         1.2137 
 194   0.0000       0.050439         1.3725 
 195   0.0000       0.053438         1.4541 
 196   0.0000       0.055914         1.5215 
 197   0.0000       0.059077         1.6076 
 198   0.0000       0.059195         1.6108 
 199   0.0000       0.062932         1.7125 
 200   0.0000       0.071208         1.9377 
 201   0.0000       0.071782         1.9533 
 202   0.0000       0.075073         2.0428 
 203   0.0000       0.076868         2.0917 
 204   0.0000       0.079369         2.1598 
 205   0.0000       0.081253         2.2110 
 206   0.0000       0.082719         2.2509 
 207   0.0000       0.086305         2.3485 
 208   0.0000       0.095376         2.5953 
 209   0.0000       0.095894         2.6094 
 210   0.0000       0.098338         2.6759 
 211   0.0000       0.098690         2.6855 
 212   0.0000       0.107659         2.9296 
 213   0.0000       0.114343         3.1114 
 214   0.0000       0.118574         3.2266 
 215   0.0000       0.122621         3.3367 
 216   0.0000       0.126641         3.4461 
 217   0.0000       0.129980         3.5369 
 218   0.0000       0.136824         3.7232 
 219   0.0000       0.137140         3.7318 
[...]
 300( 0) :     0.474720 a.u.    12.918 eV
 301( 0) :     0.476528 a.u.    12.967 eV
 302( 0) :     0.480375 a.u.    13.072 eV
 303( 0) :     0.481794 a.u.    13.110 eV
 304( 0) :     0.488343 a.u.    13.288 eV
 305( 0) :     0.490147 a.u.    13.338 eV
 306( 0) :     0.493323 a.u.    13.424 eV
 307( 0) :     0.494930 a.u.    13.468 eV
 308( 0) :     0.496343 a.u.    13.506 eV
 309( 0) :     0.497826 a.u.    13.547 eV
 310( 0) :     0.501408 a.u.    13.644 eV
 311( 0) :     0.505098 a.u.    13.744 eV
 312( 0) :     0.508368 a.u.    13.833 eV
 313( 0) :     0.510315 a.u.    13.886 eV
 314( 0) :     0.511920 a.u.    13.930 eV
 315( 0) :     0.515483 a.u.    14.027 eV
 316( 0) :     0.518968 a.u.    14.122 eV
 317( 0) :     0.520404 a.u.    14.161 eV
 318( 0) :     0.523437 a.u.    14.243 eV
 319( 0) :     0.529061 a.u.    14.396 eV
 320( 0) :     0.533604 a.u.    14.520 eV
 321( 0) :     0.536454 a.u.    14.598 eV
 322( 0) :     0.540331 a.u.    14.703 eV
 323( 0) :     0.552165 a.u.    15.025 eV
 324( 0) :     0.553690 a.u.    15.067 eV
 325( 0) :     0.559338 a.u.    15.220 eV
 326( 0) :     0.565896 a.u.    15.399 eV
 327( 0) :     0.565976 a.u.    15.401 eV
 328( 0) :     0.583717 a.u.    15.884 eV
 329( 0) :     0.593110 a.u.    16.139 eV
 330( 0) :     0.600447 a.u.    16.339 eV
 331( 0) :     0.615114 a.u.    16.738 eV
 332( 0) :     0.623634 a.u.    16.970 eV
 333( 0) :     0.663708 a.u.    18.060 eV
 334( 0) :     0.672264 a.u.    18.293 eV
 335( 0) :     0.681637 a.u.    18.548 eV
 336( 0) :     0.690741 a.u.    18.796 eV
 337( 0) :     0.693379 a.u.    18.868 eV
 338( 0) :     0.701251 a.u.    19.082 eV
 339( 0) :     0.716818 a.u.    19.506 eV
 340( 0) :     0.719376 a.u.    19.575 eV
 341( 0) :     0.724028 a.u.    19.702 eV
 342( 0) :     0.730033 a.u.    19.865 eV
 343( 0) :     0.736657 a.u.    20.045 eV
 344( 0) :     0.739151 a.u.    20.113 eV
 345( 0) :     0.744197 a.u.    20.251 eV
 346( 0) :     0.750890 a.u.    20.433 eV
 347( 0) :     0.762690 a.u.    20.754 eV
 348( 0) :     0.766317 a.u.    20.853 eV
 349( 0) :     0.767235 a.u.    20.878 eV
 350( 0) :     0.781013 a.u.    21.252 eV
 351( 0) :     0.785325 a.u.    21.370 eV
 352( 0) :     0.802736 a.u.    21.844 eV
 353( 0) :     0.811349 a.u.    22.078 eV
 354( 0) :     0.845817 a.u.    23.016 eV
 355( 0) :     0.847550 a.u.    23.063 eV
 356( 0) :     0.864288 a.u.    23.518 eV
 357( 0) :     0.875022 a.u.    23.811 eV
 358( 0) :     0.878303 a.u.    23.900 eV
 359( 0) :     0.884355 a.u.    24.065 eV
 360( 0) :     0.893109 a.u.    24.303 eV
 361( 0) :     0.902366 a.u.    24.555 eV
 362( 0) :     0.906421 a.u.    24.665 eV
 363( 0) :     0.914843 a.u.    24.894 eV
 364( 0) :     0.923536 a.u.    25.131 eV
 365( 0) :     0.934706 a.u.    25.435 eV
 366( 0) :     0.942338 a.u.    25.642 eV
 367( 0) :     0.949204 a.u.    25.829 eV
 368( 0) :     0.952268 a.u.    25.913 eV
 369( 0) :     0.959910 a.u.    26.120 eV
 370( 0) :     0.972331 a.u.    26.458 eV
 371( 0) :     0.986608 a.u.    26.847 eV
 372( 0) :     0.995880 a.u.    27.099 eV
 373( 0) :     1.004060 a.u.    27.322 eV
 374( 0) :     1.022839 a.u.    27.833 eV
 375( 0) :     1.032599 a.u.    28.098 eV
 376( 0) :     1.051745 a.u.    28.619 eV
 377( 0) :     1.076414 a.u.    29.291 eV
 378( 0) :     1.086341 a.u.    29.561 eV
 379( 0) :     1.115084 a.u.    30.343 eV
 380( 0) :     1.177824 a.u.    32.050 eV
 381( 0) :     1.203035 a.u.    32.736 eV
 382( 0) :     1.206513 a.u.    32.831 eV
 383( 0) :     1.233930 a.u.    33.577 eV
 384( 0) :     1.236903 a.u.    33.658 eV
 385( 0) :     1.256151 a.u.    34.182 eV
 386( 0) :     1.259136 a.u.    34.263 eV
 387( 0) :     1.267458 a.u.    34.489 eV
 388( 0) :     1.278745 a.u.    34.796 eV
 389( 0) :     1.281225 a.u.    34.864 eV
 390( 0) :     1.283308 a.u.    34.921 eV
 391( 0) :     1.285775 a.u.    34.988 eV
 392( 0) :     1.291786 a.u.    35.151 eV
 393( 0) :     1.313979 a.u.    35.755 eV
 394( 0) :     1.316347 a.u.    35.820 eV
 395( 0) :     1.316589 a.u.    35.826 eV
 396( 0) :     1.321391 a.u.    35.957 eV
 397( 0) :     1.328153 a.u.    36.141 eV
 398( 0) :     1.329658 a.u.    36.182 eV
 399( 0) :     1.337679 a.u.    36.400 eV
 400( 0) :     1.347485 a.u.    36.667 eV
 401( 0) :     1.349523 a.u.    36.722 eV
 402( 0) :     1.353302 a.u.    36.825 eV
 403( 0) :     1.358968 a.u.    36.979 eV
 404( 0) :     1.369243 a.u.    37.259 eV
 405( 0) :     1.369943 a.u.    37.278 eV
 406( 0) :     1.374096 a.u.    37.391 eV
 407( 0) :     1.380690 a.u.    37.570 eV
 408( 0) :     1.383275 a.u.    37.641 eV
 409( 0) :     1.385146 a.u.    37.692 eV
 410( 0) :     1.391391 a.u.    37.862 eV
 411( 0) :     1.396558 a.u.    38.002 eV
 412( 0) :     1.401121 a.u.    38.126 eV
 413( 0) :     1.404793 a.u.    38.226 eV
 414( 0) :     1.405156 a.u.    38.236 eV
 415( 0) :     1.409734 a.u.    38.361 eV
 416( 0) :     1.412689 a.u.    38.441 eV
 417( 0) :     1.418228 a.u.    38.592 eV
 418( 0) :     1.423780 a.u.    38.743 eV
 419( 0) :     1.424119 a.u.    38.752 eV
 420( 0) :     1.432193 a.u.    38.972 eV
 421( 0) :     1.433098 a.u.    38.997 eV
 422( 0) :     1.434849 a.u.    39.044 eV
 423( 0) :     1.435341 a.u.    39.058 eV
 424( 0) :     1.441024 a.u.    39.212 eV
 425( 0) :     1.443108 a.u.    39.269 eV
 426( 0) :     1.444942 a.u.    39.319 eV
 427( 0) :     1.445757 a.u.    39.341 eV
 428( 0) :     1.453161 a.u.    39.543 eV
 429( 0) :     1.453235 a.u.    39.545 eV
 430( 0) :     1.457293 a.u.    39.655 eV
 431( 0) :     1.458907 a.u.    39.699 eV
 432( 0) :     1.460890 a.u.    39.753 eV
 433( 0) :     1.462243 a.u.    39.790 eV
 434( 0) :     1.464105 a.u.    39.840 eV
 435( 0) :     1.466296 a.u.    39.900 eV
 436( 0) :     1.471425 a.u.    40.039 eV
 437( 0) :     1.472734 a.u.    40.075 eV
 438( 0) :     1.475221 a.u.    40.143 eV
 439( 0) :     1.478165 a.u.    40.223 eV
 440( 0) :     1.479483 a.u.    40.259 eV
 441( 0) :     1.480734 a.u.    40.293 eV
 442( 0) :     1.480917 a.u.    40.298 eV
 443( 0) :     1.482612 a.u.    40.344 eV
 444( 0) :     1.483449 a.u.    40.367 eV
 445( 0) :     1.486184 a.u.    40.441 eV
 446( 0) :     1.490086 a.u.    40.547 eV
 447( 0) :     1.490350 a.u.    40.554 eV
 448( 0) :     1.492846 a.u.    40.622 eV
 449( 0) :     1.494886 a.u.    40.678 eV
 450( 0) :     1.495626 a.u.    40.698 eV
 451( 0) :     1.496666 a.u.    40.726 eV
 452( 0) :     1.498142 a.u.    40.767 eV
 453( 0) :     1.499435 a.u.    40.802 eV
 454( 0) :     1.500143 a.u.    40.821 eV
 455( 0) :     1.501634 a.u.    40.862 eV
 456( 0) :     1.503694 a.u.    40.918 eV
 457( 0) :     1.506282 a.u.    40.988 eV
 458( 0) :     1.507019 a.u.    41.008 eV
 459( 0) :     1.509392 a.u.    41.073 eV
 460( 0) :     1.509738 a.u.    41.082 eV
 461( 0) :     1.511979 a.u.    41.143 eV
 462( 0) :     1.513330 a.u.    41.180 eV
 463( 0) :     1.513995 a.u.    41.198 eV
 464( 0) :     1.515220 a.u.    41.231 eV
 465( 0) :     1.516465 a.u.    41.265 eV
 466( 0) :     1.516629 a.u.    41.270 eV
 467( 0) :     1.518360 a.u.    41.317 eV
 468( 0) :     1.519640 a.u.    41.352 eV
 469( 0) :     1.521347 a.u.    41.398 eV
 470( 0) :     1.522785 a.u.    41.437 eV
 471( 0) :     1.523270 a.u.    41.450 eV
 472( 0) :     1.527082 a.u.    41.554 eV
 473( 0) :     1.528837 a.u.    41.602 eV
 474( 0) :     1.529180 a.u.    41.611 eV
 475( 0) :     1.529432 a.u.    41.618 eV
 476( 0) :     1.533141 a.u.    41.719 eV
 477( 0) :     1.533881 a.u.    41.739 eV
 478( 0) :     1.536846 a.u.    41.820 eV
 479( 0) :     1.537776 a.u.    41.845 eV
 480( 0) :     1.540830 a.u.    41.928 eV
 481( 0) :     1.542744 a.u.    41.980 eV
 482( 0) :     1.544541 a.u.    42.029 eV
 483( 0) :     1.548031 a.u.    42.124 eV
 484( 0) :     1.549048 a.u.    42.152 eV
 485( 0) :     1.552225 a.u.    42.238 eV
 486( 0) :     1.553606 a.u.    42.276 eV
 487( 0) :     1.558454 a.u.    42.408 eV
 488( 0) :     1.558606 a.u.    42.412 eV
 489( 0) :     1.559840 a.u.    42.445 eV
 490( 0) :     1.564990 a.u.    42.586 eV
 491( 0) :     1.565440 a.u.    42.598 eV
 492( 0) :     1.566566 a.u.    42.628 eV
 493( 0) :     1.572069 a.u.    42.778 eV
 494( 0) :     1.572565 a.u.    42.792 eV
 495( 0) :     1.574525 a.u.    42.845 eV
 496( 0) :     1.577314 a.u.    42.921 eV
 497( 0) :     1.579105 a.u.    42.970 eV
 498( 0) :     1.580488 a.u.    43.007 eV
 499( 0) :     1.580720 a.u.    43.014 eV
 500( 0) :     1.583948 a.u.    43.101 eV
 501( 0) :     1.585701 a.u.    43.149 eV
 502( 0) :     1.586771 a.u.    43.178 eV
 503( 0) :     1.589134 a.u.    43.243 eV
 504( 0) :     1.590462 a.u.    43.279 eV
 505( 0) :     1.591921 a.u.    43.318 eV
 506( 0) :     1.594768 a.u.    43.396 eV
 507( 0) :     1.596057 a.u.    43.431 eV
 508( 0) :     1.600200 a.u.    43.544 eV
 509( 0) :     1.603730 a.u.    43.640 eV
 510( 0) :     1.604153 a.u.    43.651 eV
 511( 0) :     1.606569 a.u.    43.717 eV
 512( 0) :     1.611080 a.u.    43.840 eV
 513( 0) :     1.611477 a.u.    43.851 eV
 514( 0) :     1.612572 a.u.    43.880 eV
 515( 0) :     1.617778 a.u.    44.022 eV
 516( 0) :     1.620775 a.u.    44.104 eV
 517( 0) :     1.621961 a.u.    44.136 eV
 518( 0) :     1.623468 a.u.    44.177 eV
 519( 0) :     1.627568 a.u.    44.288 eV
 520( 0) :     1.633673 a.u.    44.455 eV
 521( 0) :     1.634259 a.u.    44.470 eV
 522( 0) :     1.638334 a.u.    44.581 eV
 523( 0) :     1.640241 a.u.    44.633 eV
 524( 0) :     1.641017 a.u.    44.654 eV
 525( 0) :     1.644479 a.u.    44.749 eV
 526( 0) :     1.644958 a.u.    44.762 eV
 527( 0) :     1.650774 a.u.    44.920 eV
 528( 0) :     1.661743 a.u.    45.218 eV
 529( 0) :     1.663562 a.u.    45.268 eV
 530( 0) :     1.670379 a.u.    45.453 eV
 531( 0) :     1.675739 a.u.    45.599 eV
 532( 0) :     1.684591 a.u.    45.840 eV
 533( 0) :     1.684741 a.u.    45.844 eV
 534( 0) :     1.695410 a.u.    46.134 eV
 535( 0) :     1.704789 a.u.    46.390 eV
 536( 0) :     1.710222 a.u.    46.537 eV
 537( 0) :     1.711381 a.u.    46.569 eV
 538( 0) :     1.719037 a.u.    46.777 eV
 539( 0) :     1.722914 a.u.    46.883 eV
 540( 0) :     1.723656 a.u.    46.903 eV
 541( 0) :     1.727315 a.u.    47.003 eV
 542( 0) :     1.737860 a.u.    47.290 eV
 543( 0) :     1.745808 a.u.    47.506 eV
 544( 0) :     1.755222 a.u.    47.762 eV
 545( 0) :     1.755851 a.u.    47.779 eV
 546( 0) :     1.758339 a.u.    47.847 eV
 547( 0) :     1.762221 a.u.    47.952 eV
 548( 0) :     1.763052 a.u.    47.975 eV
 549( 0) :     1.770034 a.u.    48.165 eV
 550( 0) :     1.774619 a.u.    48.290 eV
 551( 0) :     1.779384 a.u.    48.419 eV
 552( 0) :     1.783139 a.u.    48.522 eV
 553( 0) :     1.788971 a.u.    48.680 eV
 554( 0) :     1.789408 a.u.    48.692 eV
 555( 0) :     1.792860 a.u.    48.786 eV
 556( 0) :     1.798650 a.u.    48.944 eV
 557( 0) :     1.807781 a.u.    49.192 eV
 558( 0) :     1.816973 a.u.    49.442 eV
 559( 0) :     1.823450 a.u.    49.619 eV
 560( 0) :     1.827297 a.u.    49.723 eV
 561( 0) :     1.828837 a.u.    49.765 eV
 562( 0) :     1.834496 a.u.    49.919 eV
 563( 0) :     1.846287 a.u.    50.240 eV
 564( 0) :     1.847979 a.u.    50.286 eV
 565( 0) :     1.866197 a.u.    50.782 eV
 566( 0) :     1.870167 a.u.    50.890 eV
 567( 0) :     1.885541 a.u.    51.308 eV
 568( 0) :     1.886367 a.u.    51.331 eV
 569( 0) :     1.903713 a.u.    51.803 eV
 570( 0) :     1.913920 a.u.    52.080 eV
 571( 0) :     1.924495 a.u.    52.368 eV
 572( 0) :     1.928453 a.u.    52.476 eV
 573( 0) :     1.982634 a.u.    53.950 eV
 574( 0) :     2.114649 a.u.    57.543 eV
 575( 0) :     2.211608 a.u.    60.181 eV
 576( 0) :     2.244439 a.u.    61.074 eV
 577( 0) :     2.288952 a.u.    62.286 eV
 578( 0) :     2.326177 a.u.    63.298 eV
 579( 0) :     2.355634 a.u.    64.100 eV
 580( 0) :     2.367767 a.u.    64.430 eV
 581( 0) :     2.397432 a.u.    65.237 eV
 582( 0) :     2.399050 a.u.    65.281 eV
 583( 0) :     2.421984 a.u.    65.906 eV
 584( 0) :     2.430291 a.u.    66.132 eV
 585( 0) :     2.458566 a.u.    66.901 eV
 586( 0) :     2.469446 a.u.    67.197 eV
 587( 0) :     2.478225 a.u.    67.436 eV
 588( 0) :     2.506202 a.u.    68.197 eV
 589( 0) :     2.513322 a.u.    68.391 eV
 590( 0) :     2.527482 a.u.    68.776 eV
 591( 0) :     2.531844 a.u.    68.895 eV
 592( 0) :     2.535838 a.u.    69.004 eV
 593( 0) :     2.551424 a.u.    69.428 eV
 594( 0) :     2.553052 a.u.    69.472 eV
 595( 0) :     2.591992 a.u.    70.532 eV
 596( 0) :     2.604036 a.u.    70.859 eV
 597( 0) :     2.834765 a.u.    77.138 eV
 598( 0) :     2.847460 a.u.    77.483 eV
 599( 0) :     2.853731 a.u.    77.654 eV
 600( 0) :     2.855245 a.u.    77.695 eV
 601( 0) :     2.857376 a.u.    77.753 eV
 602( 0) :     2.877728 a.u.    78.307 eV
 603( 0) :     2.887966 a.u.    78.586 eV
 604( 0) :     2.934149 a.u.    79.842 eV
 605( 0) :    23.912038 a.u.   650.680 eV
 606( 0) :    24.349317 a.u.   662.579 eV
 607( 0) :    24.401869 a.u.   664.009 eV
 608( 0) :    24.516444 a.u.   667.126 eV
 609( 0) :    24.532668 a.u.   667.568 eV
 610( 0) :    24.607736 a.u.   669.611 eV
 611( 0) :    24.811733 a.u.   675.162 eV
 612( 0) :    24.945415 a.u.   678.799 eV
 613( 0) :    24.961184 a.u.   679.228 eV
 614( 0) :    25.043182 a.u.   681.460 eV
 615( 0) :    25.101879 a.u.   683.057 eV
 616( 0) :    25.297822 a.u.   688.389 eV
 617( 0) :    25.310476 a.u.   688.733 eV
 618( 0) :    25.401605 a.u.   691.213 eV
 619( 0) :    25.502277 a.u.   693.952 eV
 620( 0) :    25.606805 a.u.   696.797 eV
 621( 0) :    25.629429 a.u.   697.412 eV
 622( 0) :    25.669356 a.u.   698.499 eV
 623( 0) :    25.956397 a.u.   706.309 eV
 624( 0) :    26.046109 a.u.   708.751 eV
 625( 0) :    26.054593 a.u.   708.982 eV
 626( 0) :    26.120410 a.u.   710.773 eV
 627( 0) :    26.152969 a.u.   711.658 eV
 628( 0) :    26.202743 a.u.   713.013 eV
 629( 0) :    26.374976 a.u.   717.700 eV
 630( 0) :    26.434926 a.u.   719.331 eV
 631( 0) :    26.452173 a.u.   719.800 eV
 632( 0) :    26.487385 a.u.   720.758 eV
 633( 0) :    26.612352 a.u.   724.159 eV
 634( 0) :    26.712808 a.u.   726.892 eV
 635( 0) :    26.845902 a.u.   730.514 eV
 636( 0) :    26.886777 a.u.   731.626 eV
 637( 0) :    27.028099 a.u.   735.472 eV
 638( 0) :    27.141279 a.u.   738.552 eV
 639( 0) :    27.233908 a.u.   741.072 eV
 640( 0) :    27.266772 a.u.   741.967 eV
 641( 0) :    27.343179 a.u.   744.046 eV
 642( 0) :    27.384168 a.u.   745.161 eV
 643( 0) :    27.498844 a.u.   748.282 eV
 644( 0) :    27.591431 a.u.   750.801 eV
 645( 0) :    27.767488 a.u.   755.592 eV
 646( 0) :    27.991630 a.u.   761.691 eV
 647( 0) :    28.174836 a.u.   766.676 eV
 648( 0) :    28.275130 a.u.   769.405 eV
 649( 0) :    28.555026 a.u.   777.022 eV
 650( 0) :    28.643966 a.u.   779.442 eV
 651( 0) :    28.665236 a.u.   780.021 eV
 652( 0) :    30.257708 a.u.   823.354 eV
 653( 0) :    43.873528 a.u.  1193.859 eV
 654( 0) :    44.003684 a.u.  1197.401 eV
 655( 0) :    44.069819 a.u.  1199.201 eV
 656( 0) :    44.075537 a.u.  1199.356 eV
 657( 0) :    44.109268 a.u.  1200.274 eV
 658( 0) :    44.125049 a.u.  1200.704 eV
 659( 0) :    44.132808 a.u.  1200.915 eV
 660( 0) :    44.141218 a.u.  1201.144 eV
 661( 0) :    44.144800 a.u.  1201.241 eV
 662( 0) :    44.176123 a.u.  1202.093 eV
 663( 0) :    44.189207 a.u.  1202.449 eV
 664( 0) :    44.194289 a.u.  1202.588 eV
 665( 0) :    44.205582 a.u.  1202.895 eV
 666( 0) :    44.206643 a.u.  1202.924 eV
 667( 0) :    44.237545 a.u.  1203.765 eV
 668( 0) :    44.248287 a.u.  1204.057 eV
 669( 0) :   205.078177 a.u.  5580.461 eV
 670( 0) :   205.129819 a.u.  5581.866 eV
 671( 0) :   205.154270 a.u.  5582.531 eV
 672( 0) :   205.156203 a.u.  5582.584 eV
 673( 0) :   205.177802 a.u.  5583.172 eV
 674( 0) :   205.180877 a.u.  5583.256 eV
 675( 0) :   205.184508 a.u.  5583.354 eV
 676( 0) :   205.186458 a.u.  5583.407 eV
 677( 0) :   205.197801 a.u.  5583.716 eV
 678( 0) :   205.204912 a.u.  5583.910 eV
 679( 0) :   205.210995 a.u.  5584.075 eV
 680( 0) :   205.211708 a.u.  5584.094 eV
 681( 0) :   205.214982 a.u.  5584.184 eV
 682( 0) :   205.218009 a.u.  5584.266 eV
 683( 0) :   205.227492 a.u.  5584.524 eV
 684( 0) :   205.229699 a.u.  5584.584 eV
-------
TIMINGS
-------

Total SCF time: 0 days 0 hours 8 min 19 sec 

Total time                  ....     499.344 sec
Sum of individual times     ....     461.863 sec  ( 92.5%)

Fock matrix formation       ....     451.823 sec  ( 90.5%)
  Split-RI-J                ....     160.231 sec  ( 35.5% of F)
  XC integration            ....     277.363 sec  ( 61.4% of F)
    Basis function eval.    ....      38.429 sec  ( 13.9% of XC)
    Density eval.           ....     122.694 sec  ( 44.2% of XC)
    XC-Functional eval.     ....       4.541 sec  (  1.6% of XC)
    XC-Potential eval.      ....      95.521 sec  ( 34.4% of XC)
Diagonalization             ....       3.280 sec  (  0.7%)
Density matrix formation    ....       0.763 sec  (  0.2%)
Population analysis         ....       1.171 sec  (  0.2%)
Initial guess               ....       0.267 sec  (  0.1%)
Orbital Transformation      ....       0.906 sec  (  0.2%)
Orbital Orthonormalization  ....       0.223 sec  (  0.0%)
DIIS solution               ....       0.000 sec  (  0.0%)
Grid generation             ....       3.652 sec  (  0.7%)

Maximum memory used throughout the entire SCF-calculation: 755.6 MB

-------------------------   --------------------
FINAL SINGLE POINT ENERGY     -3217.483111931241
-------------------------   --------------------

                                *** OPTIMIZATION RUN DONE ***

                            ***************************************
                            *     ORCA property calculations      *
                            ***************************************

                                    ---------------------
                                    Active property flags
                                    ---------------------
   (+) Dipole Moment


------------------------------------------------------------------------------
                       ORCA ELECTRIC PROPERTIES CALCULATION
------------------------------------------------------------------------------

Dipole Moment Calculation                       ... on
Quadrupole Moment Calculation                   ... off
Polarizability Calculation                      ... off
GBWName                                         ... pbe.gbw
Electron density                                ... pbe.scfp
The origin for moment calculation is the CENTER OF MASS  = (14.609710, 15.295905 15.019383)

-------------
DIPOLE MOMENT
-------------
                                X             Y             Z
Electronic contribution:     33.19096      25.51441      11.47079
Nuclear contribution   :    -33.65325     -26.05730     -11.79720
                        -----------------------------------------
Total Dipole Moment    :     -0.46229      -0.54289      -0.32641
                        -----------------------------------------
Magnitude (a.u.)       :      0.78421
Magnitude (Debye)      :      1.99330



--------------------
Rotational spectrum 
--------------------
 
Rotational constants in cm-1:     0.001036     0.000728     0.000692 
Rotational constants in MHz :    31.059646    21.811119    20.739945 

 Dipole components along the rotational axes: 
x,y,z [a.u.] :     0.784157     0.001170    -0.009025 
x,y,z [Debye]:     1.993168     0.002974    -0.022939 

 

Timings for individual modules:

Sum of individual times         ...    12701.878 sec (= 211.698 min)
GTO integral calculation        ...      250.505 sec (=   4.175 min)   2.0 %
SCF iterations                  ...    10155.187 sec (= 169.253 min)  80.0 %
SCF Gradient evaluation         ...     2287.731 sec (=  38.129 min)  18.0 %
Geometry relaxation             ...        8.454 sec (=   0.141 min)   0.1 %
                             ****ORCA TERMINATED NORMALLY****
TOTAL RUN TIME: 0 days 3 hours 31 minutes 45 seconds 586 msec
