
                                 *****************
                                 * O   R   C   A *
                                 *****************

                                            #,                                       
                                            ###                                      
                                            ####                                     
                                            #####                                    
                                            ######                                   
                                           ########,                                 
                                     ,,################,,,,,                         
                               ,,#################################,,                 
                          ,,##########################################,,             
                       ,#########################################, ''#####,          
                    ,#############################################,,   '####,        
                  ,##################################################,,,,####,       
                ,###########''''           ''''###############################       
              ,#####''   ,,,,##########,,,,          '''####'''          '####       
            ,##' ,,,,###########################,,,                        '##       
           ' ,,###''''                  '''############,,,                           
         ,,##''                                '''############,,,,        ,,,,,,###''
      ,#''                                            '''#######################'''  
     '                                                          ''''####''''         
             ,#######,   #######,   ,#######,      ##                                
            ,#'     '#,  ##    ##  ,#'     '#,    #''#        ######   ,####,        
            ##       ##  ##   ,#'  ##            #'  '#       #        #'  '#        
            ##       ##  #######   ##           ,######,      #####,   #    #        
            '#,     ,#'  ##    ##  '#,     ,#' ,#      #,         ##   #,  ,#        
             '#######'   ##     ##  '#######'  #'      '#     #####' # '####'        



                  #######################################################
                  #                        -***-                        #
                  #          Department of theory and spectroscopy      #
                  #    Directorship and core code : Frank Neese         #
                  #        Max Planck Institute fuer Kohlenforschung    #
                  #                Kaiser Wilhelm Platz 1               #
                  #                 D-45470 Muelheim/Ruhr               #
                  #                      Germany                        #
                  #                                                     #
                  #                  All rights reserved                #
                  #                        -***-                        #
                  #######################################################


                         Program Version 5.0.3 -  RELEASE  -


 With contributions from (in alphabetic order):
   Daniel Aravena         : Magnetic Suceptibility
   Michael Atanasov       : Ab Initio Ligand Field Theory (pilot matlab implementation)
   Alexander A. Auer      : GIAO ZORA, VPT2 properties, NMR spectrum
   Ute Becker             : Parallelization
   Giovanni Bistoni       : ED, misc. LED, open-shell LED, HFLD
   Martin Brehm           : Molecular dynamics
   Dmytro Bykov           : SCF Hessian
   Vijay G. Chilkuri      : MRCI spin determinant printing, contributions to CSF-ICE
   Dipayan Datta          : RHF DLPNO-CCSD density
   Achintya Kumar Dutta   : EOM-CC, STEOM-CC
   Dmitry Ganyushin       : Spin-Orbit,Spin-Spin,Magnetic field MRCI
   Miquel Garcia          : C-PCM and meta-GGA Hessian, CC/C-PCM, Gaussian charge scheme
   Yang Guo               : DLPNO-NEVPT2, F12-NEVPT2, CIM, IAO-localization
   Andreas Hansen         : Spin unrestricted coupled pair/coupled cluster methods
   Benjamin Helmich-Paris : MC-RPA, TRAH-SCF, COSX integrals
   Lee Huntington         : MR-EOM, pCC
   Robert Izsak           : Overlap fitted RIJCOSX, COSX-SCS-MP3, EOM
   Marcus Kettner         : VPT2
   Christian Kollmar      : KDIIS, OOCD, Brueckner-CCSD(T), CCSD density, CASPT2, CASPT2-K
   Simone Kossmann        : Meta GGA functionals, TD-DFT gradient, OOMP2, MP2 Hessian
   Martin Krupicka        : Initial AUTO-CI
   Lucas Lang             : DCDCAS
   Marvin Lechner         : AUTO-CI (C++ implementation), FIC-MRCC
   Dagmar Lenk            : GEPOL surface, SMD
   Dimitrios Liakos       : Extrapolation schemes; Compound Job, initial MDCI parallelization
   Dimitrios Manganas     : Further ROCIS development; embedding schemes
   Dimitrios Pantazis     : SARC Basis sets
   Anastasios Papadopoulos: AUTO-CI, single reference methods and gradients
   Taras Petrenko         : DFT Hessian,TD-DFT gradient, ASA, ECA, R-Raman, ABS, FL, XAS/XES, NRVS
   Peter Pinski           : DLPNO-MP2, DLPNO-MP2 Gradient
   Christoph Reimann      : Effective Core Potentials
   Marius Retegan         : Local ZFS, SOC
   Christoph Riplinger    : Optimizer, TS searches, QM/MM, DLPNO-CCSD(T), (RO)-DLPNO pert. Triples
   Tobias Risthaus        : Range-separated hybrids, TD-DFT gradient, RPA, STAB
   Michael Roemelt        : Original ROCIS implementation
   Masaaki Saitow         : Open-shell DLPNO-CCSD energy and density
   Barbara Sandhoefer     : DKH picture change effects
   Avijit Sen             : IP-ROCIS
   Kantharuban Sivalingam : CASSCF convergence, NEVPT2, FIC-MRCI
   Bernardo de Souza      : ESD, SOC TD-DFT
   Georgi Stoychev        : AutoAux, RI-MP2 NMR, DLPNO-MP2 response
   Willem Van den Heuvel  : Paramagnetic NMR
   Boris Wezisla          : Elementary symmetry handling
   Frank Wennmohs         : Technical directorship


 We gratefully acknowledge several colleagues who have allowed us to
 interface, adapt or use parts of their codes:
   Stefan Grimme, W. Hujo, H. Kruse, P. Pracht,  : VdW corrections, initial TS optimization,
                  C. Bannwarth, S. Ehlert          DFT functionals, gCP, sTDA/sTD-DF
   Ed Valeev, F. Pavosevic, A. Kumar             : LibInt (2-el integral package), F12 methods
   Garnet Chan, S. Sharma, J. Yang, R. Olivares  : DMRG
   Ulf Ekstrom                                   : XCFun DFT Library
   Mihaly Kallay                                 : mrcc  (arbitrary order and MRCC methods)
   Jiri Pittner, Ondrej Demel                    : Mk-CCSD
   Frank Weinhold                                : gennbo (NPA and NBO analysis)
   Christopher J. Cramer and Donald G. Truhlar   : smd solvation model
   Lars Goerigk                                  : TD-DFT with DH, B97 family of functionals
   V. Asgeirsson, H. Jonsson                     : NEB implementation
   FAccTs GmbH                                   : IRC, NEB, NEB-TS, DLPNO-Multilevel, CI-OPT
                                                   MM, QMMM, 2- and 3-layer-ONIOM, Crystal-QMMM,
                                                   LR-CPCM, SF, NACMEs, symmetry and pop. for TD-DFT,
                                                   nearIR, NL-DFT gradient (VV10), updates on ESD,
                                                   ML-optimized integration grids
   S Lehtola, MJT Oliveira, MAL Marques          : LibXC Library
   Liviu Ungur et al                             : ANISO software


 Your calculation uses the libint2 library for the computation of 2-el integrals
 For citations please refer to: http://libint.valeyev.net

 Your ORCA version has been built with support for libXC version: 5.1.0
 For citations please refer to: https://tddft.org/programs/libxc/

 This ORCA versions uses:
   CBLAS   interface :  Fast vector & matrix operations
   LAPACKE interface :  Fast linear algebra routines
   SCALAPACK package :  Parallel linear algebra routines
   Shared memory     :  Shared parallel matrices
   BLAS/LAPACK       :  OpenBLAS 0.3.15  USE64BITINT DYNAMIC_ARCH NO_AFFINITY Haswell SINGLE_THREADED
        Core in use  :  Haswell
   Copyright (c) 2011-2014, The OpenBLAS Project




***************************************
The coordinates will be read from file: pbe.xyz
***************************************


================================================================================

cite the ECPs for Au [Def2-ECP] as follows:
Ce-Yb(ecp-28): M. Dolg, H. Stoll, H.Preuss, J. Chem. Phys., 1989, 90, 1730-1734.
Y-Cd(ecp-28), Hf-Hg(ecp-46): D. Andrae,U. Haeussermann, M. Dolg, H. Stoll, H. Preuss, Theor. Chim. Acta, 1990, 77, 123-141.
In-Sb(ecp-28), Tl-Bi(ecp-46): B. Metz, H. Stoll, M. Dolg, J. Chem. Phys., 2000, 113, 2563-2569.
Te-Xe(ecp-28), Po-Rn(ecp-46): K. A. Peterson, D. Figgen, E. Goll, H. Stoll, M. Dolg, J. Chem. Phys., 2003, 119, 11113-11123.
Rb(ecp-28), Cs(ecp-46): T. Leininger, A. Nicklass, W. Kuechle, H. Stoll, M. Dolg, A. Bergner, Chem. Phys. Lett., 1996, 255, 274-280.
Sr(ecp-28), Ba(ecp-46): M. Kaupp, P. V. Schleyer, H. Stoll and H. Preuss, J. Chem. Phys., 1991, 94, 1360-1366.
La(ecp-46): M. Dolg, H. Stoll, A. Savin, H. Preuss, Theor. Chim. Acta, 1989, 75, 173-194.
Lu(ecp-28): X. Cao, M. Dolg, J. Chem. Phys., 2001, 115, 7348-7355.

ECP parameters for Au [Def2-ECP] have been obtained from:
TURBOMOLE (7.0.2)

----- Orbital basis set information -----
Your calculation utilizes the basis: def2-TZVP
   F. Weigend and R. Ahlrichs, Phys. Chem. Chem. Phys. 7, 3297 (2005).

----- AuxJ basis set information -----
Your calculation utilizes the auxiliary basis: def2/J
   F. Weigend, Phys. Chem. Chem. Phys. 8, 1057 (2006).

----- AuxC basis set information -----
Your calculation utilizes the auxiliary basis: def2-TZVP/C
  H-La, Hf-Rn : A. Hellweg, C. Hattig, S. Hofener and W. Klopper, Theor. Chem. Acc. 117, 587 (2007).
        Ce-Lu : J. Chmela and M. E. Harding, Mol. Phys. (2018).

================================================================================
                                        WARNINGS
                       Please study these warnings very carefully!
================================================================================


WARNING: your system is open-shell and RHF/RKS was chosen
  ===> : WILL SWITCH to UHF/UKS


WARNING: No MP2 level density has been requested!
         To caclulate MP2 level properties use
         %mp2 Density relaxed end
         or
         %mp2 Density unrelaxed end
         Otherwise for double-hybrid DFT only the energy is correct!

WARNING: The frozen-core approximation is turned on by default for 
         the MP2 part of double-hybrid DFT.

INFO   : the flag for use of the SHARK integral package has been found!



***************************************
The coordinates will be read from file: pbe.xyz
***************************************


================================================================================

cite the ECPs for Au [Def2-ECP] as follows:
Ce-Yb(ecp-28): M. Dolg, H. Stoll, H.Preuss, J. Chem. Phys., 1989, 90, 1730-1734.
Y-Cd(ecp-28), Hf-Hg(ecp-46): D. Andrae,U. Haeussermann, M. Dolg, H. Stoll, H. Preuss, Theor. Chim. Acta, 1990, 77, 123-141.
In-Sb(ecp-28), Tl-Bi(ecp-46): B. Metz, H. Stoll, M. Dolg, J. Chem. Phys., 2000, 113, 2563-2569.
Te-Xe(ecp-28), Po-Rn(ecp-46): K. A. Peterson, D. Figgen, E. Goll, H. Stoll, M. Dolg, J. Chem. Phys., 2003, 119, 11113-11123.
Rb(ecp-28), Cs(ecp-46): T. Leininger, A. Nicklass, W. Kuechle, H. Stoll, M. Dolg, A. Bergner, Chem. Phys. Lett., 1996, 255, 274-280.
Sr(ecp-28), Ba(ecp-46): M. Kaupp, P. V. Schleyer, H. Stoll and H. Preuss, J. Chem. Phys., 1991, 94, 1360-1366.
La(ecp-46): M. Dolg, H. Stoll, A. Savin, H. Preuss, Theor. Chim. Acta, 1989, 75, 173-194.
Lu(ecp-28): X. Cao, M. Dolg, J. Chem. Phys., 2001, 115, 7348-7355.

ECP parameters for Au [Def2-ECP] have been obtained from:
TURBOMOLE (7.0.2)

----- Orbital basis set information -----
Your calculation utilizes the basis: def2-TZVP
   F. Weigend and R. Ahlrichs, Phys. Chem. Chem. Phys. 7, 3297 (2005).

----- AuxJ basis set information -----
Your calculation utilizes the auxiliary basis: def2/J
   F. Weigend, Phys. Chem. Chem. Phys. 8, 1057 (2006).

----- AuxC basis set information -----
Your calculation utilizes the auxiliary basis: def2-TZVP/C
  H-La, Hf-Rn : A. Hellweg, C. Hattig, S. Hofener and W. Klopper, Theor. Chem. Acc. 117, 587 (2007).
        Ce-Lu : J. Chmela and M. E. Harding, Mol. Phys. (2018).

================================================================================
                                        WARNINGS
                       Please study these warnings very carefully!
================================================================================


WARNING: No MP2 level density has been requested!
         To caclulate MP2 level properties use
         %mp2 Density relaxed end
         or
         %mp2 Density unrelaxed end
         Otherwise for double-hybrid DFT only the energy is correct!

WARNING: The frozen-core approximation is turned on by default for 
         the MP2 part of double-hybrid DFT.

INFO   : the flag for use of the SHARK integral package has been found!

================================================================================
                                       INPUT FILE
================================================================================
NAME = b2plyp.inp
|  1> !RI-B2PLYP def2-TZVP def2-TZVP/C
|  2> !RIJCOSX VERYSLOWCONV
|  3> 
|  4> %scf
|  5>   AutoTRAHIter 200
|  6>   maxiter 400
|  7> end
|  8> 
|  9> 
| 10> %pal nprocs 6 end 
| 11> 
| 12> *xyzfile 0 5 pbe.xyz
| 13> 
| 14> $new_job
| 15> 
| 16> !RI-B2PLYP def2-TZVP def2-TZVP/C
| 17> !RIJCOSX VERYSLOWCONV
| 18> 
| 19> %scf
| 20>   AutoTRAHIter 200
| 21>   maxiter 400
| 22> end
| 23> 
| 24> 
| 25> %pal nprocs 6 end 
| 26> 
| 27> *xyzfile 0 3 pbe.xyz
| 28> 
| 29> 
| 30> 
| 31> 
| 32> 
| 33>                          ****END OF INPUT****
================================================================================


                 $$$$$$$$$$$$$$$$$$$$$$$$$$$$$$$$$$$$$$$$$$$$$$ 
                 $ THERE ARE  2 JOBS TO BE PROCESSED THIS RUN $
                 $$$$$$$$$$$$$$$$$$$$$$$$$$$$$$$$$$$$$$$$$$$$$$ 




                 $$$$$$$$$$$$$$$$  JOB NUMBER  1 $$$$$$$$$$$$$$


                       ****************************
                       * Single Point Calculation *
                       ****************************

---------------------------------
CARTESIAN COORDINATES (ANGSTROEM)
---------------------------------
  Au    10.970560   10.147441    8.089200
  Au     8.332911    9.316415    8.257525
  Au    10.312585    7.925119    9.602382
  Au     6.298791    7.640287    7.936105
  Au     9.383590    5.474484   10.033428
  Au     8.167506    3.441321    5.288905
  Au    10.542556    7.990392    6.495552
  Au     9.600032    5.732484    5.553492
  Au     6.682214    5.364426    6.622805
  Au     8.676097    3.981481    7.954428
  Fe     8.710592    6.676593    7.825817

----------------------------
CARTESIAN COORDINATES (A.U.)
----------------------------
  NO LB      ZA    FRAG     MASS         X           Y           Z
   0 Au   19.0000*   0   196.966   20.731354   19.175884   15.286373
   1 Au   19.0000*   0   196.966   15.746920   17.605472   15.604461
   2 Au   19.0000*   0   196.966   19.487962   14.976304   18.145872
   3 Au   19.0000*   0   196.966   11.902991   14.438050   14.997065
   4 Au   19.0000*   0   196.966   17.732415   10.345276   18.960430
   5 Au   19.0000*   0   196.966   15.434350    6.503153    9.994583
   6 Au   19.0000*   0   196.966   19.922544   15.099653   12.274814
   7 Au   19.0000*   0   196.966   18.141431   10.832825   10.494579
   8 Au   19.0000*   0   196.966   12.627555   10.137296   12.515288
   9 Au   19.0000*   0   196.966   16.395447    7.523909   15.031691
  10 Fe   26.0000    0    55.850   16.460633   12.616932   14.788651
* core charge reduced due to ECP

--------------------------------
INTERNAL COORDINATES (ANGSTROEM)
--------------------------------
 Au     0   0   0     0.000000000000     0.00000000     0.00000000
 Au     1   0   0     2.770582899327     0.00000000     0.00000000
 Au     1   2   0     2.767917120207    59.97714727     0.00000000
 Au     2   1   3     2.655251111816   155.68626041   297.89517239
 Au     3   1   2     2.656020262460   155.87660562    62.58146607
 Au     5   3   1     5.303122026208   106.78343609     4.06601976
 Au     1   2   3     2.715835279385    69.35262474    77.31393317
 Au     7   1   2     2.621827011484   162.08306429   327.65484158
 Au     4   2   1     2.655430393409   119.35845147   354.54150065
 Au     5   3   1     2.655530492008   119.00452509     5.50425000
 Fe     4   2   1     2.599548355609    61.86205999    18.21599641

---------------------------
INTERNAL COORDINATES (A.U.)
---------------------------
 Au     0   0   0     0.000000000000     0.00000000     0.00000000
 Au     1   0   0     5.235642911053     0.00000000     0.00000000
 Au     1   2   0     5.230605318583    59.97714727     0.00000000
 Au     2   1   3     5.017697418122   155.68626041   297.89517239
 Au     3   1   2     5.019150902196   155.87660562    62.58146607
 Au     5   3   1    10.021448284298   106.78343609     4.06601976
 Au     1   2   3     5.132184902880    69.35262474    77.31393317
 Au     7   1   2     4.954535022223   162.08306429   327.65484158
 Au     4   2   1     5.018036211234   119.35845147   354.54150065
 Au     5   3   1     5.018225370173   119.00452509     5.50425000
 Fe     4   2   1     4.912434463987    61.86205999    18.21599641

---------------------
BASIS SET INFORMATION
---------------------
There are 2 groups of distinct atoms

 Group   1 Type Au  : 8s7p6d1f contracted to 6s4p3d1f pattern {311111/4111/411/1}
 Group   2 Type Fe  : 17s11p7d1f contracted to 6s4p4d1f pattern {842111/6311/4111/1}

Atom   0Au   basis set group =>   1
Atom   1Au   basis set group =>   1
Atom   2Au   basis set group =>   1
Atom   3Au   basis set group =>   1
Atom   4Au   basis set group =>   1
Atom   5Au   basis set group =>   1
Atom   6Au   basis set group =>   1
Atom   7Au   basis set group =>   1
Atom   8Au   basis set group =>   1
Atom   9Au   basis set group =>   1
Atom  10Fe   basis set group =>   2
---------------------------------
AUXILIARY/J BASIS SET INFORMATION
---------------------------------
There are 2 groups of distinct atoms

 Group   1 Type Au  : 11s5p5d3f3g contracted to 8s5p5d2f3g pattern {41111111/11111/11111/21/111}
 Group   2 Type Fe  : 19s5p5d3f3g contracted to 8s5p5d2f3g pattern {121111111/11111/11111/21/111}

Atom   0Au   basis set group =>   1
Atom   1Au   basis set group =>   1
Atom   2Au   basis set group =>   1
Atom   3Au   basis set group =>   1
Atom   4Au   basis set group =>   1
Atom   5Au   basis set group =>   1
Atom   6Au   basis set group =>   1
Atom   7Au   basis set group =>   1
Atom   8Au   basis set group =>   1
Atom   9Au   basis set group =>   1
Atom  10Fe   basis set group =>   2
---------------------------------
AUXILIARY/C BASIS SET INFORMATION
---------------------------------
There are 2 groups of distinct atoms

 Group   1 Type Au  : 8s8p7d5f3g2h contracted to 8s8p7d5f3g2h pattern {11111111/11111111/1111111/11111/111/11}
 Group   2 Type Fe  : 11s9p8d6f5g2h contracted to 9s8p8d6f5g2h pattern {311111111/21111111/11111111/111111/11111/11}

Atom   0Au   basis set group =>   1
Atom   1Au   basis set group =>   1
Atom   2Au   basis set group =>   1
Atom   3Au   basis set group =>   1
Atom   4Au   basis set group =>   1
Atom   5Au   basis set group =>   1
Atom   6Au   basis set group =>   1
Atom   7Au   basis set group =>   1
Atom   8Au   basis set group =>   1
Atom   9Au   basis set group =>   1
Atom  10Fe   basis set group =>   2
-------------------------
ECP PARAMETER INFORMATION
-------------------------

 Group 1, Type Au ECP Def2-ECP (replacing 60 core electrons, lmax=3)

Atom   0Au   ECP group =>   1
Atom   1Au   ECP group =>   1
Atom   2Au   ECP group =>   1
Atom   3Au   ECP group =>   1
Atom   4Au   ECP group =>   1
Atom   5Au   ECP group =>   1
Atom   6Au   ECP group =>   1
Atom   7Au   ECP group =>   1
Atom   8Au   ECP group =>   1
Atom   9Au   ECP group =>   1



           ************************************************************
           *        Program running with 6 parallel MPI-processes     *
           *              working on a common directory               *
           ************************************************************
------------------------------------------------------------------------------
                           ORCA GTO INTEGRAL CALCULATION
                           -- RI-GTO INTEGRALS CHOSEN --
------------------------------------------------------------------------------
------------------------------------------------------------------------------
                   ___                                                        
                  /   \      - P O W E R E D   B Y -                         
                 /     \                                                     
                 |  |  |   _    _      __       _____    __    __             
                 |  |  |  | |  | |    /  \     |  _  \  |  |  /  |          
                  \  \/   | |  | |   /    \    | | | |  |  | /  /          
                 / \  \   | |__| |  /  /\  \   | |_| |  |  |/  /          
                |  |  |   |  __  | /  /__\  \  |    /   |      \           
                |  |  |   | |  | | |   __   |  |    \   |  |\   \          
                \     /   | |  | | |  |  |  |  | |\  \  |  | \   \       
                 \___/    |_|  |_| |__|  |__|  |_| \__\ |__|  \__/        
                                                                              
                      - O R C A' S   B I G   F R I E N D -                    
                                      &                                       
                       - I N T E G R A L  F E E D E R -                       
                                                                              
 v1 FN, 2020, v2 2021                                                         
------------------------------------------------------------------------------


Reading SHARK input file b2plyp.SHARKINP.tmp ... ok
----------------------
SHARK INTEGRAL PACKAGE
----------------------

Number of atoms                             ...     11
Number of basis functions                   ...    445
Number of shells                            ...    155
Maximum angular momentum                    ...      3
Integral batch strategy                     ... SHARK/LIBINT Hybrid
RI-J (if used) integral strategy            ... SPLIT-RIJ (Revised 2003 algorithm where possible)
Printlevel                                  ...      1
Contraction scheme used                     ... SEGMENTED contraction
Coulomb Range Separation                    ... NOT USED
Exchange Range Separation                   ... NOT USED
Finite Nucleus Model                        ... NOT USED
Auxiliary Coulomb fitting basis             ... AVAILABLE
   # of basis functions in Aux-J            ...    979
   # of shells in Aux-J                     ...    253
   Maximum angular momentum in Aux-J        ...      4
Auxiliary J/K fitting basis                 ... NOT available
Auxiliary Correlation fitting basis         ... AVAILABLE
   # of basis functions in Aux-C            ...   1692
   # of shells in Aux-C                     ...    368
   Maximum angular momentum in Aux-C        ...      5
Auxiliary 'external' fitting basis          ... NOT available
Integral threshold                          ...     1.000000e-10
Primitive cut-off                           ...     1.000000e-11
Primitive pair pre-selection threshold      ...     1.000000e-11

Calculating pre-screening integrals         ... done (  0.1 sec) Dimension = 155
Organizing shell pair data                  ... done (  0.2 sec)
Shell pair information
Total number of shell pairs                 ...     12090
Shell pairs after pre-screening             ...      9744
Total number of primitive shell pairs       ...     33105
Primitive shell pairs kept                  ...     19588
          la=0 lb=0:   1540 shell pairs
          la=1 lb=0:   2222 shell pairs
          la=1 lb=1:    834 shell pairs
          la=2 lb=0:   1942 shell pairs
          la=2 lb=1:   1360 shell pairs
          la=2 lb=2:    565 shell pairs
          la=3 lb=0:    508 shell pairs
          la=3 lb=1:    386 shell pairs
          la=3 lb=2:    334 shell pairs
          la=3 lb=3:     53 shell pairs

Calculating one electron integrals          ... done (  0.0 sec)
Calculating ECP integrals                   ... done (  3.4 sec)
Calculating RI/J V-Matrix + Cholesky decomp.... done (  0.0 sec)
Calculating RI/C V-Matrix + Cholesky decomp.... done (  0.1 sec)
Calculating Nuclear repulsion               ... done (  0.0 sec) ENN=   3139.866571785326 Eh

SHARK setup successfully completed in   4.0 seconds

Maximum memory used throughout the entire GTOINT-calculation: 29.9 MB


           ************************************************************
           *        Program running with 6 parallel MPI-processes     *
           *              working on a common directory               *
           ************************************************************
-------------------------------------------------------------------------------
                                 ORCA SCF
-------------------------------------------------------------------------------

------------
SCF SETTINGS
------------
Hamiltonian:
 Density Functional     Method          .... DFT(GTOs)
 Exchange Functional    Exchange        .... B88
   X-Alpha parameter    XAlpha          ....  0.666667
   Becke's b parameter  XBeta           ....  0.004200
 Correlation Functional Correlation     .... LYP
 LDA part of GGA corr.  LDAOpt          .... VWN-3
 Gradients option       PostSCFGGA      .... off
 Hybrid DFT is turned on
   Fraction HF Exchange ScalHFX         ....  0.530000
   Scaling of DF-GGA-X  ScalDFX         ....  0.470000
   Scaling of DF-GGA-C  ScalDFC         ....  0.730000
   Scaling of DF-LDA-C  ScalLDAC        ....  0.730000
   Perturbative correction              ....  0.270000
   Density functional embedding theory  .... OFF
   NL short-range parameter             ....  7.800000
 RI-approximation to the Coulomb term is turned on
   Number of AuxJ basis functions       .... 979
   RIJ-COSX (HFX calculated with COS-X)).... on


General Settings:
 Integral files         IntName         .... b2plyp
 Hartree-Fock type      HFTyp           .... UHF
 Total Charge           Charge          ....    0
 Multiplicity           Mult            ....    5
 Number of Electrons    NEL             ....  216
 Basis Dimension        Dim             ....  445
 Nuclear Repulsion      ENuc            ....   3139.8665717853 Eh

Convergence Acceleration:
 DIIS                   CNVDIIS         .... on
   Start iteration      DIISMaxIt       ....     0
   Startup error        DIISStart       ....  0.200000
   # of expansion vecs  DIISMaxEq       ....     5
   Bias factor          DIISBfac        ....   1.050
   Max. coefficient     DIISMaxC        ....  10.000
 Trust-Rad. Augm. Hess. CNVTRAH         .... auto
   Auto Start mean grad. ratio tolernc. ....  1.125000
   Auto Start start iteration           ....   200
   Auto Start num. interpolation iter.  ....    10
   Max. Number of Micro iterations      ....    16
   Max. Number of Macro iterations      .... Maxiter - #DIIS iter
   Number of Davidson start vectors     ....     2
   Converg. threshold I  (grad. norm)   ....   5.000e-05
   Converg. threshold II (energy diff.) ....   1.000e-06
   Grad. Scal. Fac. for Micro threshold ....   0.100
   Minimum threshold for Micro iter.    ....   0.010
   NR start threshold (gradient norm)   ....   0.001
   Initial trust radius                 ....   0.400
   Minimum AH scaling param. (alpha)    ....   1.000
   Maximum AH scaling param. (alpha)    .... 1000.000
   Orbital update algorithm             .... Taylor
   White noise on init. David. guess    .... on
   Maximum white noise                  ....   0.010
   Quad. conv. algorithm                .... NR
 SOSCF                  CNVSOSCF        .... off
 Level Shifting         CNVShift        .... on
   Level shift para.    LevelShift      ....    0.2500
   Turn off err/grad.   ShiftErr        ....    0.0000
 Zerner damping         CNVZerner       .... off
 Static damping         CNVDamp         .... on
   Fraction old density DampFac         ....    0.9200
   Max. Damping (<1)    DampMax         ....    0.9800
   Min. Damping (>=0)   DampMin         ....    0.0000
   Turn off err/grad.   DampErr         ....    0.0030
 Fernandez-Rico         CNVRico         .... off

SCF Procedure:
 Maximum # iterations   MaxIter         ....   400
 SCF integral mode      SCFMode         .... Direct
   Integral package                     .... SHARK and LIBINT hybrid scheme
 Reset frequency        DirectResetFreq ....    20
 Integral Threshold     Thresh          ....  1.000e-10 Eh
 Primitive CutOff       TCut            ....  1.000e-11 Eh

Convergence Tolerance:
 Convergence Check Mode ConvCheckMode   .... Total+1el-Energy
 Convergence forced     ConvForced      .... 0
 Energy Change          TolE            ....  1.000e-06 Eh
 1-El. energy change                    ....  1.000e-03 Eh
 DIIS Error             TolErr          ....  1.000e-06


Diagonalization of the overlap matrix:
Smallest eigenvalue                        ... 5.840e-04
Time for diagonalization                   ...    0.019 sec
Threshold for overlap eigenvalues          ... 1.000e-08
Number of eigenvalues below threshold      ... 0
Time for construction of square roots      ...    0.012 sec
Total time needed                          ...    0.031 sec

Time for model grid setup =    0.268 sec

------------------------------
INITIAL GUESS: MODEL POTENTIAL
------------------------------
Loading Hartree-Fock densities                     ... done
  calling /media/Programs/ORCA501/orca b2plyp_atom79.inp > b2plyp_atom79.out in order to generate an atomic fitting density for atom 0 (Au with ECP) on-the-fly... 
    atom 0 (Au), assumed electronic state with S=2: 1s2 2s2 2p6 3s2 3p6 4s2 3d10 4p6 5s2 4d10 5p6 6s1 4f14 5d10           ... done
Calculating cut-offs                               ... done
Initializing the effective Hamiltonian             ... done
Setting up the integral package (SHARK)            ... done
Starting the Coulomb interaction                   ... done (   0.2 sec)
Reading the grid                                   ... done
Mapping shells                                     ... done
Starting the XC term evaluation                    ... done (   0.2 sec)
  promolecular density results
     # of electrons  =    816.012072954
     EX              =  -3728.070795550
     EC              =    -16.541916893
     EX+EC           =  -3744.612712443
Transforming the Hamiltonian                       ... done (   0.0 sec)
Diagonalizing the Hamiltonian                      ... done (   0.0 sec)
Back transforming the eigenvectors                 ... done (   0.0 sec)
Now organizing SCF variables                       ... done
                      ------------------
                      INITIAL GUESS DONE (   1.1 sec)
                      ------------------
-------------------
DFT GRID GENERATION
-------------------

General Integration Accuracy     IntAcc      ... 4.388
Radial Grid Type                 RadialGrid  ... OptM3 with GC (2021)
Angular Grid (max. ang.)         AngularGrid ... 4 (Lebedev-302)
Angular grid pruning method      GridPruning ... 4 (adaptive)
Weight generation scheme         WeightScheme... Becke
Basis function cutoff            BFCut       ... 1.0000e-10
Integration weight cutoff        WCut        ... 1.0000e-14
Angular grids for H and He will be reduced by one unit
Partially contracted basis set               ... off
Rotationally invariant grid construction     ... off

Total number of grid points                  ...   123650
Total number of batches                      ...     1938
Average number of points per batch           ...       63
Average number of grid points per atom       ...    11241
Time for grid setup =    0.904 sec

--------------------
COSX GRID GENERATION
--------------------

GRIDX 1
-------
General Integration Accuracy     IntAcc      ... 3.816
Radial Grid Type                 RadialGrid  ... OptM3 with GC (2021)
Angular Grid (max. ang.)         AngularGrid ... 1 (Lebedev-50)
Angular grid pruning method      GridPruning ... 4 (adaptive)
Weight generation scheme         WeightScheme... Becke
Basis function cutoff            BFCut       ... 1.0000e-10
Integration weight cutoff        WCut        ... 1.0000e-14
Angular grids for H and He will be reduced by one unit
Partially contracted basis set               ... on
Rotationally invariant grid construction     ... off

Total number of grid points                  ...    13034
Total number of batches                      ...      208
Average number of points per batch           ...       62
Average number of grid points per atom       ...     1185
UseSFitting                                  ... on

GRIDX 2
-------
General Integration Accuracy     IntAcc      ... 4.020
Radial Grid Type                 RadialGrid  ... OptM3 with GC (2021)
Angular Grid (max. ang.)         AngularGrid ... 2 (Lebedev-110)
Angular grid pruning method      GridPruning ... 4 (adaptive)
Weight generation scheme         WeightScheme... Becke
Basis function cutoff            BFCut       ... 1.0000e-10
Integration weight cutoff        WCut        ... 1.0000e-14
Angular grids for H and He will be reduced by one unit
Partially contracted basis set               ... on
Rotationally invariant grid construction     ... off

Total number of grid points                  ...    39502
Total number of batches                      ...      622
Average number of points per batch           ...       63
Average number of grid points per atom       ...     3591
UseSFitting                                  ... on

GRIDX 3
-------
General Integration Accuracy     IntAcc      ... 4.338
Radial Grid Type                 RadialGrid  ... OptM3 with GC (2021)
Angular Grid (max. ang.)         AngularGrid ... 3 (Lebedev-194)
Angular grid pruning method      GridPruning ... 4 (adaptive)
Weight generation scheme         WeightScheme... Becke
Basis function cutoff            BFCut       ... 1.0000e-10
Integration weight cutoff        WCut        ... 1.0000e-14
Angular grids for H and He will be reduced by one unit
Partially contracted basis set               ... on
Rotationally invariant grid construction     ... off

Total number of grid points                  ...    72807
Total number of batches                      ...     1142
Average number of points per batch           ...       63
Average number of grid points per atom       ...     6619
UseSFitting                                  ... on

Time for X-Grid setup             =    0.691 sec

--------------
SCF ITERATIONS
--------------
ITER       Energy         Delta-E        Max-DP      RMS-DP      [F,P]     Damp
               ***  Starting incremental Fock matrix formation  ***
  0  -2614.8682236204   0.000000000000 0.11017131  0.00078498  0.4530917 0.9200
  1  -2615.7262391928  -0.858015572376 0.07734747  0.00069002  0.2860524 0.9200
                               ***Turning on DIIS***
  2  -2616.1705229808  -0.444283788031 0.05879006  0.00055315  0.2311941 0.9200
  3  -2616.3216934637  -0.151170482911 0.02678429  0.00033529  0.2129591 0.9200
  4  -2616.3798203886  -0.058126924873 0.02455993  0.00028853  0.1960983 0.9200
  5  -2616.4494652671  -0.069644878533 0.02294721  0.00027588  0.1804908 0.9200
  6  -2616.5158177696  -0.066352502472 0.02149290  0.00025647  0.1660529 0.9200
  7  -2616.5740019016  -0.058184131978 0.01945722  0.00023033  0.1527528 0.9200
  8  -2616.6394589301  -0.065457028585 0.01789537  0.00022055  0.1405768 0.9200
  9  -2616.7030572573  -0.063598327122 0.01708704  0.00020399  0.1294398 0.9200
 10  -2616.7624480858  -0.059390828559 0.01579035  0.00018978  0.1191273 0.9200
 11  -2616.8191290071  -0.056680921238 0.01480801  0.00017860  0.1096118 0.9200
 12  -2616.8717251208  -0.052596113762 0.01369691  0.00016477  0.1008431 0.9200
 13  -2616.9231578897  -0.051432768903 0.01247144  0.00015356  0.0927852 0.9200
 14  -2616.9729337565  -0.049775866829 0.01161369  0.00014440  0.0853978 0.9200
 15  -2617.0197433363  -0.046809579704 0.01084991  0.00013503  0.0785932 0.9200
 16  -2617.0638744358  -0.044131099512 0.01007060  0.00012631  0.0723201 0.9200
 17  -2617.1054099059  -0.041535470119 0.00931474  0.00011763  0.0665427 0.9200
 18  -2617.1448232191  -0.039413313247 0.00857609  0.00010957  0.0612273 0.9200
 19  -2617.1822211821  -0.037397963015 0.00791714  0.00010248  0.0563417 0.9200
               *** Restarting incremental Fock matrix formation ***
                                   *** Resetting DIIS ***
 20  -2617.2177407839  -0.035519601706 0.00694446  0.00008995  0.0518480 0.9200
 21  -2617.2513193078  -0.033578523918 0.00642490  0.00008235  0.0477439 0.9200
 22  -2617.2827841595  -0.031464851755 0.00605692  0.00007742  0.0439583 0.9200
 23  -2617.3121635656  -0.029379406099 0.00570493  0.00007395  0.0404605 0.9200
 24  -2617.3395573201  -0.027393754515 0.00533562  0.00007083  0.0372334 0.9200
 25  -2617.3651041696  -0.025546849501 0.00493197  0.00006712  0.0342613 0.9200
 26  -2617.3889684061  -0.023864236414 0.00456606  0.00006357  0.0315299 0.9200
 27  -2617.4112354212  -0.022267015155 0.00423308  0.00006015  0.0290166 0.9200
 28  -2617.4320006136  -0.020765192416 0.00392035  0.00005678  0.0267020 0.9200
 29  -2617.4513653206  -0.019364706927 0.00362377  0.00005346  0.0245705 0.9200
 30  -2617.4694247764  -0.018059455866 0.00334464  0.00005029  0.0226089 0.9200
 31  -2617.4862611003  -0.016836323911 0.00308679  0.00004729  0.0208043 0.9200
 32  -2617.5019462928  -0.015685192486 0.00285032  0.00004448  0.0191442 0.9200
 33  -2617.5165497229  -0.014603430057 0.00263258  0.00004180  0.0176166 0.9200
 34  -2617.5301394615  -0.013589738667 0.00243106  0.00003926  0.0162107 0.9200
 35  -2617.5427803873  -0.012640925760 0.00224432  0.00003686  0.0149169 0.9200
 36  -2617.5545330043  -0.011752617007 0.00207174  0.00003460  0.0137263 0.9200
 37  -2617.5654537836  -0.010920779304 0.00191268  0.00003248  0.0126309 0.9200
 38  -2617.5755962014  -0.010142417788 0.00176613  0.00003049  0.0116229 0.9200
 39  -2617.5850112492  -0.009415047829 0.00163092  0.00002866  0.0106954 0.9200
               *** Restarting incremental Fock matrix formation ***
                                   *** Resetting DIIS ***
 40  -2617.5937483434  -0.008737094200 0.00141610  0.00002324  0.0098419 0.9200
 41  -2617.6019138769  -0.008165533434 0.00130582  0.00002059  0.0090633 0.9200
 42  -2617.6094764665  -0.007562589620 0.00122942  0.00001948  0.0083454 0.9200
 43  -2617.6164684646  -0.006991998122 0.00116187  0.00001915  0.0076822 0.9200
 44  -2617.6229275476  -0.006459082971 0.00109259  0.00001899  0.0070700 0.9200
 45  -2617.6288925955  -0.005965047927 0.00101314  0.00001841  0.0065059 0.9200
 46  -2617.6344062765  -0.005513681039 0.00093996  0.00001776  0.0059873 0.9200
 47  -2617.6395025890  -0.005096312426 0.00087318  0.00001710  0.0055102 0.9200
 48  -2617.6442129222  -0.004710333266 0.00087628  0.00001639  0.0050708 0.9200
 49  -2617.6485668140  -0.004353891719 0.00085598  0.00001565  0.0046661 0.9200
 50  -2617.6525915817  -0.004024767793 0.00081678  0.00001490  0.0042937 0.9200
 51  -2617.6563121176  -0.003720535871 0.00077982  0.00001415  0.0039511 0.9200
 52  -2617.6597510603  -0.003438942726 0.00075111  0.00001344  0.0036359 0.9200
 53  -2617.6629292541  -0.003178193783 0.00072351  0.00001275  0.0033458 0.9200
 54  -2617.6658660855  -0.002936831394 0.00069130  0.00001208  0.0030789 0.9200
 55  -2617.6685795630  -0.002713477520 0.00819434  0.00014290  0.0028333 0.0000
 56  -2617.7008117830  -0.032232219939 0.00162584  0.00001665  0.0004859 0.0000
               *** Restarting incremental Fock matrix formation ***
                                   *** Resetting DIIS ***
 57  -2617.7004224504   0.000389332597 0.00564850  0.00011081  0.0005039 0.0000
 58  -2617.7005419377  -0.000119487313 0.00182347  0.00003874  0.0003857 0.0000
 59  -2617.7005660221  -0.000024084414 0.00073421  0.00001566  0.0005636 0.0000
 60  -2617.7005783534  -0.000012331300 0.00056963  0.00001014  0.0001734 0.0000
 61  -2617.7005860022  -0.000007648814 0.00050538  0.00000776  0.0001335 0.0000
 62  -2617.7005913273  -0.000005325059 0.00048978  0.00000760  0.0001208 0.0000
 63  -2617.7005956250  -0.000004297676 0.00046603  0.00000652  0.0001259 0.0000
 64  -2617.7005987635  -0.000003138505 0.00045223  0.00000584  0.0001290 0.0000
 65  -2617.7006013676  -0.000002604091 0.00038585  0.00000476  0.0001327 0.0000
 66  -2617.7006034266  -0.000002059028 0.00035096  0.00000418  0.0001344 0.0000
 67  -2617.7006053329  -0.000001906301 0.00024729  0.00000290  0.0001370 0.0000
 68  -2617.7006067383  -0.000001405448 0.00015128  0.00000174  0.0001375 0.0000
                 **** Energy Check signals convergence ****

               *****************************************************
               *                     SUCCESS                       *
               *           SCF CONVERGED AFTER  69 CYCLES          *
               *****************************************************

Old exchange energy                            =    -92.035147106 Eh
New exchange energy                            =    -92.035056646 Eh
Exchange energy change after final integration =      0.000090460 Eh
Total energy after final integration           =  -2617.700517086 Eh
Final COS-X integration done in                =     9.161 sec

----------------
TOTAL SCF ENERGY
----------------

Total Energy       :        -2617.70051709 Eh          -71231.25240 eV

Components:
Nuclear Repulsion  :         3139.86657179 Eh           85440.11311 eV
Electronic Energy  :        -5757.56708887 Eh         -156671.36551 eV
One Electron Energy:       -10407.86600031 Eh         -283212.43211 eV
Two Electron Energy:         4650.29891144 Eh          126541.06660 eV
Max COSX asymmetry :            0.00000707 Eh               0.00019 eV

Virial components:
Potential Energy   :        -4339.32808888 Eh         -118079.12032 eV
Kinetic Energy     :         1721.62757179 Eh           46847.86793 eV
Virial Ratio       :            2.52048013


DFT components:
N(Alpha)           :      109.999998926709 electrons
N(Beta)            :      105.999997425073 electrons
N(Total)           :      215.999996351782 electrons
E(X)               :      -82.830867646885 Eh       
E(C)               :       -5.981013919526 Eh       
E(XC)              :      -88.811881566411 Eh       
DFET-embed. en.    :        0.000000000000 Eh       

---------------
SCF CONVERGENCE
---------------

  Last Energy change         ...   -8.0770e-07  Tolerance :   1.0000e-06
  Last MAX-Density change    ...    0.0000e+00  Tolerance :   1.0000e-05
  Last RMS-Density change    ...    0.0000e+00  Tolerance :   1.0000e-06
  Last DIIS Error            ...    1.3605e-04  Tolerance :   1.0000e-06

             **** THE GBW FILE WAS UPDATED (b2plyp.gbw) ****
             **** DENSITY b2plyp.scfp WAS UPDATED ****
             **** ENERGY FILE WAS UPDATED (b2plyp.en.tmp) ****
----------------------
UHF SPIN CONTAMINATION
----------------------

Warning: in a DFT calculation there is little theoretical justification to 
         calculate <S**2> as in Hartree-Fock theory. We will do it anyways
         but you should keep in mind that the values have only limited relevance

Expectation value of <S**2>     :     6.048959
Ideal value S*(S+1) for S=2.0   :     6.000000
Deviation                       :     0.048959

             **** THE GBW FILE WAS UPDATED (b2plyp.gbw) ****
             **** DENSITY b2plyp.scfp WAS UPDATED ****
----------------
ORBITAL ENERGIES
----------------
                 SPIN UP ORBITALS
  NO   OCC          E(Eh)            E(eV) 
   0   1.0000    -258.345680     -7029.9433 
   1   1.0000     -30.912231      -841.1646 
   2   1.0000     -26.628832      -724.6074 
   3   1.0000     -26.601032      -723.8509 
   4   1.0000     -26.600070      -723.8247 
   5   1.0000      -4.400717      -119.7496 
   6   1.0000      -4.400584      -119.7460 
   7   1.0000      -4.399802      -119.7247 
   8   1.0000      -4.399724      -119.7226 
   9   1.0000      -4.396115      -119.6244 
  10   1.0000      -4.395310      -119.6025 
  11   1.0000      -4.389824      -119.4532 
  12   1.0000      -4.389415      -119.4420 
  13   1.0000      -4.382831      -119.2629 
  14   1.0000      -4.382774      -119.2613 
  15   1.0000      -3.924749      -106.7978 
  16   1.0000      -2.671793       -72.7032 
  17   1.0000      -2.614107       -71.1335 
  18   1.0000      -2.612266       -71.0834 
  19   1.0000      -2.523224       -68.6604 
  20   1.0000      -2.522256       -68.6341 
  21   1.0000      -2.522176       -68.6319 
  22   1.0000      -2.521877       -68.6238 
  23   1.0000      -2.521533       -68.6144 
  24   1.0000      -2.521045       -68.6011 
  25   1.0000      -2.517825       -68.5135 
  26   1.0000      -2.517650       -68.5087 
  27   1.0000      -2.515645       -68.4542 
  28   1.0000      -2.514921       -68.4345 
  29   1.0000      -2.514824       -68.4318 
  30   1.0000      -2.514090       -68.4119 
  31   1.0000      -2.513980       -68.4089 
  32   1.0000      -2.512631       -68.3722 
  33   1.0000      -2.512564       -68.3703 
  34   1.0000      -2.511430       -68.3395 
  35   1.0000      -2.510553       -68.3156 
  36   1.0000      -2.508645       -68.2637 
  37   1.0000      -2.508030       -68.2470 
  38   1.0000      -2.507714       -68.2384 
  39   1.0000      -2.507212       -68.2247 
  40   1.0000      -2.505627       -68.1816 
  41   1.0000      -2.501223       -68.0617 
  42   1.0000      -2.500721       -68.0481 
  43   1.0000      -2.500590       -68.0445 
  44   1.0000      -2.500057       -68.0300 
  45   1.0000      -2.497647       -67.9644 
  46   1.0000      -2.497375       -67.9570 
  47   1.0000      -2.497326       -67.9557 
  48   1.0000      -2.497298       -67.9549 
  49   1.0000      -0.567518       -15.4429 
  50   1.0000      -0.559786       -15.2326 
  51   1.0000      -0.559603       -15.2276 
  52   1.0000      -0.543357       -14.7855 
  53   1.0000      -0.512303       -13.9405 
  54   1.0000      -0.486128       -13.2282 
  55   1.0000      -0.474874       -12.9220 
  56   1.0000      -0.466313       -12.6890 
  57   1.0000      -0.458200       -12.4683 
  58   1.0000      -0.456035       -12.4093 
  59   1.0000      -0.453216       -12.3326 
  60   1.0000      -0.445630       -12.1262 
  61   1.0000      -0.443327       -12.0635 
  62   1.0000      -0.443222       -12.0607 
  63   1.0000      -0.436719       -11.8837 
  64   1.0000      -0.434195       -11.8150 
  65   1.0000      -0.433433       -11.7943 
  66   1.0000      -0.429583       -11.6896 
  67   1.0000      -0.422066       -11.4850 
  68   1.0000      -0.419296       -11.4096 
  69   1.0000      -0.413520       -11.2525 
  70   1.0000      -0.408165       -11.1067 
  71   1.0000      -0.404670       -11.0116 
  72   1.0000      -0.403368       -10.9762 
  73   1.0000      -0.400544       -10.8994 
  74   1.0000      -0.397112       -10.8060 
  75   1.0000      -0.391416       -10.6510 
  76   1.0000      -0.387590       -10.5469 
  77   1.0000      -0.387195       -10.5361 
  78   1.0000      -0.383915       -10.4469 
  79   1.0000      -0.382481       -10.4078 
  80   1.0000      -0.381425       -10.3791 
  81   1.0000      -0.380951       -10.3662 
  82   1.0000      -0.375995       -10.2314 
  83   1.0000      -0.373293       -10.1578 
  84   1.0000      -0.372793       -10.1442 
  85   1.0000      -0.371280       -10.1030 
  86   1.0000      -0.368840       -10.0367 
  87   1.0000      -0.368321       -10.0225 
  88   1.0000      -0.364352        -9.9145 
  89   1.0000      -0.364120        -9.9082 
  90   1.0000      -0.360431        -9.8078 
  91   1.0000      -0.359660        -9.7869 
  92   1.0000      -0.359318        -9.7775 
  93   1.0000      -0.359008        -9.7691 
  94   1.0000      -0.358475        -9.7546 
  95   1.0000      -0.357231        -9.7207 
  96   1.0000      -0.354287        -9.6406 
  97   1.0000      -0.350956        -9.5500 
  98   1.0000      -0.346267        -9.4224 
  99   1.0000      -0.342358        -9.3160 
 100   1.0000      -0.341370        -9.2892 
 101   1.0000      -0.335345        -9.1252 
 102   1.0000      -0.329564        -8.9679 
 103   1.0000      -0.328360        -8.9351 
 104   1.0000      -0.324028        -8.8172 
 105   1.0000      -0.316978        -8.6254 
 106   1.0000      -0.288425        -7.8484 
 107   1.0000      -0.276601        -7.5267 
 108   1.0000      -0.242090        -6.5876 
 109   1.0000      -0.193744        -5.2720 
 110   0.0000      -0.116458        -3.1690 
 111   0.0000      -0.077251        -2.1021 
 112   0.0000      -0.063240        -1.7208 
 113   0.0000      -0.054392        -1.4801 
 114   0.0000      -0.038209        -1.0397 
 115   0.0000      -0.023142        -0.6297 
 116   0.0000      -0.005958        -0.1621 
 117   0.0000      -0.001066        -0.0290 
 118   0.0000       0.011765         0.3201 
 119   0.0000       0.015356         0.4178 
 120   0.0000       0.026958         0.7336 
 121   0.0000       0.028092         0.7644 
 122   0.0000       0.031080         0.8457 
 123   0.0000       0.045187         1.2296 
 124   0.0000       0.056182         1.5288 
 125   0.0000       0.072461         1.9718 
 126   0.0000       0.078748         2.1429 
 127   0.0000       0.088584         2.4105 
 128   0.0000       0.089755         2.4423 
 129   0.0000       0.089946         2.4475 
 130   0.0000       0.095706         2.6043 
 131   0.0000       0.100897         2.7456 
 132   0.0000       0.102025         2.7763 
 133   0.0000       0.108687         2.9575 
 134   0.0000       0.109955         2.9920 
 135   0.0000       0.123681         3.3655 
 136   0.0000       0.128590         3.4991 
 137   0.0000       0.130305         3.5458 
 138   0.0000       0.146354         3.9825 
 139   0.0000       0.146630         3.9900 
 140   0.0000       0.156108         4.2479 
 141   0.0000       0.161118         4.3843 
 142   0.0000       0.171698         4.6721 
 143   0.0000       0.192901         5.2491 
 144   0.0000       0.203410         5.5351 
 145   0.0000       0.209705         5.7064 
 146   0.0000       0.212222         5.7749 
 147   0.0000       0.215676         5.8688 
 148   0.0000       0.231582         6.3017 
 149   0.0000       0.239551         6.5185 
 150   0.0000       0.240748         6.5511 
 151   0.0000       0.246045         6.6952 
 152   0.0000       0.257660         7.0113 
 153   0.0000       0.265046         7.2123 
 154   0.0000       0.282537         7.6882 
 155   0.0000       0.290007         7.8915 
 156   0.0000       0.298869         8.1326 
 157   0.0000       0.303989         8.2720 
 158   0.0000       0.306029         8.3275 
 159   0.0000       0.310620         8.4524 
 160   0.0000       0.314956         8.5704 
 161   0.0000       0.317927         8.6512 
 162   0.0000       0.326104         8.8737 
 163   0.0000       0.349468         9.5095 
 164   0.0000       0.351938         9.5767 
 165   0.0000       0.355466         9.6727 
 166   0.0000       0.362356         9.8602 
 167   0.0000       0.365160         9.9365 
 168   0.0000       0.370149        10.0723 
 169   0.0000       0.373991        10.1768 
 170   0.0000       0.376439        10.2434 
 171   0.0000       0.389087        10.5876 
 172   0.0000       0.390918        10.6374 
 173   0.0000       0.401109        10.9147 
 174   0.0000       0.402270        10.9463 
 175   0.0000       0.403171        10.9708 
 176   0.0000       0.419803        11.4234 
 177   0.0000       0.423626        11.5274 
 178   0.0000       0.424001        11.5377 
 179   0.0000       0.429275        11.6812 
 180   0.0000       0.430347        11.7103 
 181   0.0000       0.434818        11.8320 
 182   0.0000       0.443748        12.0750 
 183   0.0000       0.445033        12.1100 
 184   0.0000       0.450997        12.2722 
 185   0.0000       0.458953        12.4887 
 186   0.0000       0.464595        12.6423 
 187   0.0000       0.473608        12.8875 
 188   0.0000       0.478727        13.0268 
 189   0.0000       0.487438        13.2639 
 190   0.0000       0.493761        13.4359 
 191   0.0000       0.500739        13.6258 
 192   0.0000       0.504839        13.7374 
 193   0.0000       0.513040        13.9605 
 194   0.0000       0.518378        14.1058 
 195   0.0000       0.521779        14.1983 
 196   0.0000       0.525891        14.3102 
 197   0.0000       0.534033        14.5318 
 198   0.0000       0.544701        14.8221 
 199   0.0000       0.546483        14.8706 
 200   0.0000       0.547651        14.9023 
 201   0.0000       0.552768        15.0416 
 202   0.0000       0.569081        15.4855 
 203   0.0000       0.576304        15.6820 
 204   0.0000       0.580602        15.7990 
 205   0.0000       0.581712        15.8292 
 206   0.0000       0.582511        15.8509 
 207   0.0000       0.597650        16.2629 
 208   0.0000       0.599588        16.3156 
 209   0.0000       0.609594        16.5879 
 210   0.0000       0.610495        16.6124 
 211   0.0000       0.622719        16.9450 
 212   0.0000       0.664836        18.0911 
 213   0.0000       0.665574        18.1112 
 214   0.0000       0.690468        18.7886 
 215   0.0000       0.734495        19.9866 
 216   0.0000       0.740216        20.1423 
 217   0.0000       0.750094        20.4111 
 218   0.0000       0.756361        20.5816 
 219   0.0000       0.796028        21.6610 
 220   0.0000       0.805640        21.9226 
 221   0.0000       0.812754        22.1162 
 222   0.0000       0.819753        22.3066 
 223   0.0000       0.823019        22.3955 
 224   0.0000       0.843576        22.9549 
 225   0.0000       0.852941        23.2097 
 226   0.0000       0.878436        23.9035 
 227   0.0000       0.894370        24.3371 
 228   0.0000       0.935427        25.4543 
 229   0.0000       0.940582        25.5945 
 230   0.0000       0.968929        26.3659 
 231   0.0000       0.992026        26.9944 
 232   0.0000       0.996512        27.1165 
 233   0.0000       1.017180        27.6789 
 234   0.0000       1.030440        28.0397 
 235   0.0000       1.046378        28.4734 
 236   0.0000       1.052413        28.6376 
 237   0.0000       1.064834        28.9756 
 238   0.0000       1.072162        29.1750 
 239   0.0000       1.074559        29.2402 
 240   0.0000       1.079967        29.3874 
 241   0.0000       1.093280        29.7497 
 242   0.0000       1.094767        29.7901 
 243   0.0000       1.123186        30.5635 
 244   0.0000       1.132896        30.8277 
 245   0.0000       1.178333        32.0641 
 246   0.0000       1.182897        32.1883 
 247   0.0000       1.232897        33.5488 
 248   0.0000       1.241678        33.7878 
 249   0.0000       1.384619        37.6774 
 250   0.0000       1.399269        38.0760 
 251   0.0000       1.416658        38.5492 
 252   0.0000       1.436902        39.1001 
 253   0.0000       1.458998        39.7014 
 254   0.0000       1.459169        39.7060 
 255   0.0000       1.493007        40.6268 
 256   0.0000       1.496789        40.7297 
 257   0.0000       1.497364        40.7453 
 258   0.0000       1.518703        41.3260 
 259   0.0000       1.525314        41.5059 
 260   0.0000       1.525353        41.5070 
 261   0.0000       1.534438        41.7542 
 262   0.0000       1.548445        42.1353 
 263   0.0000       1.554259        42.2935 
 264   0.0000       1.567957        42.6663 
 265   0.0000       1.568743        42.6877 
 266   0.0000       1.577860        42.9357 
 267   0.0000       1.579784        42.9881 
 268   0.0000       1.581130        43.0247 
 269   0.0000       1.593089        43.3502 
 270   0.0000       1.597205        43.4622 
 271   0.0000       1.604102        43.6498 
 272   0.0000       1.605183        43.6793 
 273   0.0000       1.611514        43.8515 
 274   0.0000       1.613206        43.8976 
 275   0.0000       1.623493        44.1775 
 276   0.0000       1.627235        44.2793 
 277   0.0000       1.633697        44.4552 
 278   0.0000       1.641457        44.6663 
 279   0.0000       1.645288        44.7706 
 280   0.0000       1.648817        44.8666 
 281   0.0000       1.660358        45.1806 
 282   0.0000       1.663067        45.2544 
 283   0.0000       1.667590        45.3774 
 284   0.0000       1.669782        45.4371 
 285   0.0000       1.671507        45.4840 
 286   0.0000       1.672532        45.5119 
 287   0.0000       1.673117        45.5278 
 288   0.0000       1.677320        45.6422 
 289   0.0000       1.680432        45.7269 
 290   0.0000       1.681555        45.7574 
 291   0.0000       1.682720        45.7891 
 292   0.0000       1.688429        45.9445 
 293   0.0000       1.689299        45.9682 
 294   0.0000       1.692051        46.0431 
 295   0.0000       1.692399        46.0525 
 296   0.0000       1.692562        46.0570 
 297   0.0000       1.692773        46.0627 
 298   0.0000       1.696602        46.1669 
 299   0.0000       1.698091        46.2074 
 300   0.0000       1.700841        46.2822 
 301   0.0000       1.704489        46.3815 
 302   0.0000       1.706124        46.4260 
 303   0.0000       1.706157        46.4269 
 304   0.0000       1.712365        46.5958 
 305   0.0000       1.714901        46.6648 
 306   0.0000       1.715410        46.6787 
 307   0.0000       1.715806        46.6895 
 308   0.0000       1.716226        46.7009 
 309   0.0000       1.718124        46.7525 
 310   0.0000       1.718527        46.7635 
 311   0.0000       1.718996        46.7763 
 312   0.0000       1.723215        46.8911 
 313   0.0000       1.723671        46.9035 
 314   0.0000       1.725167        46.9442 
 315   0.0000       1.726116        46.9700 
 316   0.0000       1.729451        47.0607 
 317   0.0000       1.732704        47.1493 
 318   0.0000       1.735253        47.2186 
 319   0.0000       1.739254        47.3275 
 320   0.0000       1.741971        47.4014 
 321   0.0000       1.745996        47.5110 
 322   0.0000       1.747815        47.5605 
 323   0.0000       1.750333        47.6290 
 324   0.0000       1.751718        47.6667 
 325   0.0000       1.752737        47.6944 
 326   0.0000       1.755759        47.7766 
 327   0.0000       1.758773        47.8587 
 328   0.0000       1.759237        47.8713 
 329   0.0000       1.765433        48.0399 
 330   0.0000       1.770169        48.1688 
 331   0.0000       1.772611        48.2352 
 332   0.0000       1.772919        48.2436 
 333   0.0000       1.775233        48.3066 
 334   0.0000       1.775556        48.3153 
 335   0.0000       1.780350        48.4458 
 336   0.0000       1.784488        48.5584 
 337   0.0000       1.788519        48.6681 
 338   0.0000       1.792360        48.7726 
 339   0.0000       1.792661        48.7808 
 340   0.0000       1.796526        48.8860 
 341   0.0000       1.801457        49.0201 
 342   0.0000       1.804642        49.1068 
 343   0.0000       1.808360        49.2080 
 344   0.0000       1.812913        49.3319 
 345   0.0000       1.825735        49.6808 
 346   0.0000       1.827865        49.7387 
 347   0.0000       1.836187        49.9652 
 348   0.0000       1.845870        50.2287 
 349   0.0000       1.853958        50.4488 
 350   0.0000       1.866464        50.7891 
 351   0.0000       1.879292        51.1381 
 352   0.0000       1.880086        51.1598 
 353   0.0000       1.881167        51.1892 
 354   0.0000       1.895727        51.5854 
 355   0.0000       1.922796        52.3219 
 356   0.0000       1.923676        52.3459 
 357   0.0000       2.005531        54.5733 
 358   0.0000       2.006923        54.6112 
 359   0.0000       2.034547        55.3628 
 360   0.0000       2.038223        55.4629 
 361   0.0000       2.079405        56.5835 
 362   0.0000       2.082773        56.6751 
 363   0.0000       2.093309        56.9618 
 364   0.0000       2.115693        57.5709 
 365   0.0000       2.130130        57.9638 
 366   0.0000       2.172441        59.1151 
 367   0.0000       2.177759        59.2598 
 368   0.0000       2.183248        59.4092 
 369   0.0000       2.319668        63.1214 
 370   0.0000       2.333232        63.4905 
 371   0.0000       2.383663        64.8628 
 372   0.0000       2.442065        66.4520 
 373   0.0000       2.544665        69.2439 
 374   0.0000       2.564164        69.7744 
 375   0.0000       2.614570        71.1461 
 376   0.0000       2.614989        71.1575 
 377   0.0000       2.657388        72.3112 
 378   0.0000       2.689366        73.1814 
 379   0.0000       2.727203        74.2110 
 380   0.0000       2.735536        74.4377 
 381   0.0000       2.773009        75.4574 
 382   0.0000       3.301526        89.8391 
 383   0.0000       3.749728       102.0353 
 384   0.0000       3.800234       103.4096 
 385   0.0000       3.830876       104.2434 
 386   0.0000       3.892894       105.9310 
 387   0.0000       3.915359       106.5423 
 388   0.0000       4.088976       111.2667 
 389   0.0000       4.096124       111.4612 
 390   0.0000       4.113005       111.9205 
 391   0.0000       4.117527       112.0436 
 392   0.0000       4.120146       112.1149 
 393   0.0000       4.144813       112.7861 
 394   0.0000       4.154833       113.0588 
 395   0.0000      23.738077       645.9459 
 396   0.0000      23.780086       647.0890 
 397   0.0000      23.843907       648.8257 
 398   0.0000      24.173329       657.7897 
 399   0.0000      24.194321       658.3610 
 400   0.0000      24.612129       669.7301 
 401   0.0000      24.716071       672.5585 
 402   0.0000      24.793111       674.6548 
 403   0.0000      24.822874       675.4648 
 404   0.0000      24.912692       677.9088 
 405   0.0000      25.251068       687.1165 
 406   0.0000      25.512486       694.2300 
 407   0.0000      25.727957       700.0933 
 408   0.0000      25.946471       706.0394 
 409   0.0000      26.263799       714.6743 
 410   0.0000      26.377033       717.7556 
 411   0.0000      26.477510       720.4897 
 412   0.0000      26.546697       722.3723 
 413   0.0000      26.745560       727.7837 
 414   0.0000      26.949294       733.3276 
 415   0.0000      27.051420       736.1066 
 416   0.0000      27.260932       741.8077 
 417   0.0000      27.446913       746.8685 
 418   0.0000      27.769468       755.6456 
 419   0.0000      27.835792       757.4504 
 420   0.0000      28.196186       767.2572 
 421   0.0000      28.413707       773.1763 
 422   0.0000      28.509956       775.7953 
 423   0.0000      28.571804       777.4783 
 424   0.0000      29.396174       799.9106 
 425   0.0000      44.047995      1198.6069 
 426   0.0000      44.154250      1201.4982 
 427   0.0000      44.205715      1202.8987 
 428   0.0000      44.214592      1203.1402 
 429   0.0000      44.266680      1204.5576 
 430   0.0000      44.300544      1205.4791 
 431   0.0000      44.338457      1206.5107 
 432   0.0000      44.343177      1206.6392 
 433   0.0000      44.373675      1207.4691 
 434   0.0000      44.396445      1208.0887 
 435   0.0000     202.650132      5514.3904 
 436   0.0000     202.689628      5515.4652 
 437   0.0000     202.711271      5516.0541 
 438   0.0000     202.711653      5516.0645 
 439   0.0000     202.740303      5516.8441 
 440   0.0000     202.753249      5517.1964 
 441   0.0000     202.764869      5517.5126 
 442   0.0000     202.770719      5517.6718 
 443   0.0000     202.780277      5517.9319 
 444   0.0000     202.792141      5518.2547 

                 SPIN DOWN ORBITALS
  NO   OCC          E(Eh)            E(eV) 
   0   1.0000    -258.343548     -7029.8853 
   1   1.0000     -30.816688      -838.5647 
   2   1.0000     -26.527534      -721.8509 
   3   1.0000     -26.520521      -721.6601 
   4   1.0000     -26.520102      -721.6487 
   5   1.0000      -4.400000      -119.7301 
   6   1.0000      -4.399865      -119.7264 
   7   1.0000      -4.399043      -119.7040 
   8   1.0000      -4.398952      -119.7016 
   9   1.0000      -4.395018      -119.5945 
  10   1.0000      -4.394106      -119.5697 
  11   1.0000      -4.387999      -119.4035 
  12   1.0000      -4.387588      -119.3923 
  13   1.0000      -4.382649      -119.2579 
  14   1.0000      -4.382588      -119.2563 
  15   1.0000      -3.673983       -99.9742 
  16   1.0000      -2.522445       -68.6392 
  17   1.0000      -2.521398       -68.6107 
  18   1.0000      -2.521168       -68.6045 
  19   1.0000      -2.520466       -68.5854 
  20   1.0000      -2.520358       -68.5824 
  21   1.0000      -2.519693       -68.5643 
  22   1.0000      -2.516669       -68.4820 
  23   1.0000      -2.516563       -68.4792 
  24   1.0000      -2.513621       -68.3991 
  25   1.0000      -2.513416       -68.3935 
  26   1.0000      -2.513319       -68.3909 
  27   1.0000      -2.512735       -68.3750 
  28   1.0000      -2.512277       -68.3625 
  29   1.0000      -2.512022       -68.3556 
  30   1.0000      -2.511944       -68.3535 
  31   1.0000      -2.510720       -68.3202 
  32   1.0000      -2.509693       -68.2922 
  33   1.0000      -2.506572       -68.2073 
  34   1.0000      -2.505755       -68.1851 
  35   1.0000      -2.505268       -68.1718 
  36   1.0000      -2.504977       -68.1639 
  37   1.0000      -2.504097       -68.1399 
  38   1.0000      -2.500968       -68.0548 
  39   1.0000      -2.500041       -68.0296 
  40   1.0000      -2.499316       -68.0098 
  41   1.0000      -2.498675       -67.9924 
  42   1.0000      -2.497637       -67.9641 
  43   1.0000      -2.497266       -67.9540 
  44   1.0000      -2.497212       -67.9526 
  45   1.0000      -2.497057       -67.9484 
  46   1.0000      -2.352262       -64.0083 
  47   1.0000      -2.350700       -63.9658 
  48   1.0000      -2.336310       -63.5742 
  49   1.0000      -0.482750       -13.1363 
  50   1.0000      -0.473791       -12.8925 
  51   1.0000      -0.468149       -12.7390 
  52   1.0000      -0.462255       -12.5786 
  53   1.0000      -0.458784       -12.4842 
  54   1.0000      -0.457733       -12.4556 
  55   1.0000      -0.454922       -12.3790 
  56   1.0000      -0.453022       -12.3274 
  57   1.0000      -0.442574       -12.0430 
  58   1.0000      -0.438596       -11.9348 
  59   1.0000      -0.434369       -11.8198 
  60   1.0000      -0.433958       -11.8086 
  61   1.0000      -0.427983       -11.6460 
  62   1.0000      -0.426951       -11.6179 
  63   1.0000      -0.419358       -11.4113 
  64   1.0000      -0.418719       -11.3939 
  65   1.0000      -0.418388       -11.3849 
  66   1.0000      -0.417833       -11.3698 
  67   1.0000      -0.410869       -11.1803 
  68   1.0000      -0.406938       -11.0733 
  69   1.0000      -0.404748       -11.0137 
  70   1.0000      -0.398764       -10.8509 
  71   1.0000      -0.394195       -10.7266 
  72   1.0000      -0.387521       -10.5450 
  73   1.0000      -0.386912       -10.5284 
  74   1.0000      -0.383713       -10.4414 
  75   1.0000      -0.381879       -10.3915 
  76   1.0000      -0.381073       -10.3695 
  77   1.0000      -0.378051       -10.2873 
  78   1.0000      -0.374225       -10.1832 
  79   1.0000      -0.373156       -10.1541 
  80   1.0000      -0.371939       -10.1210 
  81   1.0000      -0.370690       -10.0870 
  82   1.0000      -0.367645       -10.0041 
  83   1.0000      -0.367163        -9.9910 
  84   1.0000      -0.363689        -9.8965 
  85   1.0000      -0.361620        -9.8402 
  86   1.0000      -0.359643        -9.7864 
  87   1.0000      -0.358901        -9.7662 
  88   1.0000      -0.358840        -9.7645 
  89   1.0000      -0.357760        -9.7351 
  90   1.0000      -0.356677        -9.7057 
  91   1.0000      -0.353495        -9.6191 
  92   1.0000      -0.350477        -9.5370 
  93   1.0000      -0.346218        -9.4211 
  94   1.0000      -0.342562        -9.3216 
  95   1.0000      -0.342186        -9.3113 
  96   1.0000      -0.335824        -9.1382 
  97   1.0000      -0.329584        -8.9684 
  98   1.0000      -0.328375        -8.9355 
  99   1.0000      -0.325903        -8.8683 
 100   1.0000      -0.317148        -8.6300 
 101   1.0000      -0.316062        -8.6005 
 102   1.0000      -0.291662        -7.9365 
 103   1.0000      -0.281046        -7.6477 
 104   1.0000      -0.246541        -6.7087 
 105   1.0000      -0.199410        -5.4262 
 106   0.0000      -0.111839        -3.0433 
 107   0.0000      -0.075708        -2.0601 
 108   0.0000      -0.062171        -1.6918 
 109   0.0000      -0.059858        -1.6288 
 110   0.0000      -0.037881        -1.0308 
 111   0.0000      -0.030215        -0.8222 
 112   0.0000      -0.012218        -0.3325 
 113   0.0000      -0.004174        -0.1136 
 114   0.0000      -0.003142        -0.0855 
 115   0.0000       0.000853         0.0232 
 116   0.0000       0.008475         0.2306 
 117   0.0000       0.015162         0.4126 
 118   0.0000       0.015659         0.4261 
 119   0.0000       0.033638         0.9153 
 120   0.0000       0.039574         1.0769 
 121   0.0000       0.050758         1.3812 
 122   0.0000       0.052231         1.4213 
 123   0.0000       0.059215         1.6113 
 124   0.0000       0.059453         1.6178 
 125   0.0000       0.074586         2.0296 
 126   0.0000       0.080975         2.2034 
 127   0.0000       0.090619         2.4659 
 128   0.0000       0.091595         2.4924 
 129   0.0000       0.097249         2.6463 
 130   0.0000       0.099210         2.6996 
 131   0.0000       0.102043         2.7767 
 132   0.0000       0.105046         2.8584 
 133   0.0000       0.111663         3.0385 
 134   0.0000       0.115168         3.1339 
 135   0.0000       0.123802         3.3688 
 136   0.0000       0.131868         3.5883 
 137   0.0000       0.132677         3.6103 
 138   0.0000       0.146525         3.9872 
 139   0.0000       0.147108         4.0030 
 140   0.0000       0.158229         4.3056 
 141   0.0000       0.165376         4.5001 
 142   0.0000       0.172071         4.6823 
 143   0.0000       0.192807         5.2465 
 144   0.0000       0.208064         5.6617 
 145   0.0000       0.214899         5.8477 
 146   0.0000       0.221070         6.0156 
 147   0.0000       0.224674         6.1137 
 148   0.0000       0.237868         6.4727 
 149   0.0000       0.250521         6.8170 
 150   0.0000       0.255975         6.9654 
 151   0.0000       0.256541         6.9808 
 152   0.0000       0.269517         7.3339 
 153   0.0000       0.276897         7.5347 
 154   0.0000       0.285763         7.7760 
 155   0.0000       0.297871         8.1055 
 156   0.0000       0.305709         8.3188 
 157   0.0000       0.306610         8.3433 
 158   0.0000       0.310491         8.4489 
 159   0.0000       0.317341         8.6353 
 160   0.0000       0.318173         8.6579 
 161   0.0000       0.327511         8.9120 
 162   0.0000       0.331689         9.0257 
 163   0.0000       0.351512         9.5651 
 164   0.0000       0.351935         9.5766 
 165   0.0000       0.355931         9.6854 
 166   0.0000       0.363353         9.8873 
 167   0.0000       0.364860         9.9284 
 168   0.0000       0.370924        10.0934 
 169   0.0000       0.375648        10.2219 
 170   0.0000       0.379080        10.3153 
 171   0.0000       0.390132        10.6160 
 172   0.0000       0.390891        10.6367 
 173   0.0000       0.401267        10.9190 
 174   0.0000       0.403600        10.9825 
 175   0.0000       0.403924        10.9913 
 176   0.0000       0.420252        11.4356 
 177   0.0000       0.423678        11.5289 
 178   0.0000       0.424589        11.5536 
 179   0.0000       0.429787        11.6951 
 180   0.0000       0.432319        11.7640 
 181   0.0000       0.435147        11.8410 
 182   0.0000       0.444376        12.0921 
 183   0.0000       0.445158        12.1134 
 184   0.0000       0.452383        12.3100 
 185   0.0000       0.459764        12.5108 
 186   0.0000       0.465779        12.6745 
 187   0.0000       0.473643        12.8885 
 188   0.0000       0.480159        13.0658 
 189   0.0000       0.488305        13.2875 
 190   0.0000       0.495400        13.4805 
 191   0.0000       0.500869        13.6293 
 192   0.0000       0.506270        13.7763 
 193   0.0000       0.516124        14.0444 
 194   0.0000       0.519383        14.1331 
 195   0.0000       0.526020        14.3137 
 196   0.0000       0.526157        14.3175 
 197   0.0000       0.534887        14.5550 
 198   0.0000       0.546059        14.8590 
 199   0.0000       0.547857        14.9079 
 200   0.0000       0.549593        14.9552 
 201   0.0000       0.555560        15.1176 
 202   0.0000       0.572406        15.5759 
 203   0.0000       0.577864        15.7245 
 204   0.0000       0.581165        15.8143 
 205   0.0000       0.582898        15.8615 
 206   0.0000       0.584831        15.9141 
 207   0.0000       0.598418        16.2838 
 208   0.0000       0.609817        16.5940 
 209   0.0000       0.611820        16.6485 
 210   0.0000       0.612995        16.6804 
 211   0.0000       0.622853        16.9487 
 212   0.0000       0.666550        18.1377 
 213   0.0000       0.667814        18.1721 
 214   0.0000       0.698771        19.0145 
 215   0.0000       0.745846        20.2955 
 216   0.0000       0.758275        20.6337 
 217   0.0000       0.761012        20.7082 
 218   0.0000       0.766688        20.8626 
 219   0.0000       0.799770        21.7629 
 220   0.0000       0.815890        22.2015 
 221   0.0000       0.816352        22.2141 
 222   0.0000       0.831715        22.6321 
 223   0.0000       0.834613        22.7110 
 224   0.0000       0.843878        22.9631 
 225   0.0000       0.857231        23.3264 
 226   0.0000       0.880422        23.9575 
 227   0.0000       0.904439        24.6110 
 228   0.0000       0.939619        25.5683 
 229   0.0000       0.951288        25.8859 
 230   0.0000       0.973904        26.5013 
 231   0.0000       0.992337        27.0029 
 232   0.0000       1.001842        27.2615 
 233   0.0000       1.017710        27.6933 
 234   0.0000       1.048509        28.5314 
 235   0.0000       1.051417        28.6105 
 236   0.0000       1.074970        29.2514 
 237   0.0000       1.075898        29.2767 
 238   0.0000       1.077529        29.3211 
 239   0.0000       1.090287        29.6682 
 240   0.0000       1.098206        29.8837 
 241   0.0000       1.105036        30.0696 
 242   0.0000       1.114230        30.3197 
 243   0.0000       1.139598        31.0100 
 244   0.0000       1.152693        31.3664 
 245   0.0000       1.189440        32.3663 
 246   0.0000       1.195243        32.5242 
 247   0.0000       1.239828        33.7374 
 248   0.0000       1.244002        33.8510 
 249   0.0000       1.385533        37.7023 
 250   0.0000       1.400174        38.1007 
 251   0.0000       1.418342        38.5951 
 252   0.0000       1.436894        39.0999 
 253   0.0000       1.460034        39.7296 
 254   0.0000       1.461489        39.7691 
 255   0.0000       1.493712        40.6460 
 256   0.0000       1.497163        40.7399 
 257   0.0000       1.498282        40.7703 
 258   0.0000       1.520758        41.3819 
 259   0.0000       1.525449        41.5096 
 260   0.0000       1.527450        41.5640 
 261   0.0000       1.535424        41.7810 
 262   0.0000       1.548374        42.1334 
 263   0.0000       1.556326        42.3498 
 264   0.0000       1.568808        42.6894 
 265   0.0000       1.571815        42.7713 
 266   0.0000       1.578055        42.9411 
 267   0.0000       1.579972        42.9932 
 268   0.0000       1.582419        43.0598 
 269   0.0000       1.593869        43.3714 
 270   0.0000       1.598359        43.4936 
 271   0.0000       1.604275        43.6545 
 272   0.0000       1.608502        43.7696 
 273   0.0000       1.612825        43.8872 
 274   0.0000       1.615318        43.9550 
 275   0.0000       1.625396        44.2293 
 276   0.0000       1.628864        44.3236 
 277   0.0000       1.635006        44.4908 
 278   0.0000       1.641527        44.6682 
 279   0.0000       1.646232        44.7962 
 280   0.0000       1.648881        44.8683 
 281   0.0000       1.662844        45.2483 
 282   0.0000       1.665386        45.3175 
 283   0.0000       1.668007        45.3888 
 284   0.0000       1.670232        45.4493 
 285   0.0000       1.672712        45.5168 
 286   0.0000       1.673625        45.5417 
 287   0.0000       1.673928        45.5499 
 288   0.0000       1.677592        45.6496 
 289   0.0000       1.681686        45.7610 
 290   0.0000       1.683951        45.8226 
 291   0.0000       1.684365        45.8339 
 292   0.0000       1.689831        45.9826 
 293   0.0000       1.690896        46.0116 
 294   0.0000       1.692715        46.0611 
 295   0.0000       1.692972        46.0681 
 296   0.0000       1.693721        46.0885 
 297   0.0000       1.696112        46.1536 
 298   0.0000       1.698375        46.2151 
 299   0.0000       1.698531        46.2194 
 300   0.0000       1.701166        46.2911 
 301   0.0000       1.704956        46.3942 
 302   0.0000       1.706861        46.4460 
 303   0.0000       1.707064        46.4516 
 304   0.0000       1.713426        46.6247 
 305   0.0000       1.716270        46.7021 
 306   0.0000       1.716689        46.7135 
 307   0.0000       1.716811        46.7168 
 308   0.0000       1.717461        46.7345 
 309   0.0000       1.718674        46.7675 
 310   0.0000       1.719514        46.7904 
 311   0.0000       1.719942        46.8020 
 312   0.0000       1.724677        46.9309 
 313   0.0000       1.725091        46.9421 
 314   0.0000       1.725879        46.9636 
 315   0.0000       1.728181        47.0262 
 316   0.0000       1.730260        47.0828 
 317   0.0000       1.734040        47.1856 
 318   0.0000       1.736970        47.2653 
 319   0.0000       1.740668        47.3660 
 320   0.0000       1.743034        47.4304 
 321   0.0000       1.747112        47.5413 
 322   0.0000       1.748045        47.5667 
 323   0.0000       1.752139        47.6781 
 324   0.0000       1.753447        47.7137 
 325   0.0000       1.753728        47.7214 
 326   0.0000       1.757332        47.8194 
 327   0.0000       1.760124        47.8954 
 328   0.0000       1.760511        47.9059 
 329   0.0000       1.766243        48.0619 
 330   0.0000       1.770702        48.1833 
 331   0.0000       1.773885        48.2699 
 332   0.0000       1.774412        48.2842 
 333   0.0000       1.776170        48.3320 
 334   0.0000       1.776389        48.3380 
 335   0.0000       1.781393        48.4742 
 336   0.0000       1.785637        48.5897 
 337   0.0000       1.789387        48.6917 
 338   0.0000       1.792999        48.7900 
 339   0.0000       1.793051        48.7914 
 340   0.0000       1.798037        48.9271 
 341   0.0000       1.801827        49.0302 
[...]
      f0      :     0.000729  f :     0.005417
      f+1     :     0.000335
      f-1     :     0.000558
      f+2     :     0.000997
      f-2     :     0.001131
      f+3     :     0.000776
      f-3     :     0.000891
  9 Aus       :     2.594317  s :     2.594317
      pz      :     2.303412  p :     6.530740
      px      :     2.101565
      py      :     2.125763
      dz2     :     1.983697  d :     9.935176
      dxz     :     1.991497
      dyz     :     1.989024
      dx2y2   :     1.979955
      dxy     :     1.991003
      f0      :     0.001088  f :     0.005474
      f+1     :     0.000695
      f-1     :     0.001185
      f+2     :     0.000641
      f-2     :     0.000875
      f+3     :     0.000397
      f-3     :     0.000593
 10 Fes       :     6.357606  s :     6.357606
      pz      :     4.240576  p :    12.696902
      px      :     4.239554
      py      :     4.216771
      dz2     :     1.308035  d :     7.063060
      dxz     :     1.394139
      dyz     :     1.277004
      dx2y2   :     1.688909
      dxy     :     1.394972
      f0      :     0.000079  f :     0.000745
      f+1     :     0.000098
      f-1     :     0.000111
      f+2     :     0.000095
      f-2     :     0.000122
      f+3     :     0.000093
      f-3     :     0.000147

SPIN
  0 Aus       :    -0.084562  s :    -0.084562
      pz      :    -0.021162  p :    -0.058256
      px      :    -0.027514
      py      :    -0.009580
      dz2     :    -0.002358  d :    -0.023637
      dxz     :    -0.000753
      dyz     :    -0.010630
      dx2y2   :    -0.008851
      dxy     :    -0.001045
      f0      :    -0.000010  f :    -0.000085
      f+1     :    -0.000010
      f-1     :    -0.000004
      f+2     :    -0.000036
      f-2     :    -0.000006
      f+3     :    -0.000015
      f-3     :    -0.000004
  1 Aus       :    -0.167825  s :    -0.167825
      pz      :    -0.012898  p :    -0.061903
      px      :    -0.035832
      py      :    -0.013173
      dz2     :     0.002130  d :     0.000214
      dxz     :    -0.008338
      dyz     :     0.001828
      dx2y2   :     0.000900
      dxy     :     0.003694
      f0      :    -0.000008  f :    -0.000029
      f+1     :    -0.000004
      f-1     :     0.000026
      f+2     :     0.000004
      f-2     :    -0.000033
      f+3     :    -0.000026
      f-3     :     0.000011
  2 Aus       :    -0.167031  s :    -0.167031
      pz      :    -0.038114  p :    -0.061513
      px      :    -0.027389
      py      :     0.003990
      dz2     :     0.002383  d :     0.000131
      dxz     :    -0.001624
      dyz     :    -0.000010
      dx2y2   :     0.002250
      dxy     :    -0.002868
      f0      :    -0.000022  f :    -0.000026
      f+1     :     0.000015
      f-1     :     0.000001
      f+2     :    -0.000028
      f-2     :    -0.000009
      f+3     :     0.000022
      f-3     :    -0.000006
  3 Aus       :     0.025042  s :     0.025042
      pz      :    -0.020059  p :    -0.167545
      px      :    -0.019998
      py      :    -0.127487
      dz2     :    -0.000655  d :    -0.006595
      dxz     :     0.006001
      dyz     :    -0.004977
      dx2y2   :    -0.000955
      dxy     :    -0.006009
      f0      :    -0.000041  f :     0.000014
      f+1     :     0.000025
      f-1     :    -0.000017
      f+2     :    -0.000035
      f-2     :     0.000000
      f+3     :    -0.000033
      f-3     :     0.000114
  4 Aus       :     0.025140  s :     0.025140
      pz      :    -0.020699  p :    -0.167446
      px      :    -0.019452
      py      :    -0.127295
      dz2     :    -0.002512  d :    -0.007144
      dxz     :     0.003176
      dyz     :    -0.005636
      dx2y2   :    -0.003288
      dxy     :     0.001115
      f0      :     0.000029  f :     0.000015
      f+1     :     0.000020
      f-1     :     0.000132
      f+2     :    -0.000037
      f-2     :     0.000030
      f+3     :    -0.000122
      f-3     :    -0.000039
  5 Aus       :    -0.084939  s :    -0.084939
      pz      :    -0.026935  p :    -0.058345
      px      :    -0.023372
      py      :    -0.008038
      dz2     :    -0.012178  d :    -0.023651
      dxz     :    -0.002791
      dyz     :    -0.002472
      dx2y2   :     0.000670
      dxy     :    -0.006879
      f0      :    -0.000031  f :    -0.000085
      f+1     :    -0.000009
      f-1     :    -0.000006
      f+2     :    -0.000000
      f-2     :    -0.000008
      f+3     :    -0.000027
      f-3     :    -0.000004
  6 Aus       :    -0.036054  s :    -0.036054
      pz      :     0.003342  p :    -0.028693
      px      :    -0.010549
      py      :    -0.021486
      dz2     :    -0.001646  d :     0.021659
      dxz     :     0.006156
      dyz     :     0.007914
      dx2y2   :     0.007216
      dxy     :     0.002019
      f0      :     0.000021  f :     0.000177
      f+1     :     0.000019
      f-1     :     0.000006
      f+2     :     0.000016
      f-2     :     0.000081
      f+3     :     0.000002
      f-3     :     0.000032
  7 Aus       :    -0.035889  s :    -0.035889
      pz      :    -0.011178  p :    -0.028807
      px      :     0.000356
      py      :    -0.017985
      dz2     :     0.011030  d :     0.021845
      dxz     :     0.007789
      dyz     :     0.001582
      dx2y2   :    -0.003242
      dxy     :     0.004685
      f0      :     0.000061  f :     0.000179
      f+1     :     0.000062
      f-1     :     0.000036
      f+2     :    -0.000008
      f-2     :     0.000046
      f+3     :    -0.000017
      f-3     :    -0.000000
  8 Aus       :    -0.168010  s :    -0.168010
      pz      :    -0.026570  p :    -0.061197
      px      :    -0.042091
      py      :     0.007464
      dz2     :     0.002480  d :     0.000376
      dxz     :    -0.006476
      dyz     :    -0.000612
      dx2y2   :     0.005053
      dxy     :    -0.000070
      f0      :    -0.000010  f :    -0.000026
      f+1     :     0.000016
      f-1     :    -0.000004
      f+2     :     0.000027
      f-2     :    -0.000038
      f+3     :    -0.000024
      f-3     :     0.000007
  9 Aus       :    -0.166918  s :    -0.166918
      pz      :    -0.036962  p :    -0.062121
      px      :    -0.011752
      py      :    -0.013408
      dz2     :    -0.006088  d :     0.000006
      dxz     :    -0.003273
      dyz     :     0.006572
      dx2y2   :     0.002840
      dxy     :    -0.000044
      f0      :    -0.000076  f :    -0.000029
      f+1     :     0.000006
      f-1     :     0.000018
      f+2     :     0.000007
      f-2     :    -0.000012
      f+3     :     0.000015
      f-3     :     0.000014
 10 Fes       :     0.021349  s :     0.021349
      pz      :     0.015977  p :     0.030283
      px      :     0.016133
      py      :    -0.001826
      dz2     :     0.822269  d :     3.582000
      dxz     :     0.738335
      dyz     :     0.851621
      dx2y2   :     0.443603
      dxy     :     0.726173
      f0      :     0.000008  f :    -0.000071
      f+1     :     0.000004
      f-1     :     0.000001
      f+2     :    -0.000011
      f-2     :    -0.000016
      f+3     :    -0.000028
      f-3     :    -0.000030


                      *****************************
                      * MAYER POPULATION ANALYSIS *
                      *****************************

  NA   - Mulliken gross atomic population
  ZA   - Total nuclear charge
  QA   - Mulliken gross atomic charge
  VA   - Mayer's total valence
  BVA  - Mayer's bonded valence
  FA   - Mayer's free valence

  ATOM       NA         ZA         QA         VA         BVA        FA
  0 Au    18.6438    19.0000     0.3562     1.2110     1.1753     0.0357
  1 Au    19.0267    19.0000    -0.0267     1.6404     1.4678     0.1726
  2 Au    19.0307    19.0000    -0.0307     1.6448     1.4731     0.1717
  3 Au    18.7856    19.0000     0.2144     1.4303     1.4242     0.0060
  4 Au    18.7833    19.0000     0.2167     1.4296     1.4236     0.0060
  5 Au    18.6445    19.0000     0.3555     1.2112     1.1752     0.0360
  6 Au    19.0048    19.0000    -0.0048     1.7219     1.7114     0.0104
  7 Au    19.0047    19.0000    -0.0047     1.7221     1.7117     0.0104
  8 Au    19.0276    19.0000    -0.0276     1.6397     1.4674     0.1723
  9 Au    19.0286    19.0000    -0.0286     1.6444     1.4725     0.1719
 10 Fe    27.0197    26.0000    -1.0197     7.4685     3.8217     3.6468

  Mayer bond orders larger than 0.100000
B(  0-Au,  1-Au) :   0.3085 B(  0-Au,  2-Au) :   0.3100 B(  0-Au,  6-Au) :   0.3244 
B(  1-Au,  2-Au) :   0.1832 B(  1-Au,  3-Au) :   0.3657 B(  1-Au, 10-Fe) :   0.3895 
B(  2-Au,  4-Au) :   0.3660 B(  2-Au, 10-Fe) :   0.3926 B(  3-Au,  8-Au) :   0.3646 
B(  3-Au, 10-Fe) :   0.5353 B(  4-Au,  9-Au) :   0.3663 B(  4-Au, 10-Fe) :   0.5327 
B(  5-Au,  7-Au) :   0.3247 B(  5-Au,  8-Au) :   0.3074 B(  5-Au,  9-Au) :   0.3103 
B(  6-Au,  7-Au) :   0.5589 B(  6-Au, 10-Fe) :   0.5389 B(  7-Au, 10-Fe) :   0.5397 
B(  8-Au,  9-Au) :   0.1831 B(  8-Au, 10-Fe) :   0.3923 B(  9-Au, 10-Fe) :   0.3908 


-------
TIMINGS
-------

Total SCF time: 0 days 0 hours 1 min 55 sec 

Total time                  ....     115.946 sec
Sum of individual times     ....     115.229 sec  ( 99.4%)

Fock matrix formation       ....     111.035 sec  ( 95.8%)
  Split-RI-J                ....       7.348 sec  (  6.6% of F)
  Chain of spheres X        ....      88.499 sec  ( 79.7% of F)
  XC integration            ....      14.782 sec  ( 13.3% of F)
    Basis function eval.    ....       2.298 sec  ( 15.5% of XC)
    Density eval.           ....       6.518 sec  ( 44.1% of XC)
    XC-Functional eval.     ....       0.455 sec  (  3.1% of XC)
    XC-Potential eval.      ....       4.885 sec  ( 33.0% of XC)
Diagonalization             ....       1.669 sec  (  1.4%)
Density matrix formation    ....       0.103 sec  (  0.1%)
Population analysis         ....       0.061 sec  (  0.1%)
Initial guess               ....       0.085 sec  (  0.1%)
Orbital Transformation      ....       0.000 sec  (  0.0%)
Orbital Orthonormalization  ....       0.069 sec  (  0.1%)
DIIS solution               ....       0.696 sec  (  0.6%)
Grid generation             ....       1.581 sec  (  1.4%)

Maximum memory used throughout the entire SCF-calculation: 109.5 MB


           ************************************************************
           *        Program running with 6 parallel MPI-processes     *
           *              working on a common directory               *
           ************************************************************

------------------------------------------------------------------------------
                                ORCA  MP2 
------------------------------------------------------------------------------

Freezing NCore=10 chemical core electrons

   <<< Use J-auxbasis for calculation of Separable RI-J derivative contributions (Dim=979) >>> 


-------------
RI-MP2 ENERGY
-------------
Dimension of the basis                    ...  445
Memory devoted to MP2                     ...  256 MB   
Data format for buffers                   ... DOUBLE
Compression type for matrix containers    ... UNCOMPRESSED
Overall scaling of the MP2 energy         ...   2.700e-01
Calculating two index integrals           ... done (    0.022 sec)
Cholesky decomposition of V**-1           ... done (    0.175 sec)

-----------------
RI-TRANSFORMATION (AUX index driven)
-----------------

Dimension of the orbital-basis         ... 445
Dimension of the aux-basis             ... 1692
Transformation of internal/external MOs...    5- 108 to  109- 444
Number Format for Storage              ... Double (8 Byte)
Integral mode                          ... Direct

First Phase: integral generation and transformation of MO indices
  Aux angular momentum 0               ... done (    0.062 sec)
  Aux angular momentum 1               ... done (    0.152 sec)
  Aux angular momentum 2               ... done (    0.228 sec)
  Aux angular momentum 3               ... done (    0.255 sec)
  Aux angular momentum 4               ... done (    0.204 sec)
  Aux angular momentum 5               ... done (    0.181 sec)
Closing buffer VIA ( 0.44 GB; CompressionRatio= 1.00)
  Phase 1 completed in     1.158 sec
Second Phase: sorting and transformation of aux index

IA-Transformation
Memory available                       ... 187 MB 
Max. # MO pairs treated in a batch     ... 18    
# of internal orbitals                 ... 104
# batches for internal orbitals        ... 1
Closing buffer IAV ( 0.44 GB; CompressionRatio= 1.00)
(ia|v) transformation done in     0.917 sec

  Phase 2 completed in     0.960 sec
RI-Integral transformation completed in     2.118 sec

-----------------
RI-TRANSFORMATION (AUX index driven)
-----------------

Dimension of the orbital-basis         ... 445
Dimension of the aux-basis             ... 1692
Transformation of internal/external MOs...    5- 106 to  107- 444
Number Format for Storage              ... Double (8 Byte)
Integral mode                          ... Direct

First Phase: integral generation and transformation of MO indices
  Aux angular momentum 0               ... done (    0.067 sec)
  Aux angular momentum 1               ... done (    0.161 sec)
  Aux angular momentum 2               ... done (    0.231 sec)
  Aux angular momentum 3               ... done (    0.258 sec)
  Aux angular momentum 4               ... done (    0.204 sec)
  Aux angular momentum 5               ... done (    0.184 sec)
Closing buffer VIA ( 0.43 GB; CompressionRatio= 1.00)
  Phase 1 completed in     1.181 sec
Second Phase: sorting and transformation of aux index

IA-Transformation
Memory available                       ... 187 MB 
Max. # MO pairs treated in a batch     ... 17    
# of internal orbitals                 ... 102
# batches for internal orbitals        ... 1
Closing buffer IAV ( 0.43 GB; CompressionRatio= 1.00)
(ia|v) transformation done in     0.887 sec

  Phase 2 completed in     0.930 sec
RI-Integral transformation completed in     2.111 sec
Opening buffers                              ... done

Starting loop over batches of integrals:

Operator 0  - window                       ... (  5-108)x(109-444)
Operator 0  - Memory available             ...   256 MB
Operator 0  - Memory needed per MO         ...   4.3 MB
Operator 0  - Number of orbitals per batch ... 18
Operator 0  - Number of batches            ... 1

OPERATOR  0   PASS   0:  MOs     5 ...   22 +   23 ...   40 +   41 ...   58 +   59 ...   76
                            +   77 ...   94 +   95 ...  108
  Reading integrals       ... ok
  Internal MO   7
  Internal MO  10
  Internal MO  13
  Internal MO  16
  Internal MO  19
  Internal MO  22

Operator 1  - window                       ... (  5-106)x(107-444)
Operator 1  - Memory available             ...   256 MB
Operator 1  - Memory needed per MO         ...   4.4 MB
Operator 1  - Number of orbitals per batch ... 17
Operator 1  - Number of batches            ... 1

OPERATOR  1   PASS   0:  MOs     5 ...   21 +   22 ...   38 +   39 ...   55 +   56 ...   72
                            +   73 ...   89 +   90 ...  106
  Reading integrals       ... ok
  Internal MO   7
  Internal MO  10
  Internal MO  13
  Internal MO  16
  Internal MO  19
Time spent in pair loops =    52.604 sec
Deleting buffer (Ka|jb)[aa] ...done
Deleting buffer (Ka|jb)[ba] ...done
Deleting buffer (Ka|jb)[ab] ...done
Deleting buffer (Ka|jb)[bb] ...done

Correlation energy components}
 E2 and T2 for alpha/alpha pairs :     -0.300659984 Eh      0.000000000
 E2 and T2 for beta/beta   pairs :     -0.296640965 Eh      0.000000000
 E2 and T2 for alpha/beta  pairs :     -1.033758319 Eh      0.000000000


-----------------------------------------------
 RI-MP2 CORRELATION ENERGY:     -1.631059267 Eh
-----------------------------------------------


-------
TIMINGS
-------

Total time                :   70.206 sec
Integral trafo            :    4.243 sec (  6.0%)
I/O of integrals          :    0.099 sec (  0.1%)
K(i,j) Operators          :   35.272 sec ( 50.2%)
T(i,j) pair energies      :    1.213 sec (  1.7%)
V-calculation             :    0.022 sec (  0.0%)
V**(-1/2)                 :    0.175 sec (  0.2%)
Gamma(ia|P)               :    0.000 sec (  0.0%)
Gamma-Trafo               :    0.000 sec (  0.0%)
D(virtual)                :    0.000 sec (  0.0%)
D(internal)               :    0.000 sec (  0.0%)
W(virtual)                :    0.000 sec (  0.0%)
W(internal)               :    0.000 sec (  0.0%)
L(virtual)                :    0.000 sec (  0.0%)
L(internal)               :    0.000 sec (  0.0%)
G(D)                      :    0.000 sec (  0.0%)
G(Z)                      :    0.000 sec (  0.0%)
Z-Vector Solution         :    0.000 sec (  0.0%)
3-Index Derivative        :    0.000 sec (  0.0%)
2-Index Derivative        :    0.000 sec (  0.0%)
Separable Gradient (RIJ)  :    0.000 sec (  0.0%)
Separable Gradient (COSX) :    0.000 sec (  0.0%)


---------------------------------------
MP2 TOTAL ENERGY:    -2619.330246499 Eh
---------------------------------------

Maximum memory used throughout the entire MP2-calculation: 194.4 MB

-------------------------   --------------------
FINAL SINGLE POINT ENERGY     -2619.330246499427
-------------------------   --------------------


                            ***************************************
                            *     ORCA property calculations      *
                            ***************************************


  WARNING: The energy has been calculated at the MP2 level but the densities
           used in the property calculations are still SCF densities
           MP2 response densities have not been calculated 
           use %mp2 Density relaxed end
           or  %mp2 Density unrelaxed end

                                    ---------------------
                                    Active property flags
                                    ---------------------
   (+) Dipole Moment


------------------------------------------------------------------------------
                       ORCA ELECTRIC PROPERTIES CALCULATION
------------------------------------------------------------------------------

Dipole Moment Calculation                       ... on
Quadrupole Moment Calculation                   ... off
Polarizability Calculation                      ... off
GBWName                                         ... b2plyp_job2.gbw
Electron density                                ... b2plyp_job2.scfp
The origin for moment calculation is the CENTER OF MASS  = (16.802600, 12.662491 14.343148)

-------------
DIPOLE MOMENT
-------------
                                X             Y             Z
Electronic contribution:      7.19090       0.96093      -9.37417
Nuclear contribution   :     -7.04881      -0.93907       9.18295
                        -----------------------------------------
Total Dipole Moment    :      0.14209       0.02186      -0.19122
                        -----------------------------------------
Magnitude (a.u.)       :      0.23923
Magnitude (Debye)      :      0.60809



--------------------
Rotational spectrum 
--------------------
 
Rotational constants in cm-1:     0.002437     0.001193     0.001174 
Rotational constants in MHz :    73.048490    35.777097    35.189543 

 Dipole components along the rotational axes: 
x,y,z [a.u.] :     0.001276     0.239020    -0.010056 
x,y,z [Debye]:     0.003242     0.607539    -0.025561 

 

Timings for individual modules:

Sum of individual times         ...      194.391 sec (=   3.240 min)
GTO integral calculation        ...        7.725 sec (=   0.129 min)   4.0 %
SCF iterations                  ...      116.161 sec (=   1.936 min)  59.8 %
MP2 module                      ...       70.505 sec (=   1.175 min)  36.3 %



                             ****ORCA TERMINATED NORMALLY****
TOTAL RUN TIME: 0 days 0 hours 8 minutes 43 seconds 436 msec
