
                                 *****************
                                 * O   R   C   A *
                                 *****************

                                            #,                                       
                                            ###                                      
                                            ####                                     
                                            #####                                    
                                            ######                                   
                                           ########,                                 
                                     ,,################,,,,,                         
                               ,,#################################,,                 
                          ,,##########################################,,             
                       ,#########################################, ''#####,          
                    ,#############################################,,   '####,        
                  ,##################################################,,,,####,       
                ,###########''''           ''''###############################       
              ,#####''   ,,,,##########,,,,          '''####'''          '####       
            ,##' ,,,,###########################,,,                        '##       
           ' ,,###''''                  '''############,,,                           
         ,,##''                                '''############,,,,        ,,,,,,###''
      ,#''                                            '''#######################'''  
     '                                                          ''''####''''         
             ,#######,   #######,   ,#######,      ##                                
            ,#'     '#,  ##    ##  ,#'     '#,    #''#        ######   ,####,        
            ##       ##  ##   ,#'  ##            #'  '#       #        #'  '#        
            ##       ##  #######   ##           ,######,      #####,   #    #        
            '#,     ,#'  ##    ##  '#,     ,#' ,#      #,         ##   #,  ,#        
             '#######'   ##     ##  '#######'  #'      '#     #####' # '####'        



                  #######################################################
                  #                        -***-                        #
                  #          Department of theory and spectroscopy      #
                  #    Directorship and core code : Frank Neese         #
                  #        Max Planck Institute fuer Kohlenforschung    #
                  #                Kaiser Wilhelm Platz 1               #
                  #                 D-45470 Muelheim/Ruhr               #
                  #                      Germany                        #
                  #                                                     #
                  #                  All rights reserved                #
                  #                        -***-                        #
                  #######################################################


                         Program Version 5.0.3 -  RELEASE  -


 With contributions from (in alphabetic order):
   Daniel Aravena         : Magnetic Suceptibility
   Michael Atanasov       : Ab Initio Ligand Field Theory (pilot matlab implementation)
   Alexander A. Auer      : GIAO ZORA, VPT2 properties, NMR spectrum
   Ute Becker             : Parallelization
   Giovanni Bistoni       : ED, misc. LED, open-shell LED, HFLD
   Martin Brehm           : Molecular dynamics
   Dmytro Bykov           : SCF Hessian
   Vijay G. Chilkuri      : MRCI spin determinant printing, contributions to CSF-ICE
   Dipayan Datta          : RHF DLPNO-CCSD density
   Achintya Kumar Dutta   : EOM-CC, STEOM-CC
   Dmitry Ganyushin       : Spin-Orbit,Spin-Spin,Magnetic field MRCI
   Miquel Garcia          : C-PCM and meta-GGA Hessian, CC/C-PCM, Gaussian charge scheme
   Yang Guo               : DLPNO-NEVPT2, F12-NEVPT2, CIM, IAO-localization
   Andreas Hansen         : Spin unrestricted coupled pair/coupled cluster methods
   Benjamin Helmich-Paris : MC-RPA, TRAH-SCF, COSX integrals
   Lee Huntington         : MR-EOM, pCC
   Robert Izsak           : Overlap fitted RIJCOSX, COSX-SCS-MP3, EOM
   Marcus Kettner         : VPT2
   Christian Kollmar      : KDIIS, OOCD, Brueckner-CCSD(T), CCSD density, CASPT2, CASPT2-K
   Simone Kossmann        : Meta GGA functionals, TD-DFT gradient, OOMP2, MP2 Hessian
   Martin Krupicka        : Initial AUTO-CI
   Lucas Lang             : DCDCAS
   Marvin Lechner         : AUTO-CI (C++ implementation), FIC-MRCC
   Dagmar Lenk            : GEPOL surface, SMD
   Dimitrios Liakos       : Extrapolation schemes; Compound Job, initial MDCI parallelization
   Dimitrios Manganas     : Further ROCIS development; embedding schemes
   Dimitrios Pantazis     : SARC Basis sets
   Anastasios Papadopoulos: AUTO-CI, single reference methods and gradients
   Taras Petrenko         : DFT Hessian,TD-DFT gradient, ASA, ECA, R-Raman, ABS, FL, XAS/XES, NRVS
   Peter Pinski           : DLPNO-MP2, DLPNO-MP2 Gradient
   Christoph Reimann      : Effective Core Potentials
   Marius Retegan         : Local ZFS, SOC
   Christoph Riplinger    : Optimizer, TS searches, QM/MM, DLPNO-CCSD(T), (RO)-DLPNO pert. Triples
   Tobias Risthaus        : Range-separated hybrids, TD-DFT gradient, RPA, STAB
   Michael Roemelt        : Original ROCIS implementation
   Masaaki Saitow         : Open-shell DLPNO-CCSD energy and density
   Barbara Sandhoefer     : DKH picture change effects
   Avijit Sen             : IP-ROCIS
   Kantharuban Sivalingam : CASSCF convergence, NEVPT2, FIC-MRCI
   Bernardo de Souza      : ESD, SOC TD-DFT
   Georgi Stoychev        : AutoAux, RI-MP2 NMR, DLPNO-MP2 response
   Willem Van den Heuvel  : Paramagnetic NMR
   Boris Wezisla          : Elementary symmetry handling
   Frank Wennmohs         : Technical directorship


 We gratefully acknowledge several colleagues who have allowed us to
 interface, adapt or use parts of their codes:
   Stefan Grimme, W. Hujo, H. Kruse, P. Pracht,  : VdW corrections, initial TS optimization,
                  C. Bannwarth, S. Ehlert          DFT functionals, gCP, sTDA/sTD-DF
   Ed Valeev, F. Pavosevic, A. Kumar             : LibInt (2-el integral package), F12 methods
   Garnet Chan, S. Sharma, J. Yang, R. Olivares  : DMRG
   Ulf Ekstrom                                   : XCFun DFT Library
   Mihaly Kallay                                 : mrcc  (arbitrary order and MRCC methods)
   Jiri Pittner, Ondrej Demel                    : Mk-CCSD
   Frank Weinhold                                : gennbo (NPA and NBO analysis)
   Christopher J. Cramer and Donald G. Truhlar   : smd solvation model
   Lars Goerigk                                  : TD-DFT with DH, B97 family of functionals
   V. Asgeirsson, H. Jonsson                     : NEB implementation
   FAccTs GmbH                                   : IRC, NEB, NEB-TS, DLPNO-Multilevel, CI-OPT
                                                   MM, QMMM, 2- and 3-layer-ONIOM, Crystal-QMMM,
                                                   LR-CPCM, SF, NACMEs, symmetry and pop. for TD-DFT,
                                                   nearIR, NL-DFT gradient (VV10), updates on ESD,
                                                   ML-optimized integration grids
   S Lehtola, MJT Oliveira, MAL Marques          : LibXC Library
   Liviu Ungur et al                             : ANISO software


 Your calculation uses the libint2 library for the computation of 2-el integrals
 For citations please refer to: http://libint.valeyev.net

 Your ORCA version has been built with support for libXC version: 5.1.0
 For citations please refer to: https://tddft.org/programs/libxc/

 This ORCA versions uses:
   CBLAS   interface :  Fast vector & matrix operations
   LAPACKE interface :  Fast linear algebra routines
   SCALAPACK package :  Parallel linear algebra routines
   Shared memory     :  Shared parallel matrices
   BLAS/LAPACK       :  OpenBLAS 0.3.15  USE64BITINT DYNAMIC_ARCH NO_AFFINITY Haswell SINGLE_THREADED
        Core in use  :  Haswell
   Copyright (c) 2011-2014, The OpenBLAS Project




***************************************
The coordinates will be read from file: pbe.xyz
***************************************


================================================================================

cite the ECPs for Au [Def2-ECP] as follows:
Ce-Yb(ecp-28): M. Dolg, H. Stoll, H.Preuss, J. Chem. Phys., 1989, 90, 1730-1734.
Y-Cd(ecp-28), Hf-Hg(ecp-46): D. Andrae,U. Haeussermann, M. Dolg, H. Stoll, H. Preuss, Theor. Chim. Acta, 1990, 77, 123-141.
In-Sb(ecp-28), Tl-Bi(ecp-46): B. Metz, H. Stoll, M. Dolg, J. Chem. Phys., 2000, 113, 2563-2569.
Te-Xe(ecp-28), Po-Rn(ecp-46): K. A. Peterson, D. Figgen, E. Goll, H. Stoll, M. Dolg, J. Chem. Phys., 2003, 119, 11113-11123.
Rb(ecp-28), Cs(ecp-46): T. Leininger, A. Nicklass, W. Kuechle, H. Stoll, M. Dolg, A. Bergner, Chem. Phys. Lett., 1996, 255, 274-280.
Sr(ecp-28), Ba(ecp-46): M. Kaupp, P. V. Schleyer, H. Stoll and H. Preuss, J. Chem. Phys., 1991, 94, 1360-1366.
La(ecp-46): M. Dolg, H. Stoll, A. Savin, H. Preuss, Theor. Chim. Acta, 1989, 75, 173-194.
Lu(ecp-28): X. Cao, M. Dolg, J. Chem. Phys., 2001, 115, 7348-7355.

ECP parameters for Au [Def2-ECP] have been obtained from:
TURBOMOLE (7.0.2)

----- Orbital basis set information -----
Your calculation utilizes the basis: def2-TZVP
   F. Weigend and R. Ahlrichs, Phys. Chem. Chem. Phys. 7, 3297 (2005).

----- AuxJ basis set information -----
Your calculation utilizes the auxiliary basis: def2/J
   F. Weigend, Phys. Chem. Chem. Phys. 8, 1057 (2006).

================================================================================
                                        WARNINGS
                       Please study these warnings very carefully!
================================================================================

Using LibXC functional ID 497 : Re-regularized SCAN exchange by Furness et al
[ 1]  J. W. Furness, A. D. Kaplan, J. Ning, J. P. Perdew, and J. Sun, J. Phys. Chem. Lett. 11, 8208 (2020)
[ 2]  J. W. Furness, A. D. Kaplan, J. Ning, J. P. Perdew, and J. Sun, J. Phys. Chem. Lett. 11, 9248 (2020)
Using LibXC functional ID 498 : Re-regularized SCAN correlation by Furness et al
[ 1]  J. W. Furness, A. D. Kaplan, J. Ning, J. P. Perdew, and J. Sun, J. Phys. Chem. Lett. 11, 8208 (2020)
[ 2]  J. W. Furness, A. D. Kaplan, J. Ning, J. P. Perdew, and J. Sun, J. Phys. Chem. Lett. 11, 9248 (2020)
Using LibXC functional ID 497 : Re-regularized SCAN exchange by Furness et al
[ 1]  J. W. Furness, A. D. Kaplan, J. Ning, J. P. Perdew, and J. Sun, J. Phys. Chem. Lett. 11, 8208 (2020)
[ 2]  J. W. Furness, A. D. Kaplan, J. Ning, J. P. Perdew, and J. Sun, J. Phys. Chem. Lett. 11, 9248 (2020)
Using LibXC functional ID 498 : Re-regularized SCAN correlation by Furness et al
[ 1]  J. W. Furness, A. D. Kaplan, J. Ning, J. P. Perdew, and J. Sun, J. Phys. Chem. Lett. 11, 8208 (2020)
[ 2]  J. W. Furness, A. D. Kaplan, J. Ning, J. P. Perdew, and J. Sun, J. Phys. Chem. Lett. 11, 9248 (2020)

WARNING: your system is open-shell and RHF/RKS was chosen
  ===> : WILL SWITCH to UHF/UKS


INFO   : the flag for use of the SHARK integral package has been found!



***************************************
The coordinates will be read from file: pbe.xyz
***************************************


================================================================================

cite the ECPs for Au [Def2-ECP] as follows:
Ce-Yb(ecp-28): M. Dolg, H. Stoll, H.Preuss, J. Chem. Phys., 1989, 90, 1730-1734.
Y-Cd(ecp-28), Hf-Hg(ecp-46): D. Andrae,U. Haeussermann, M. Dolg, H. Stoll, H. Preuss, Theor. Chim. Acta, 1990, 77, 123-141.
In-Sb(ecp-28), Tl-Bi(ecp-46): B. Metz, H. Stoll, M. Dolg, J. Chem. Phys., 2000, 113, 2563-2569.
Te-Xe(ecp-28), Po-Rn(ecp-46): K. A. Peterson, D. Figgen, E. Goll, H. Stoll, M. Dolg, J. Chem. Phys., 2003, 119, 11113-11123.
Rb(ecp-28), Cs(ecp-46): T. Leininger, A. Nicklass, W. Kuechle, H. Stoll, M. Dolg, A. Bergner, Chem. Phys. Lett., 1996, 255, 274-280.
Sr(ecp-28), Ba(ecp-46): M. Kaupp, P. V. Schleyer, H. Stoll and H. Preuss, J. Chem. Phys., 1991, 94, 1360-1366.
La(ecp-46): M. Dolg, H. Stoll, A. Savin, H. Preuss, Theor. Chim. Acta, 1989, 75, 173-194.
Lu(ecp-28): X. Cao, M. Dolg, J. Chem. Phys., 2001, 115, 7348-7355.

ECP parameters for Au [Def2-ECP] have been obtained from:
TURBOMOLE (7.0.2)

----- Orbital basis set information -----
Your calculation utilizes the basis: def2-TZVP
   F. Weigend and R. Ahlrichs, Phys. Chem. Chem. Phys. 7, 3297 (2005).

----- AuxJ basis set information -----
Your calculation utilizes the auxiliary basis: def2/J
   F. Weigend, Phys. Chem. Chem. Phys. 8, 1057 (2006).

================================================================================
                                        WARNINGS
                       Please study these warnings very carefully!
================================================================================

Using LibXC functional ID 497 : Re-regularized SCAN exchange by Furness et al
[ 1]  J. W. Furness, A. D. Kaplan, J. Ning, J. P. Perdew, and J. Sun, J. Phys. Chem. Lett. 11, 8208 (2020)
[ 2]  J. W. Furness, A. D. Kaplan, J. Ning, J. P. Perdew, and J. Sun, J. Phys. Chem. Lett. 11, 9248 (2020)
Using LibXC functional ID 498 : Re-regularized SCAN correlation by Furness et al
[ 1]  J. W. Furness, A. D. Kaplan, J. Ning, J. P. Perdew, and J. Sun, J. Phys. Chem. Lett. 11, 8208 (2020)
[ 2]  J. W. Furness, A. D. Kaplan, J. Ning, J. P. Perdew, and J. Sun, J. Phys. Chem. Lett. 11, 9248 (2020)
Using LibXC functional ID 497 : Re-regularized SCAN exchange by Furness et al
[ 1]  J. W. Furness, A. D. Kaplan, J. Ning, J. P. Perdew, and J. Sun, J. Phys. Chem. Lett. 11, 8208 (2020)
[ 2]  J. W. Furness, A. D. Kaplan, J. Ning, J. P. Perdew, and J. Sun, J. Phys. Chem. Lett. 11, 9248 (2020)
Using LibXC functional ID 498 : Re-regularized SCAN correlation by Furness et al
[ 1]  J. W. Furness, A. D. Kaplan, J. Ning, J. P. Perdew, and J. Sun, J. Phys. Chem. Lett. 11, 8208 (2020)
[ 2]  J. W. Furness, A. D. Kaplan, J. Ning, J. P. Perdew, and J. Sun, J. Phys. Chem. Lett. 11, 9248 (2020)

INFO   : the flag for use of the SHARK integral package has been found!

================================================================================
                                       INPUT FILE
================================================================================
NAME = scan.inp
|  1> !R2SCAN def2-TZVP VERYSLOWCONV
|  2> 
|  3> %scf
|  4>   AutoTRAHIter 400
|  5>   maxiter 800
|  6> end
|  7> 
|  8> %pal nprocs 6 end 
|  9> 
| 10> *xyzfile 0 5 pbe.xyz
| 11> 
| 12> $new_job
| 13> 
| 14> !R2SCAN def2-TZVP VERYSLOWCONV
| 15> %scf
| 16>   AutoTRAHIter 400
| 17>   maxiter 800
| 18> end
| 19> 
| 20> 
| 21> %pal nprocs 6 end 
| 22> 
| 23> *xyzfile 0 3 pbe.xyz
| 24> 
| 25> 
| 26> 
| 27> 
| 28> 
| 29>                          ****END OF INPUT****
================================================================================


                 $$$$$$$$$$$$$$$$$$$$$$$$$$$$$$$$$$$$$$$$$$$$$$ 
                 $ THERE ARE  2 JOBS TO BE PROCESSED THIS RUN $
                 $$$$$$$$$$$$$$$$$$$$$$$$$$$$$$$$$$$$$$$$$$$$$$ 




                 $$$$$$$$$$$$$$$$  JOB NUMBER  1 $$$$$$$$$$$$$$


                       ****************************
                       * Single Point Calculation *
                       ****************************

---------------------------------
CARTESIAN COORDINATES (ANGSTROEM)
---------------------------------
  Au    10.970560   10.147441    8.089200
  Au     8.332911    9.316415    8.257525
  Au    10.312585    7.925119    9.602382
  Au     6.298791    7.640287    7.936105
  Au     9.383590    5.474484   10.033428
  Au     8.167506    3.441321    5.288905
  Au    10.542556    7.990392    6.495552
  Au     9.600032    5.732484    5.553492
  Au     6.682214    5.364426    6.622805
  Au     8.676097    3.981481    7.954428
  Fe     8.710592    6.676593    7.825817

----------------------------
CARTESIAN COORDINATES (A.U.)
----------------------------
  NO LB      ZA    FRAG     MASS         X           Y           Z
   0 Au   19.0000*   0   196.966   20.731354   19.175884   15.286373
   1 Au   19.0000*   0   196.966   15.746920   17.605472   15.604461
   2 Au   19.0000*   0   196.966   19.487962   14.976304   18.145872
   3 Au   19.0000*   0   196.966   11.902991   14.438050   14.997065
   4 Au   19.0000*   0   196.966   17.732415   10.345276   18.960430
   5 Au   19.0000*   0   196.966   15.434350    6.503153    9.994583
   6 Au   19.0000*   0   196.966   19.922544   15.099653   12.274814
   7 Au   19.0000*   0   196.966   18.141431   10.832825   10.494579
   8 Au   19.0000*   0   196.966   12.627555   10.137296   12.515288
   9 Au   19.0000*   0   196.966   16.395447    7.523909   15.031691
  10 Fe   26.0000    0    55.850   16.460633   12.616932   14.788651
* core charge reduced due to ECP

--------------------------------
INTERNAL COORDINATES (ANGSTROEM)
--------------------------------
 Au     0   0   0     0.000000000000     0.00000000     0.00000000
 Au     1   0   0     2.770582899327     0.00000000     0.00000000
 Au     1   2   0     2.767917120207    59.97714727     0.00000000
 Au     2   1   3     2.655251111816   155.68626041   297.89517239
 Au     3   1   2     2.656020262460   155.87660562    62.58146607
 Au     5   3   1     5.303122026208   106.78343609     4.06601976
 Au     1   2   3     2.715835279385    69.35262474    77.31393317
 Au     7   1   2     2.621827011484   162.08306429   327.65484158
 Au     4   2   1     2.655430393409   119.35845147   354.54150065
 Au     5   3   1     2.655530492008   119.00452509     5.50425000
 Fe     4   2   1     2.599548355609    61.86205999    18.21599641

---------------------------
INTERNAL COORDINATES (A.U.)
---------------------------
 Au     0   0   0     0.000000000000     0.00000000     0.00000000
 Au     1   0   0     5.235642911053     0.00000000     0.00000000
 Au     1   2   0     5.230605318583    59.97714727     0.00000000
 Au     2   1   3     5.017697418122   155.68626041   297.89517239
 Au     3   1   2     5.019150902196   155.87660562    62.58146607
 Au     5   3   1    10.021448284298   106.78343609     4.06601976
 Au     1   2   3     5.132184902880    69.35262474    77.31393317
 Au     7   1   2     4.954535022223   162.08306429   327.65484158
 Au     4   2   1     5.018036211234   119.35845147   354.54150065
 Au     5   3   1     5.018225370173   119.00452509     5.50425000
 Fe     4   2   1     4.912434463987    61.86205999    18.21599641

---------------------
BASIS SET INFORMATION
---------------------
There are 2 groups of distinct atoms

 Group   1 Type Au  : 8s7p6d1f contracted to 6s4p3d1f pattern {311111/4111/411/1}
 Group   2 Type Fe  : 17s11p7d1f contracted to 6s4p4d1f pattern {842111/6311/4111/1}

Atom   0Au   basis set group =>   1
Atom   1Au   basis set group =>   1
Atom   2Au   basis set group =>   1
Atom   3Au   basis set group =>   1
Atom   4Au   basis set group =>   1
Atom   5Au   basis set group =>   1
Atom   6Au   basis set group =>   1
Atom   7Au   basis set group =>   1
Atom   8Au   basis set group =>   1
Atom   9Au   basis set group =>   1
Atom  10Fe   basis set group =>   2
---------------------------------
AUXILIARY/J BASIS SET INFORMATION
---------------------------------
There are 2 groups of distinct atoms

 Group   1 Type Au  : 11s5p5d3f3g contracted to 8s5p5d2f3g pattern {41111111/11111/11111/21/111}
 Group   2 Type Fe  : 19s5p5d3f3g contracted to 8s5p5d2f3g pattern {121111111/11111/11111/21/111}

Atom   0Au   basis set group =>   1
Atom   1Au   basis set group =>   1
Atom   2Au   basis set group =>   1
Atom   3Au   basis set group =>   1
Atom   4Au   basis set group =>   1
Atom   5Au   basis set group =>   1
Atom   6Au   basis set group =>   1
Atom   7Au   basis set group =>   1
Atom   8Au   basis set group =>   1
Atom   9Au   basis set group =>   1
Atom  10Fe   basis set group =>   2
-------------------------
ECP PARAMETER INFORMATION
-------------------------

 Group 1, Type Au ECP Def2-ECP (replacing 60 core electrons, lmax=3)

Atom   0Au   ECP group =>   1
Atom   1Au   ECP group =>   1
Atom   2Au   ECP group =>   1
Atom   3Au   ECP group =>   1
Atom   4Au   ECP group =>   1
Atom   5Au   ECP group =>   1
Atom   6Au   ECP group =>   1
Atom   7Au   ECP group =>   1
Atom   8Au   ECP group =>   1
Atom   9Au   ECP group =>   1



           ************************************************************
           *        Program running with 6 parallel MPI-processes     *
           *              working on a common directory               *
           ************************************************************
------------------------------------------------------------------------------
                           ORCA GTO INTEGRAL CALCULATION
                           -- RI-GTO INTEGRALS CHOSEN --
------------------------------------------------------------------------------
------------------------------------------------------------------------------
                   ___                                                        
                  /   \      - P O W E R E D   B Y -                         
                 /     \                                                     
                 |  |  |   _    _      __       _____    __    __             
                 |  |  |  | |  | |    /  \     |  _  \  |  |  /  |          
                  \  \/   | |  | |   /    \    | | | |  |  | /  /          
                 / \  \   | |__| |  /  /\  \   | |_| |  |  |/  /          
                |  |  |   |  __  | /  /__\  \  |    /   |      \           
                |  |  |   | |  | | |   __   |  |    \   |  |\   \          
                \     /   | |  | | |  |  |  |  | |\  \  |  | \   \       
                 \___/    |_|  |_| |__|  |__|  |_| \__\ |__|  \__/        
                                                                              
                      - O R C A' S   B I G   F R I E N D -                    
                                      &                                       
                       - I N T E G R A L  F E E D E R -                       
                                                                              
 v1 FN, 2020, v2 2021                                                         
------------------------------------------------------------------------------


Reading SHARK input file scan.SHARKINP.tmp ... ok
----------------------
SHARK INTEGRAL PACKAGE
----------------------

Number of atoms                             ...     11
Number of basis functions                   ...    445
Number of shells                            ...    155
Maximum angular momentum                    ...      3
Integral batch strategy                     ... SHARK/LIBINT Hybrid
RI-J (if used) integral strategy            ... SPLIT-RIJ (Revised 2003 algorithm where possible)
Printlevel                                  ...      1
Contraction scheme used                     ... SEGMENTED contraction
Coulomb Range Separation                    ... NOT USED
Exchange Range Separation                   ... NOT USED
Finite Nucleus Model                        ... NOT USED
Auxiliary Coulomb fitting basis             ... AVAILABLE
   # of basis functions in Aux-J            ...    979
   # of shells in Aux-J                     ...    253
   Maximum angular momentum in Aux-J        ...      4
Auxiliary J/K fitting basis                 ... NOT available
Auxiliary Correlation fitting basis         ... NOT available
Auxiliary 'external' fitting basis          ... NOT available
Integral threshold                          ...     1.000000e-10
Primitive cut-off                           ...     1.000000e-11
Primitive pair pre-selection threshold      ...     1.000000e-11

Calculating pre-screening integrals         ... done (  0.1 sec) Dimension = 155
Organizing shell pair data                  ... done (  0.1 sec)
Shell pair information
Total number of shell pairs                 ...     12090
Shell pairs after pre-screening             ...      9744
Total number of primitive shell pairs       ...     33105
Primitive shell pairs kept                  ...     19588
          la=0 lb=0:   1540 shell pairs
          la=1 lb=0:   2222 shell pairs
          la=1 lb=1:    834 shell pairs
          la=2 lb=0:   1942 shell pairs
          la=2 lb=1:   1360 shell pairs
          la=2 lb=2:    565 shell pairs
          la=3 lb=0:    508 shell pairs
          la=3 lb=1:    386 shell pairs
          la=3 lb=2:    334 shell pairs
          la=3 lb=3:     53 shell pairs

Calculating one electron integrals          ... done (  0.0 sec)
Calculating ECP integrals                   ... done (  3.4 sec)
Calculating RI/J V-Matrix + Cholesky decomp.... done (  0.0 sec)
Calculating Nuclear repulsion               ... done (  0.0 sec) ENN=   3139.866571785326 Eh

SHARK setup successfully completed in   3.8 seconds

Maximum memory used throughout the entire GTOINT-calculation: 26.9 MB


           ************************************************************
           *        Program running with 6 parallel MPI-processes     *
           *              working on a common directory               *
           ************************************************************
-------------------------------------------------------------------------------
                                 ORCA SCF
-------------------------------------------------------------------------------

------------
SCF SETTINGS
------------
Hamiltonian:
 Density Functional     Method          .... DFT(GTOs)
  Functional kind                       .... Exchange
  Functional name                       .... Re-regularized SCAN exchange by Furness et al
  Functional family                     .... MGGA
  Functional refs                              
    [ 0] J. W. Furness, A. D. Kaplan, J. Ning, J. P. Perdew, and J. Sun, J. Phys. Chem. Lett. 11, 8208 (2020)
    [ 1] J. W. Furness, A. D. Kaplan, J. Ning, J. P. Perdew, and J. Sun, J. Phys. Chem. Lett. 11, 9248 (2020)
  Functional external parameters         .... 8
 Parameter  0 :         c1 parameter
 Parameter  1 :         c2 parameter
 Parameter  2 :          d parameter
 Parameter  3 :         k1 parameter
 Parameter  4 :       taur parameter
 Parameter  5 :     alphar parameter
 Parameter  6 :        eta parameter
 Parameter  7 :        dp2 parameter
  Functional kind                       .... Correlation
  Functional name                       .... Re-regularized SCAN correlation by Furness et al
  Functional family                     .... MGGA
  Functional refs                              
    [ 0] J. W. Furness, A. D. Kaplan, J. Ning, J. P. Perdew, and J. Sun, J. Phys. Chem. Lett. 11, 8208 (2020)
    [ 1] J. W. Furness, A. D. Kaplan, J. Ning, J. P. Perdew, and J. Sun, J. Phys. Chem. Lett. 11, 9248 (2020)
  Functional external parameters         .... 0
 Gradients option       PostSCFGGA      .... off
   Density functional embedding theory  .... OFF
   NL short-range parameter             .... 12.300000
 RI-approximation to the Coulomb term is turned on
   Number of AuxJ basis functions       .... 979


General Settings:
 Integral files         IntName         .... scan
 Hartree-Fock type      HFTyp           .... UHF
 Total Charge           Charge          ....    0
 Multiplicity           Mult            ....    5
 Number of Electrons    NEL             ....  216
 Basis Dimension        Dim             ....  445
 Nuclear Repulsion      ENuc            ....   3139.8665717853 Eh

Convergence Acceleration:
 DIIS                   CNVDIIS         .... on
   Start iteration      DIISMaxIt       ....     0
   Startup error        DIISStart       ....  0.200000
   # of expansion vecs  DIISMaxEq       ....     5
   Bias factor          DIISBfac        ....   1.050
   Max. coefficient     DIISMaxC        ....  10.000
 Trust-Rad. Augm. Hess. CNVTRAH         .... auto
   Auto Start mean grad. ratio tolernc. ....  1.125000
   Auto Start start iteration           ....   400
   Auto Start num. interpolation iter.  ....    10
   Max. Number of Micro iterations      ....    16
   Max. Number of Macro iterations      .... Maxiter - #DIIS iter
   Number of Davidson start vectors     ....     2
   Converg. threshold I  (grad. norm)   ....   5.000e-05
   Converg. threshold II (energy diff.) ....   1.000e-06
   Grad. Scal. Fac. for Micro threshold ....   0.100
   Minimum threshold for Micro iter.    ....   0.010
   NR start threshold (gradient norm)   ....   0.001
   Initial trust radius                 ....   0.400
   Minimum AH scaling param. (alpha)    ....   1.000
   Maximum AH scaling param. (alpha)    .... 1000.000
   Orbital update algorithm             .... Taylor
   White noise on init. David. guess    .... on
   Maximum white noise                  ....   0.010
   Quad. conv. algorithm                .... NR
 SOSCF                  CNVSOSCF        .... off
 Level Shifting         CNVShift        .... on
   Level shift para.    LevelShift      ....    0.2500
   Turn off err/grad.   ShiftErr        ....    0.0000
 Zerner damping         CNVZerner       .... off
 Static damping         CNVDamp         .... on
   Fraction old density DampFac         ....    0.9200
   Max. Damping (<1)    DampMax         ....    0.9800
   Min. Damping (>=0)   DampMin         ....    0.0000
   Turn off err/grad.   DampErr         ....    0.0030
 Fernandez-Rico         CNVRico         .... off

SCF Procedure:
 Maximum # iterations   MaxIter         ....   800
 SCF integral mode      SCFMode         .... Direct
   Integral package                     .... SHARK and LIBINT hybrid scheme
 Reset frequency        DirectResetFreq ....    20
 Integral Threshold     Thresh          ....  1.000e-10 Eh
 Primitive CutOff       TCut            ....  1.000e-11 Eh

Convergence Tolerance:
 Convergence Check Mode ConvCheckMode   .... Total+1el-Energy
 Convergence forced     ConvForced      .... 0
 Energy Change          TolE            ....  1.000e-06 Eh
 1-El. energy change                    ....  1.000e-03 Eh
 DIIS Error             TolErr          ....  1.000e-06


Diagonalization of the overlap matrix:
Smallest eigenvalue                        ... 5.840e-04
Time for diagonalization                   ...    0.021 sec
Threshold for overlap eigenvalues          ... 1.000e-08
Number of eigenvalues below threshold      ... 0
Time for construction of square roots      ...    0.013 sec
Total time needed                          ...    0.035 sec

Time for model grid setup =    0.257 sec

------------------------------
INITIAL GUESS: MODEL POTENTIAL
------------------------------
Loading Hartree-Fock densities                     ... done
  calling /media/Programs/ORCA501/orca scan_atom79.inp > scan_atom79.out in order to generate an atomic fitting density for atom 0 (Au with ECP) on-the-fly... 
    atom 0 (Au), assumed electronic state with S=2: 1s2 2s2 2p6 3s2 3p6 4s2 3d10 4p6 5s2 4d10 5p6 6s1 4f14 5d10           ... done
Calculating cut-offs                               ... done
Initializing the effective Hamiltonian             ... done
Setting up the integral package (SHARK)            ... done
Starting the Coulomb interaction                   ... done (   0.2 sec)
Reading the grid                                   ... done
Mapping shells                                     ... done
Starting the XC term evaluation                    ... done (   0.2 sec)
  promolecular density results
     # of electrons  =    816.012072954
     EX              =  -3712.274338164
     EC              =    -49.552909475
     EX+EC           =  -3761.827247639
Transforming the Hamiltonian                       ... done (   0.0 sec)
Diagonalizing the Hamiltonian                      ... done (   0.0 sec)
Back transforming the eigenvectors                 ... done (   0.0 sec)
Now organizing SCF variables                       ... done
                      ------------------
                      INITIAL GUESS DONE (   1.1 sec)
                      ------------------
-------------------
DFT GRID GENERATION
-------------------

General Integration Accuracy     IntAcc      ... 4.388
Radial Grid Type                 RadialGrid  ... OptM3 with GC (2021)
Angular Grid (max. ang.)         AngularGrid ... 4 (Lebedev-302)
Angular grid pruning method      GridPruning ... 4 (adaptive)
Weight generation scheme         WeightScheme... Becke
Basis function cutoff            BFCut       ... 1.0000e-10
Integration weight cutoff        WCut        ... 1.0000e-14
Angular grids for H and He will be reduced by one unit
Partially contracted basis set               ... off
Rotationally invariant grid construction     ... off

Total number of grid points                  ...   123650
Total number of batches                      ...     1938
Average number of points per batch           ...       63
Average number of grid points per atom       ...    11241
Time for grid setup =    0.894 sec

--------------
SCF ITERATIONS
--------------
ITER       Energy         Delta-E        Max-DP      RMS-DP      [F,P]     Damp
               ***  Starting incremental Fock matrix formation  ***
  0  -2619.5939007010   0.000000000000 0.10936208  0.00095811  0.4441692 0.9200
  1  -2620.5728514878  -0.978950786876 0.09377019  0.00085339  0.2734020 0.9200
                               ***Turning on DIIS***
  2  -2621.0747090762  -0.501857588356 0.06989816  0.00067984  0.2511016 0.9200
  3  -2621.2428765170  -0.168167440771 0.04198192  0.00049708  0.2305344 0.9200
  4  -2621.2453402681  -0.002463751173 0.02166225  0.00032216  0.2115612 0.9200
  5  -2621.2740871274  -0.028746859213 0.02665701  0.00030121  0.1941466 0.9200
  6  -2621.3575406777  -0.083453550384 0.02635521  0.00028378  0.1782506 0.9200
  7  -2621.4242887483  -0.066748070551 0.02345596  0.00025511  0.1638847 0.9200
  8  -2621.4710971375  -0.046808389253 0.01918438  0.00023540  0.1508107 0.9200
  9  -2621.5188582891  -0.047761151548 0.01617903  0.00022726  0.1386938 0.9200
 10  -2621.5548657469  -0.036007457811 0.01569403  0.00020123  0.1275682 0.9200
 11  -2621.5902212427  -0.035355495767 0.01593749  0.00018886  0.1173311 0.9200
 12  -2621.6334684779  -0.043247235258 0.01591875  0.00017954  0.1078158 0.9200
 13  -2621.6701098288  -0.036641350871 0.01454856  0.00016056  0.0991144 0.9200
 14  -2621.7032921494  -0.033182320602 0.01248891  0.00015338  0.0911658 0.9200
 15  -2621.7346516953  -0.031359545915 0.01124791  0.00014533  0.0838557 0.9200
 16  -2621.7620415620  -0.027389866689 0.01125982  0.00013113  0.0771538 0.9200
 17  -2621.7890275451  -0.026985983078 0.01096226  0.00012398  0.0709588 0.9200
 18  -2621.8149419414  -0.025914396364 0.01011061  0.00011246  0.0652086 0.9200
 19  -2621.8384256515  -0.023483710049 0.00903996  0.00010454  0.0599683 0.9200
               *** Restarting incremental Fock matrix formation ***
                                   *** Resetting DIIS ***
 20  -2621.8607024918  -0.022276840296 0.00825830  0.00009759  0.0551622 0.9200
 21  -2621.8814410186  -0.020738526787 0.00760958  0.00008958  0.0506962 0.9200
 22  -2621.9006565863  -0.019215567736 0.00709037  0.00008268  0.0465972 0.9200
 23  -2621.9184394917  -0.017782905434 0.00657984  0.00007734  0.0428457 0.9200
 24  -2621.9349467160  -0.016507224293 0.00610097  0.00007276  0.0394114 0.9200
 25  -2621.9502784199  -0.015331703904 0.00564390  0.00006827  0.0362585 0.9200
 26  -2621.9645132769  -0.014234856910 0.00523193  0.00006367  0.0333537 0.9200
 27  -2621.9776982184  -0.013184941522 0.00483559  0.00005931  0.0306771 0.9200
 28  -2621.9899111973  -0.012212978938 0.00444363  0.00005545  0.0282145 0.9200
 29  -2622.0012512634  -0.011340066131 0.00409295  0.00005192  0.0259520 0.9200
 30  -2622.0117683193  -0.010517055844 0.00378948  0.00004835  0.0238723 0.9200
 31  -2622.0215028540  -0.009734534754 0.00350605  0.00004484  0.0219584 0.9200
 32  -2622.0305068289  -0.009003974828 0.00322258  0.00004164  0.0201967 0.9200
 33  -2622.0388457327  -0.008338903786 0.00295280  0.00003886  0.0185767 0.9200
 34  -2622.0465738313  -0.007728098662 0.00272057  0.00003622  0.0170875 0.9200
 35  -2622.0537229419  -0.007149110593 0.00251883  0.00003357  0.0157177 0.9200
 36  -2622.0603272150  -0.006604273051 0.00232424  0.00003107  0.0144569 0.9200
 37  -2622.0664299987  -0.006102783782 0.00213143  0.00002887  0.0132971 0.9200
 38  -2622.0720764216  -0.005646422811 0.00195597  0.00002693  0.0122309 0.9200
 39  -2622.0772978673  -0.005221445736 0.00179552  0.00002499  0.0112506 0.9200
               *** Restarting incremental Fock matrix formation ***
                                   *** Resetting DIIS ***
 40  -2622.0821191683  -0.004821301062 0.00164152  0.00002262  0.0103484 0.9200
 41  -2622.0865767812  -0.004457612815 0.00151056  0.00002049  0.0095109 0.9200
 42  -2622.0906863293  -0.004109548099 0.00140288  0.00001876  0.0087421 0.9200
 43  -2622.0944728023  -0.003786473072 0.00129279  0.00001753  0.0080381 0.9200
 44  -2622.0979682370  -0.003495434712 0.00122196  0.00001658  0.0073937 0.9200
 45  -2622.1011969736  -0.003228736507 0.00109449  0.00001568  0.0068022 0.9200
 46  -2622.1041777477  -0.002980774174 0.00101503  0.00001466  0.0062574 0.9200
 47  -2622.1069247898  -0.002747042045 0.00093902  0.00001364  0.0057552 0.9200
 48  -2622.1094560946  -0.002531304867 0.00086025  0.00001276  0.0052931 0.9200
 49  -2622.1117928907  -0.002336796061 0.00078860  0.00001200  0.0048685 0.9200
 50  -2622.1139500161  -0.002157125432 0.00072922  0.00001123  0.0044784 0.9200
 51  -2622.1159382846  -0.001988268467 0.00067662  0.00001043  0.0041194 0.9200
 52  -2622.1177692772  -0.001830992560 0.00062492  0.00000969  0.0037888 0.9200
 53  -2622.1194569677  -0.001687690586 0.00057647  0.00000907  0.0034848 0.9200
 54  -2622.1210144316  -0.001557463853 0.00053207  0.00000850  0.0032054 0.9200
 55  -2622.1224505204  -0.001436088821 0.00618173  0.00009890  0.0029485 0.0000
 56  -2622.1391306449  -0.016680124453 0.00067047  0.00000520  0.0003116 0.0000
 57  -2622.1391436452  -0.000013000328 0.00031604  0.00000406  0.0001510 0.0000
 58  -2622.1391590218  -0.000015376632 0.00021456  0.00000287  0.0004358 0.0000
 59  -2622.1391644401  -0.000005418284 0.00071880  0.00000401  0.0002810 0.0000
               *** Restarting incremental Fock matrix formation ***
                                   *** Resetting DIIS ***
 60  -2622.1391641155   0.000000324597 0.00024074  0.00000216  0.0001259 0.0000
 61  -2622.1391587040   0.000005411482 0.00016931  0.00000167  0.0003024 0.0000
 62  -2622.1391631773  -0.000004473305 0.00011361  0.00000138  0.0000885 0.0000
 63  -2622.1391664375  -0.000003260167 0.00019128  0.00000149  0.0000466 0.0000
 64  -2622.1391674822  -0.000001044703 0.00009558  0.00000120  0.0000280 0.0000
 65  -2622.1391679988  -0.000000516541 0.00007550  0.00000091  0.0000498 0.0000
 66  -2622.1391688954  -0.000000896641 0.00006988  0.00000087  0.0000244 0.0000
 67  -2622.1391689566  -0.000000061158 0.00008590  0.00000083  0.0000666 0.0000
 68  -2622.1391710484  -0.000002091886 0.00004942  0.00000064  0.0000765 0.0000
                 **** Energy Check signals convergence ****

               *****************************************************
               *                     SUCCESS                       *
               *           SCF CONVERGED AFTER  69 CYCLES          *
               *****************************************************


----------------
TOTAL SCF ENERGY
----------------

Total Energy       :        -2622.13917093 Eh          -71352.03431 eV

Components:
Nuclear Repulsion  :         3139.86657179 Eh           85440.11311 eV
Electronic Energy  :        -5762.00574272 Eh         -156792.14742 eV
One Electron Energy:       -10406.47493529 Eh         -283174.57931 eV
Two Electron Energy:         4644.46919258 Eh          126382.43189 eV

Virial components:
Potential Energy   :        -4342.54682591 Eh         -118166.70661 eV
Kinetic Energy     :         1720.40765498 Eh           46814.67230 eV
Virial Ratio       :            2.52413828


DFT components:
N(Alpha)           :      109.999999227933 electrons
N(Beta)            :      105.999999775699 electrons
N(Total)           :      215.999999003632 electrons
E(X)               :     -175.867440304556 Eh       
E(C)               :       -8.970380714383 Eh       
E(XC)              :     -184.837821018939 Eh       
DFET-embed. en.    :        0.000000000000 Eh       

---------------
SCF CONVERGENCE
---------------

  Last Energy change         ...    1.1696e-07  Tolerance :   1.0000e-06
  Last MAX-Density change    ...    3.5456e-05  Tolerance :   1.0000e-05
  Last RMS-Density change    ...    4.4330e-07  Tolerance :   1.0000e-06
  Last DIIS Error            ...    2.3295e-05  Tolerance :   1.0000e-06

             **** THE GBW FILE WAS UPDATED (scan.gbw) ****
             **** DENSITY scan.scfp WAS UPDATED ****
             **** ENERGY FILE WAS UPDATED (scan.en.tmp) ****
----------------------
UHF SPIN CONTAMINATION
----------------------

Warning: in a DFT calculation there is little theoretical justification to 
         calculate <S**2> as in Hartree-Fock theory. We will do it anyways
         but you should keep in mind that the values have only limited relevance

Expectation value of <S**2>     :     6.341632
Ideal value S*(S+1) for S=2.0   :     6.000000
Deviation                       :     0.341632

             **** THE GBW FILE WAS UPDATED (scan.gbw) ****
             **** DENSITY scan.scfp WAS UPDATED ****
----------------
ORBITAL ENERGIES
----------------
                 SPIN UP ORBITALS
  NO   OCC          E(Eh)            E(eV) 
   0   1.0000    -255.660885     -6956.8864 
   1   1.0000     -29.968479      -815.4838 
   2   1.0000     -25.802814      -702.1303 
   3   1.0000     -25.799906      -702.0511 
   4   1.0000     -25.790738      -701.8017 
   5   1.0000      -4.116477      -112.0150 
   6   1.0000      -4.116357      -112.0118 
   7   1.0000      -4.115965      -112.0011 
   8   1.0000      -4.115905      -111.9995 
   9   1.0000      -4.114849      -111.9707 
  10   1.0000      -4.114562      -111.9629 
  11   1.0000      -4.114181      -111.9525 
  12   1.0000      -4.113825      -111.9429 
  13   1.0000      -4.107195      -111.7624 
  14   1.0000      -4.107181      -111.7621 
  15   1.0000      -3.549180       -96.5781 
  16   1.0000      -2.324348       -63.2487 
  17   1.0000      -2.318530       -63.0904 
  18   1.0000      -2.308683       -62.8224 
  19   1.0000      -2.308658       -62.8218 
  20   1.0000      -2.307856       -62.8000 
  21   1.0000      -2.307803       -62.7985 
  22   1.0000      -2.306978       -62.7761 
  23   1.0000      -2.306153       -62.7536 
  24   1.0000      -2.305470       -62.7350 
  25   1.0000      -2.303699       -62.6868 
  26   1.0000      -2.303460       -62.6803 
  27   1.0000      -2.303295       -62.6758 
  28   1.0000      -2.302485       -62.6538 
  29   1.0000      -2.302153       -62.6448 
  30   1.0000      -2.300879       -62.6101 
  31   1.0000      -2.300136       -62.5899 
  32   1.0000      -2.299695       -62.5779 
  33   1.0000      -2.299452       -62.5713 
  34   1.0000      -2.297286       -62.5123 
  35   1.0000      -2.296614       -62.4940 
  36   1.0000      -2.296425       -62.4889 
  37   1.0000      -2.295514       -62.4641 
  38   1.0000      -2.295410       -62.4613 
  39   1.0000      -2.295262       -62.4572 
  40   1.0000      -2.294963       -62.4491 
  41   1.0000      -2.293827       -62.4182 
  42   1.0000      -2.293506       -62.4095 
  43   1.0000      -2.291899       -62.3658 
  44   1.0000      -2.291284       -62.3490 
  45   1.0000      -2.291151       -62.3454 
  46   1.0000      -2.291033       -62.3422 
  47   1.0000      -2.290069       -62.3159 
  48   1.0000      -2.290044       -62.3153 
  49   1.0000      -0.416909       -11.3447 
  50   1.0000      -0.389418       -10.5966 
  51   1.0000      -0.388287       -10.5658 
  52   1.0000      -0.384534       -10.4637 
  53   1.0000      -0.382521       -10.4089 
  54   1.0000      -0.382046       -10.3960 
  55   1.0000      -0.376541       -10.2462 
  56   1.0000      -0.375134       -10.2079 
  57   1.0000      -0.367008        -9.9868 
  58   1.0000      -0.362699        -9.8695 
  59   1.0000      -0.351927        -9.5764 
  60   1.0000      -0.345904        -9.4125 
  61   1.0000      -0.341517        -9.2932 
  62   1.0000      -0.340821        -9.2742 
  63   1.0000      -0.340743        -9.2721 
  64   1.0000      -0.340481        -9.2650 
  65   1.0000      -0.336589        -9.1591 
  66   1.0000      -0.332512        -9.0481 
  67   1.0000      -0.327394        -8.9088 
  68   1.0000      -0.326664        -8.8890 
  69   1.0000      -0.320142        -8.7115 
  70   1.0000      -0.312842        -8.5129 
  71   1.0000      -0.308434        -8.3929 
  72   1.0000      -0.308295        -8.3891 
  73   1.0000      -0.304992        -8.2992 
  74   1.0000      -0.301882        -8.2146 
  75   1.0000      -0.297511        -8.0957 
  76   1.0000      -0.296835        -8.0773 
  77   1.0000      -0.296758        -8.0752 
  78   1.0000      -0.292764        -7.9665 
  79   1.0000      -0.291754        -7.9390 
  80   1.0000      -0.290096        -7.8939 
  81   1.0000      -0.288477        -7.8498 
  82   1.0000      -0.286605        -7.7989 
  83   1.0000      -0.286226        -7.7886 
  84   1.0000      -0.282936        -7.6991 
  85   1.0000      -0.282843        -7.6965 
  86   1.0000      -0.279598        -7.6082 
  87   1.0000      -0.278010        -7.5650 
  88   1.0000      -0.276724        -7.5301 
  89   1.0000      -0.273838        -7.4515 
  90   1.0000      -0.272398        -7.4123 
  91   1.0000      -0.272094        -7.4041 
  92   1.0000      -0.271724        -7.3940 
  93   1.0000      -0.270747        -7.3674 
  94   1.0000      -0.269756        -7.3404 
  95   1.0000      -0.266468        -7.2510 
  96   1.0000      -0.266183        -7.2432 
  97   1.0000      -0.265620        -7.2279 
  98   1.0000      -0.263106        -7.1595 
  99   1.0000      -0.261880        -7.1261 
 100   1.0000      -0.256605        -6.9826 
 101   1.0000      -0.256193        -6.9714 
 102   1.0000      -0.251135        -6.8337 
 103   1.0000      -0.250290        -6.8107 
 104   1.0000      -0.246962        -6.7202 
 105   1.0000      -0.242930        -6.6105 
 106   1.0000      -0.242195        -6.5904 
 107   1.0000      -0.233563        -6.3556 
 108   1.0000      -0.220832        -6.0091 
 109   1.0000      -0.185701        -5.0532 
 110   0.0000      -0.172389        -4.6909 
 111   0.0000      -0.134521        -3.6605 
 112   0.0000      -0.125148        -3.4054 
 113   0.0000      -0.118647        -3.2285 
 114   0.0000      -0.096013        -2.6126 
 115   0.0000      -0.071021        -1.9326 
 116   0.0000      -0.056859        -1.5472 
 117   0.0000      -0.048616        -1.3229 
 118   0.0000      -0.040588        -1.1045 
 119   0.0000      -0.033477        -0.9110 
 120   0.0000      -0.024836        -0.6758 
 121   0.0000      -0.019499        -0.5306 
 122   0.0000      -0.018415        -0.5011 
 123   0.0000      -0.006023        -0.1639 
 124   0.0000       0.014295         0.3890 
 125   0.0000       0.027776         0.7558 
 126   0.0000       0.038479         1.0471 
 127   0.0000       0.045621         1.2414 
 128   0.0000       0.047973         1.3054 
 129   0.0000       0.053034         1.4431 
 130   0.0000       0.064118         1.7447 
 131   0.0000       0.067920         1.8482 
 132   0.0000       0.072162         1.9636 
 133   0.0000       0.080639         2.1943 
 134   0.0000       0.081988         2.2310 
 135   0.0000       0.087703         2.3865 
 136   0.0000       0.089567         2.4372 
 137   0.0000       0.090717         2.4685 
 138   0.0000       0.109010         2.9663 
 139   0.0000       0.112441         3.0597 
 140   0.0000       0.119610         3.2548 
 141   0.0000       0.123135         3.3507 
 142   0.0000       0.136142         3.7046 
 143   0.0000       0.147757         4.0207 
 144   0.0000       0.157536         4.2868 
 145   0.0000       0.161749         4.4014 
 146   0.0000       0.166051         4.5185 
 147   0.0000       0.168905         4.5962 
 148   0.0000       0.177728         4.8362 
 149   0.0000       0.188508         5.1296 
 150   0.0000       0.193283         5.2595 
 151   0.0000       0.193716         5.2713 
 152   0.0000       0.202473         5.5096 
 153   0.0000       0.209600         5.7035 
 154   0.0000       0.221959         6.0398 
 155   0.0000       0.225880         6.1465 
 156   0.0000       0.241722         6.5776 
 157   0.0000       0.241892         6.5822 
 158   0.0000       0.243690         6.6312 
 159   0.0000       0.245330         6.6758 
 160   0.0000       0.249258         6.7827 
 161   0.0000       0.249509         6.7895 
 162   0.0000       0.265976         7.2376 
 163   0.0000       0.284067         7.7299 
 164   0.0000       0.292329         7.9547 
 165   0.0000       0.292977         7.9723 
 166   0.0000       0.295800         8.0491 
 167   0.0000       0.303898         8.2695 
 168   0.0000       0.304472         8.2851 
 169   0.0000       0.306349         8.3362 
 170   0.0000       0.314495         8.5579 
 171   0.0000       0.332083         9.0364 
 172   0.0000       0.333450         9.0736 
 173   0.0000       0.336994         9.1701 
 174   0.0000       0.342783         9.3276 
 175   0.0000       0.345889         9.4121 
 176   0.0000       0.349942         9.5224 
 177   0.0000       0.355521         9.6742 
 178   0.0000       0.360121         9.7994 
 179   0.0000       0.360395         9.8068 
 180   0.0000       0.364981         9.9316 
 181   0.0000       0.370261        10.0753 
 182   0.0000       0.380211        10.3461 
 183   0.0000       0.382091        10.3972 
 184   0.0000       0.382406        10.4058 
 185   0.0000       0.393664        10.7121 
 186   0.0000       0.396565        10.7911 
 187   0.0000       0.405291        11.0285 
 188   0.0000       0.413853        11.2615 
 189   0.0000       0.420009        11.4290 
 190   0.0000       0.427253        11.6261 
 191   0.0000       0.431865        11.7516 
 192   0.0000       0.439854        11.9690 
 193   0.0000       0.448286        12.1985 
 194   0.0000       0.457115        12.4387 
 195   0.0000       0.458582        12.4786 
 196   0.0000       0.461044        12.5456 
 197   0.0000       0.470852        12.8125 
 198   0.0000       0.481729        13.1085 
 199   0.0000       0.482160        13.1202 
 200   0.0000       0.482656        13.1337 
 201   0.0000       0.487445        13.2640 
 202   0.0000       0.499153        13.5826 
 203   0.0000       0.510874        13.9016 
 204   0.0000       0.513010        13.9597 
 205   0.0000       0.516677        14.0595 
 206   0.0000       0.519826        14.1452 
 207   0.0000       0.525338        14.2952 
 208   0.0000       0.530187        14.4271 
 209   0.0000       0.541601        14.7377 
 210   0.0000       0.544672        14.8213 
 211   0.0000       0.560888        15.2625 
 212   0.0000       0.591972        16.1084 
 213   0.0000       0.595777        16.2119 
 214   0.0000       0.596941        16.2436 
 215   0.0000       0.636351        17.3160 
 216   0.0000       0.641716        17.4620 
 217   0.0000       0.644690        17.5429 
 218   0.0000       0.661396        17.9975 
 219   0.0000       0.693038        18.8585 
 220   0.0000       0.701692        19.0940 
 221   0.0000       0.708866        19.2892 
 222   0.0000       0.716000        19.4833 
 223   0.0000       0.721201        19.6249 
 224   0.0000       0.735911        20.0252 
 225   0.0000       0.754443        20.5294 
 226   0.0000       0.773534        21.0489 
 227   0.0000       0.785317        21.3696 
 228   0.0000       0.825582        22.4652 
 229   0.0000       0.826953        22.5025 
 230   0.0000       0.851247        23.1636 
 231   0.0000       0.879077        23.9209 
 232   0.0000       0.891764        24.2661 
 233   0.0000       0.902635        24.5620 
 234   0.0000       0.923195        25.1214 
 235   0.0000       0.941875        25.6297 
 236   0.0000       0.954025        25.9603 
 237   0.0000       0.959067        26.0975 
 238   0.0000       0.965057        26.2605 
 239   0.0000       0.965327        26.2679 
 240   0.0000       0.968519        26.3547 
 241   0.0000       0.982101        26.7243 
 242   0.0000       0.986544        26.8452 
 243   0.0000       1.002214        27.2716 
 244   0.0000       1.012879        27.5618 
 245   0.0000       1.060053        28.8455 
 246   0.0000       1.062957        28.9245 
 247   0.0000       1.113986        30.3131 
 248   0.0000       1.129123        30.7250 
 249   0.0000       1.246832        33.9280 
 250   0.0000       1.269381        34.5416 
 251   0.0000       1.282044        34.8862 
 252   0.0000       1.303583        35.4723 
 253   0.0000       1.330485        36.2043 
 254   0.0000       1.331464        36.2310 
 255   0.0000       1.364776        37.1374 
 256   0.0000       1.369789        37.2739 
 257   0.0000       1.370725        37.2993 
 258   0.0000       1.390046        37.8251 
 259   0.0000       1.390676        37.8422 
 260   0.0000       1.398736        38.0615 
 261   0.0000       1.404616        38.2216 
 262   0.0000       1.425569        38.7917 
 263   0.0000       1.426201        38.8089 
 264   0.0000       1.440922        39.2095 
 265   0.0000       1.442878        39.2627 
 266   0.0000       1.449591        39.4454 
 267   0.0000       1.452779        39.5321 
 268   0.0000       1.453084        39.5404 
 269   0.0000       1.464731        39.8574 
 270   0.0000       1.467107        39.9220 
 271   0.0000       1.473834        40.1051 
 272   0.0000       1.475306        40.1451 
 273   0.0000       1.482532        40.3418 
 274   0.0000       1.483427        40.3661 
 275   0.0000       1.496008        40.7084 
 276   0.0000       1.497104        40.7383 
 277   0.0000       1.501837        40.8671 
 278   0.0000       1.511816        41.1386 
 279   0.0000       1.515342        41.2346 
 280   0.0000       1.518690        41.3257 
 281   0.0000       1.528321        41.5877 
 282   0.0000       1.531525        41.6749 
 283   0.0000       1.534625        41.7593 
 284   0.0000       1.539228        41.8845 
 285   0.0000       1.539321        41.8871 
 286   0.0000       1.540415        41.9168 
 287   0.0000       1.540617        41.9223 
 288   0.0000       1.547159        42.1003 
 289   0.0000       1.549334        42.1595 
 290   0.0000       1.550962        42.2038 
 291   0.0000       1.551205        42.2104 
 292   0.0000       1.556589        42.3569 
 293   0.0000       1.556821        42.3633 
 294   0.0000       1.561860        42.5004 
 295   0.0000       1.562764        42.5250 
 296   0.0000       1.564028        42.5594 
 297   0.0000       1.564339        42.5678 
 298   0.0000       1.566405        42.6241 
 299   0.0000       1.567258        42.6473 
 300   0.0000       1.571804        42.7710 
 301   0.0000       1.573619        42.8204 
 302   0.0000       1.574684        42.8493 
 303   0.0000       1.575145        42.8619 
 304   0.0000       1.582412        43.0596 
 305   0.0000       1.582842        43.0713 
 306   0.0000       1.584370        43.1129 
 307   0.0000       1.584701        43.1219 
 308   0.0000       1.584974        43.1293 
 309   0.0000       1.585598        43.1463 
 310   0.0000       1.586273        43.1647 
 311   0.0000       1.588282        43.2193 
 312   0.0000       1.590388        43.2767 
 313   0.0000       1.592387        43.3310 
 314   0.0000       1.592709        43.3398 
 315   0.0000       1.595151        43.4063 
 316   0.0000       1.601897        43.5898 
 317   0.0000       1.604136        43.6508 
 318   0.0000       1.604488        43.6603 
 319   0.0000       1.608893        43.7802 
 320   0.0000       1.611499        43.8511 
 321   0.0000       1.614737        43.9392 
 322   0.0000       1.617707        44.0200 
 323   0.0000       1.617824        44.0232 
 324   0.0000       1.622656        44.1547 
 325   0.0000       1.623760        44.1847 
 326   0.0000       1.625939        44.2441 
 327   0.0000       1.627034        44.2739 
 328   0.0000       1.627632        44.2901 
 329   0.0000       1.637654        44.5628 
 330   0.0000       1.638484        44.5854 
 331   0.0000       1.640094        44.6292 
 332   0.0000       1.641854        44.6771 
 333   0.0000       1.645983        44.7895 
 334   0.0000       1.647932        44.8425 
 335   0.0000       1.658063        45.1182 
 336   0.0000       1.658714        45.1359 
 337   0.0000       1.663215        45.2584 
 338   0.0000       1.666601        45.3505 
 339   0.0000       1.667186        45.3664 
 340   0.0000       1.669053        45.4172 
 341   0.0000       1.675050        45.5804 
 342   0.0000       1.680391        45.7258 
 343   0.0000       1.683548        45.8117 
 344   0.0000       1.686916        45.9033 
 345   0.0000       1.696961        46.1767 
 346   0.0000       1.703587        46.3570 
 347   0.0000       1.709965        46.5305 
 348   0.0000       1.711915        46.5836 
 349   0.0000       1.721010        46.8311 
 350   0.0000       1.730784        47.0970 
 351   0.0000       1.744481        47.4697 
 352   0.0000       1.747947        47.5641 
 353   0.0000       1.751997        47.6743 
 354   0.0000       1.756252        47.7901 
 355   0.0000       1.784863        48.5686 
 356   0.0000       1.785813        48.5945 
 357   0.0000       1.868558        50.8461 
 358   0.0000       1.868828        50.8534 
 359   0.0000       1.893071        51.5131 
 360   0.0000       1.902611        51.7727 
 361   0.0000       1.940032        52.7910 
 362   0.0000       1.941422        52.8288 
 363   0.0000       1.975782        53.7638 
 364   0.0000       1.978605        53.8406 
 365   0.0000       1.988650        54.1139 
 366   0.0000       2.040918        55.5362 
 367   0.0000       2.041745        55.5587 
 368   0.0000       2.051193        55.8158 
 369   0.0000       2.153693        58.6050 
 370   0.0000       2.192606        59.6638 
 371   0.0000       2.227243        60.6064 
 372   0.0000       2.282682        62.1149 
 373   0.0000       2.391762        65.0831 
 374   0.0000       2.415612        65.7321 
 375   0.0000       2.457835        66.8811 
 376   0.0000       2.466726        67.1230 
 377   0.0000       2.504826        68.1598 
 378   0.0000       2.538000        69.0625 
 379   0.0000       2.577266        70.1310 
 380   0.0000       2.586236        70.3750 
 381   0.0000       2.618541        71.2541 
 382   0.0000       3.118047        84.8464 
 383   0.0000       3.583869        97.5220 
 384   0.0000       3.619766        98.4988 
 385   0.0000       3.655333        99.4667 
 386   0.0000       3.714135       101.0667 
 387   0.0000       3.719825       101.2216 
 388   0.0000       3.945700       107.3680 
 389   0.0000       3.965751       107.9136 
 390   0.0000       3.972746       108.1039 
 391   0.0000       3.973845       108.1338 
 392   0.0000       3.974949       108.1639 
 393   0.0000       3.987560       108.5070 
 394   0.0000       3.988207       108.5246 
 395   0.0000      23.866984       649.4537 
 396   0.0000      23.908820       650.5921 
 397   0.0000      23.970475       652.2698 
 398   0.0000      24.311869       661.5596 
 399   0.0000      24.332117       662.1106 
 400   0.0000      24.753588       673.5794 
 401   0.0000      24.863131       676.5602 
 402   0.0000      24.941043       678.6803 
 403   0.0000      24.968453       679.4262 
 404   0.0000      25.061825       681.9669 
 405   0.0000      25.405319       691.3139 
 406   0.0000      25.668263       698.4689 
 407   0.0000      25.889903       704.5001 
 408   0.0000      26.112601       710.5600 
 409   0.0000      26.434732       719.3256 
 410   0.0000      26.546839       722.3762 
 411   0.0000      26.648142       725.1328 
 412   0.0000      26.720808       727.1102 
 413   0.0000      26.921399       732.5685 
 414   0.0000      27.126079       738.1381 
 415   0.0000      27.230706       740.9852 
 416   0.0000      27.444352       746.7988 
 417   0.0000      27.636225       752.0199 
 418   0.0000      27.960574       760.8459 
 419   0.0000      28.027142       762.6573 
 420   0.0000      28.396413       772.7057 
 421   0.0000      28.615267       778.6610 
 422   0.0000      28.714084       781.3499 
 423   0.0000      28.775015       783.0080 
 424   0.0000      29.613864       805.8342 
 425   0.0000      44.319092      1205.9838 
 426   0.0000      44.427542      1208.9349 
 427   0.0000      44.478470      1210.3207 
 428   0.0000      44.489823      1210.6296 
 429   0.0000      44.538057      1211.9421 
 430   0.0000      44.574586      1212.9362 
 431   0.0000      44.616001      1214.0631 
 432   0.0000      44.620187      1214.1770 
 433   0.0000      44.650255      1214.9952 
 434   0.0000      44.668625      1215.4951 
 435   0.0000     205.226671      5584.5016 
 436   0.0000     205.267557      5585.6142 
 437   0.0000     205.288588      5586.1865 
 438   0.0000     205.290856      5586.2482 
 439   0.0000     205.315894      5586.9295 
 440   0.0000     205.330966      5587.3396 
 441   0.0000     205.345224      5587.7276 
 442   0.0000     205.351017      5587.8853 
 443   0.0000     205.359849      5588.1256 
 444   0.0000     205.367052      5588.3216 

                 SPIN DOWN ORBITALS
  NO   OCC          E(Eh)            E(eV) 
   0   1.0000    -255.659749     -6956.8555 
   1   1.0000     -29.883850      -813.1809 
   2   1.0000     -25.735058      -700.2865 
   3   1.0000     -25.734529      -700.2721 
   4   1.0000     -25.730149      -700.1529 
   5   1.0000      -4.115708      -111.9941 
   6   1.0000      -4.115584      -111.9907 
   7   1.0000      -4.115190      -111.9800 
   8   1.0000      -4.115124      -111.9782 
   9   1.0000      -4.113353      -111.9300 
  10   1.0000      -4.113020      -111.9210 
  11   1.0000      -4.112077      -111.8953 
  12   1.0000      -4.111722      -111.8856 
  13   1.0000      -4.107039      -111.7582 
  14   1.0000      -4.107027      -111.7579 
  15   1.0000      -3.365941       -91.5919 
  16   1.0000      -2.307483       -62.7898 
  17   1.0000      -2.306675       -62.7678 
  18   1.0000      -2.306588       -62.7655 
  19   1.0000      -2.306047       -62.7507 
  20   1.0000      -2.305750       -62.7427 
  21   1.0000      -2.304305       -62.7033 
  22   1.0000      -2.304193       -62.7003 
  23   1.0000      -2.301309       -62.6218 
  24   1.0000      -2.301269       -62.6207 
  25   1.0000      -2.301218       -62.6193 
  26   1.0000      -2.300870       -62.6099 
  27   1.0000      -2.300092       -62.5887 
  28   1.0000      -2.299022       -62.5596 
  29   1.0000      -2.298480       -62.5448 
  30   1.0000      -2.298305       -62.5401 
  31   1.0000      -2.297617       -62.5213 
  32   1.0000      -2.295982       -62.4768 
  33   1.0000      -2.295755       -62.4707 
  34   1.0000      -2.295071       -62.4521 
  35   1.0000      -2.294928       -62.4482 
  36   1.0000      -2.294862       -62.4464 
  37   1.0000      -2.294500       -62.4365 
  38   1.0000      -2.292324       -62.3773 
  39   1.0000      -2.291975       -62.3678 
  40   1.0000      -2.291067       -62.3431 
  41   1.0000      -2.290891       -62.3383 
  42   1.0000      -2.290439       -62.3260 
  43   1.0000      -2.290146       -62.3180 
  44   1.0000      -2.289985       -62.3137 
  45   1.0000      -2.289640       -62.3043 
  46   1.0000      -2.133044       -58.0431 
  47   1.0000      -2.132390       -58.0253 
  48   1.0000      -2.130278       -57.9678 
  49   1.0000      -0.412272       -11.2185 
  50   1.0000      -0.387963       -10.5570 
  51   1.0000      -0.380315       -10.3489 
  52   1.0000      -0.377503       -10.2724 
  53   1.0000      -0.368312       -10.0223 
  54   1.0000      -0.363207        -9.8834 
  55   1.0000      -0.363122        -9.8810 
  56   1.0000      -0.362539        -9.8652 
  57   1.0000      -0.348229        -9.4758 
  58   1.0000      -0.345016        -9.3884 
  59   1.0000      -0.342582        -9.3221 
  60   1.0000      -0.341350        -9.2886 
  61   1.0000      -0.334059        -9.0902 
  62   1.0000      -0.331511        -9.0209 
  63   1.0000      -0.328423        -8.9369 
  64   1.0000      -0.328263        -8.9325 
  65   1.0000      -0.327333        -8.9072 
  66   1.0000      -0.321051        -8.7362 
  67   1.0000      -0.319447        -8.6926 
  68   1.0000      -0.317499        -8.6396 
  69   1.0000      -0.311779        -8.4839 
  70   1.0000      -0.306672        -8.3450 
  71   1.0000      -0.306108        -8.3296 
  72   1.0000      -0.303023        -8.2457 
  73   1.0000      -0.299058        -8.1378 
  74   1.0000      -0.295217        -8.0333 
  75   1.0000      -0.294749        -8.0205 
  76   1.0000      -0.294190        -8.0053 
  77   1.0000      -0.289441        -7.8761 
  78   1.0000      -0.286613        -7.7991 
  79   1.0000      -0.285671        -7.7735 
  80   1.0000      -0.284446        -7.7402 
  81   1.0000      -0.281711        -7.6657 
  82   1.0000      -0.280342        -7.6285 
  83   1.0000      -0.280198        -7.6246 
  84   1.0000      -0.277798        -7.5593 
  85   1.0000      -0.275284        -7.4909 
  86   1.0000      -0.274014        -7.4563 
  87   1.0000      -0.272353        -7.4111 
  88   1.0000      -0.272048        -7.4028 
  89   1.0000      -0.271145        -7.3782 
  90   1.0000      -0.267819        -7.2877 
  91   1.0000      -0.267117        -7.2686 
  92   1.0000      -0.265467        -7.2237 
  93   1.0000      -0.263834        -7.1793 
  94   1.0000      -0.262174        -7.1341 
  95   1.0000      -0.256126        -6.9695 
  96   1.0000      -0.255504        -6.9526 
  97   1.0000      -0.255441        -6.9509 
  98   1.0000      -0.251387        -6.8406 
  99   1.0000      -0.249714        -6.7951 
 100   1.0000      -0.243226        -6.6185 
 101   1.0000      -0.242887        -6.6093 
 102   1.0000      -0.236433        -6.4337 
 103   1.0000      -0.226724        -6.1695 
 104   1.0000      -0.202460        -5.5092 
 105   1.0000      -0.194962        -5.3052 
 106   0.0000      -0.162710        -4.4276 
 107   0.0000      -0.162112        -4.4113 
 108   0.0000      -0.161482        -4.3942 
 109   0.0000      -0.156948        -4.2708 
 110   0.0000      -0.148288        -4.0351 
 111   0.0000      -0.120273        -3.2728 
 112   0.0000      -0.119848        -3.2612 
 113   0.0000      -0.114370        -3.1122 
 114   0.0000      -0.086928        -2.3654 
 115   0.0000      -0.065598        -1.7850 
 116   0.0000      -0.052227        -1.4212 
 117   0.0000      -0.046822        -1.2741 
 118   0.0000      -0.033122        -0.9013 
 119   0.0000      -0.032429        -0.8824 
 120   0.0000      -0.019474        -0.5299 
 121   0.0000      -0.014853        -0.4042 
 122   0.0000      -0.013743        -0.3740 
 123   0.0000      -0.004709        -0.1281 
 124   0.0000       0.014893         0.4053 
 125   0.0000       0.031727         0.8633 
 126   0.0000       0.040538         1.1031 
 127   0.0000       0.047528         1.2933 
 128   0.0000       0.050840         1.3834 
 129   0.0000       0.055061         1.4983 
 130   0.0000       0.064965         1.7678 
 131   0.0000       0.068313         1.8589 
 132   0.0000       0.074833         2.0363 
 133   0.0000       0.082697         2.2503 
 134   0.0000       0.084646         2.3033 
 135   0.0000       0.088183         2.3996 
 136   0.0000       0.090875         2.4728 
 137   0.0000       0.092979         2.5301 
 138   0.0000       0.110025         2.9939 
 139   0.0000       0.113874         3.0987 
 140   0.0000       0.122789         3.3413 
 141   0.0000       0.127055         3.4573 
 142   0.0000       0.137610         3.7446 
 143   0.0000       0.151067         4.1107 
 144   0.0000       0.165268         4.4972 
 145   0.0000       0.166255         4.5240 
 146   0.0000       0.170176         4.6307 
 147   0.0000       0.172012         4.6807 
 148   0.0000       0.181804         4.9471 
 149   0.0000       0.192766         5.2454 
 150   0.0000       0.197152         5.3648 
 151   0.0000       0.198048         5.3892 
 152   0.0000       0.210853         5.7376 
 153   0.0000       0.215087         5.8528 
 154   0.0000       0.222852         6.0641 
 155   0.0000       0.228399         6.2151 
 156   0.0000       0.242975         6.6117 
 157   0.0000       0.243291         6.6203 
 158   0.0000       0.246637         6.7113 
 159   0.0000       0.249477         6.7886 
 160   0.0000       0.250210         6.8086 
 161   0.0000       0.265495         7.2245 
 162   0.0000       0.267428         7.2771 
 163   0.0000       0.286782         7.8037 
 164   0.0000       0.292048         7.9470 
 165   0.0000       0.292877         7.9696 
 166   0.0000       0.296589         8.0706 
 167   0.0000       0.304033         8.2732 
 168   0.0000       0.305635         8.3167 
 169   0.0000       0.307132         8.3575 
 170   0.0000       0.317575         8.6417 
 171   0.0000       0.333424         9.0729 
 172   0.0000       0.333807         9.0833 
 173   0.0000       0.337746         9.1905 
 174   0.0000       0.344872         9.3844 
 175   0.0000       0.347071         9.4443 
 176   0.0000       0.350997         9.5511 
 177   0.0000       0.356599         9.7036 
 178   0.0000       0.361084         9.8256 
 179   0.0000       0.361479         9.8364 
 180   0.0000       0.365967         9.9585 
 181   0.0000       0.370767        10.0891 
 182   0.0000       0.381739        10.3876 
 183   0.0000       0.382541        10.4095 
 184   0.0000       0.384017        10.4496 
 185   0.0000       0.394814        10.7434 
 186   0.0000       0.397242        10.8095 
 187   0.0000       0.405388        11.0312 
 188   0.0000       0.415611        11.3094 
 189   0.0000       0.422506        11.4970 
 190   0.0000       0.428474        11.6594 
 191   0.0000       0.434518        11.8238 
 192   0.0000       0.442298        12.0355 
 193   0.0000       0.449518        12.2320 
 194   0.0000       0.459049        12.4914 
 195   0.0000       0.462006        12.5718 
 196   0.0000       0.463515        12.6129 
 197   0.0000       0.472227        12.8500 
 198   0.0000       0.484359        13.1801 
 199   0.0000       0.484685        13.1889 
 200   0.0000       0.485089        13.2000 
 201   0.0000       0.489317        13.3150 
 202   0.0000       0.501668        13.6511 
 203   0.0000       0.511966        13.9313 
 204   0.0000       0.515357        14.0236 
 205   0.0000       0.518018        14.0960 
 206   0.0000       0.520788        14.1714 
 207   0.0000       0.531720        14.4688 
 208   0.0000       0.532590        14.4925 
 209   0.0000       0.544133        14.8066 
 210   0.0000       0.545968        14.8565 
 211   0.0000       0.561443        15.2776 
 212   0.0000       0.596731        16.2379 
 213   0.0000       0.597896        16.2696 
 214   0.0000       0.602912        16.4061 
 215   0.0000       0.644675        17.5425 
 216   0.0000       0.652405        17.7528 
 217   0.0000       0.660972        17.9860 
 218   0.0000       0.664255        18.0753 
 219   0.0000       0.695286        18.9197 
 220   0.0000       0.707554        19.2535 
 221   0.0000       0.712462        19.3871 
 222   0.0000       0.725360        19.7380 
 223   0.0000       0.727032        19.7835 
 224   0.0000       0.736352        20.0372 
 225   0.0000       0.756514        20.5858 
 226   0.0000       0.775575        21.1045 
 227   0.0000       0.791033        21.5251 
 228   0.0000       0.827263        22.5110 
 229   0.0000       0.833103        22.6699 
 230   0.0000       0.853864        23.2348 
 231   0.0000       0.879649        23.9365 
 232   0.0000       0.896335        24.3905 
 233   0.0000       0.903927        24.5971 
 234   0.0000       0.941431        25.6176 
 235   0.0000       0.944372        25.6977 
 236   0.0000       0.967086        26.3157 
 237   0.0000       0.968387        26.3511 
 238   0.0000       0.971583        26.4381 
 239   0.0000       0.978618        26.6295 
 240   0.0000       0.987092        26.8601 
 241   0.0000       0.994877        27.0720 
 242   0.0000       0.995905        27.0999 
 243   0.0000       1.016478        27.6598 
 244   0.0000       1.028816        27.9955 
 245   0.0000       1.072313        29.1791 
 246   0.0000       1.072880        29.1945 
 247   0.0000       1.121109        30.5069 
 248   0.0000       1.130733        30.7688 
 249   0.0000       1.249004        33.9871 
 250   0.0000       1.271395        34.5964 
 251   0.0000       1.284981        34.9661 
 252   0.0000       1.303715        35.4759 
 253   0.0000       1.333611        36.2894 
 254   0.0000       1.334785        36.3213 
 255   0.0000       1.365436        37.1554 
 256   0.0000       1.370956        37.3056 
 257   0.0000       1.371460        37.3193 
 258   0.0000       1.393507        37.9193 
 259   0.0000       1.393846        37.9285 
 260   0.0000       1.399005        38.0689 
 261   0.0000       1.405675        38.2504 
 262   0.0000       1.426844        38.8264 
 263   0.0000       1.428035        38.8588 
 264   0.0000       1.443708        39.2853 
 265   0.0000       1.444820        39.3155 
 266   0.0000       1.450734        39.4765 
 267   0.0000       1.453662        39.5561 
 268   0.0000       1.455551        39.6075 
 269   0.0000       1.466593        39.9080 
 270   0.0000       1.469188        39.9786 
 271   0.0000       1.476656        40.1818 
 272   0.0000       1.478250        40.2252 
 273   0.0000       1.484284        40.3894 
 274   0.0000       1.486051        40.4375 
 275   0.0000       1.498238        40.7691 
 276   0.0000       1.499401        40.8008 
 277   0.0000       1.503959        40.9248 
 278   0.0000       1.512595        41.1598 
 279   0.0000       1.517129        41.2832 
 280   0.0000       1.519480        41.3472 
 281   0.0000       1.531526        41.6749 
 282   0.0000       1.534840        41.7651 
 283   0.0000       1.535798        41.7912 
 284   0.0000       1.540187        41.9106 
 285   0.0000       1.540963        41.9317 
 286   0.0000       1.542801        41.9818 
 287   0.0000       1.543315        41.9957 
 288   0.0000       1.547613        42.1127 
 289   0.0000       1.552021        42.2326 
 290   0.0000       1.552572        42.2476 
 291   0.0000       1.555251        42.3205 
 292   0.0000       1.558671        42.4136 
 293   0.0000       1.559615        42.4393 
 294   0.0000       1.564174        42.5633 
 295   0.0000       1.564382        42.5690 
 296   0.0000       1.565463        42.5984 
 297   0.0000       1.566458        42.6255 
 298   0.0000       1.567360        42.6500 
 299   0.0000       1.570105        42.7247 
 300   0.0000       1.572694        42.7952 
 301   0.0000       1.574638        42.8481 
 302   0.0000       1.575347        42.8674 
 303   0.0000       1.577024        42.9130 
 304   0.0000       1.583264        43.0828 
 305   0.0000       1.584781        43.1241 
 306   0.0000       1.585940        43.1556 
 307   0.0000       1.586414        43.1685 
 308   0.0000       1.586440        43.1692 
 309   0.0000       1.587118        43.1877 
 310   0.0000       1.589399        43.2497 
 311   0.0000       1.590765        43.2869 
 312   0.0000       1.592325        43.3294 
 313   0.0000       1.593874        43.3715 
 314   0.0000       1.596243        43.4360 
 315   0.0000       1.597933        43.4820 
 316   0.0000       1.603576        43.6355 
 317   0.0000       1.606656        43.7193 
 318   0.0000       1.607921        43.7538 
 319   0.0000       1.611371        43.8476 
 320   0.0000       1.614251        43.9260 
 321   0.0000       1.616324        43.9824 
 322   0.0000       1.618447        44.0402 
 323   0.0000       1.620782        44.1037 
 324   0.0000       1.624289        44.1991 
 325   0.0000       1.625996        44.2456 
 326   0.0000       1.628336        44.3093 
 327   0.0000       1.629799        44.3491 
 328   0.0000       1.630377        44.3648 
 329   0.0000       1.639708        44.6187 
 330   0.0000       1.640033        44.6276 
 331   0.0000       1.642411        44.6923 
 332   0.0000       1.643674        44.7266 
 333   0.0000       1.647884        44.8412 
 334   0.0000       1.649650        44.8892 
 335   0.0000       1.659754        45.1642 
 336   0.0000       1.660785        45.1923 
 337   0.0000       1.664521        45.2939 
 338   0.0000       1.667718        45.3809 
 339   0.0000       1.669442        45.4278 
 340   0.0000       1.671581        45.4860 
 341   0.0000       1.675845        45.6021 
 342   0.0000       1.681163        45.7468 
 343   0.0000       1.685787        45.8726 
 344   0.0000       1.688346        45.9422 
 345   0.0000       1.702683        46.3324 
 346   0.0000       1.705855        46.4187 
 347   0.0000       1.711285        46.5664 
 348   0.0000       1.716058        46.6963 
 349   0.0000       1.728872        47.0450 
 350   0.0000       1.753939        47.7271 
 351   0.0000       1.756130        47.7867 
 352   0.0000       1.760104        47.8949 
 353   0.0000       1.762926        47.9717 
 354   0.0000       1.773565        48.2612 
 355   0.0000       1.790151        48.7125 
 356   0.0000       1.790881        48.7323 
 357   0.0000       1.872094        50.9423 
 358   0.0000       1.878066        51.1048 
 359   0.0000       1.895180        51.5705 
 360   0.0000       1.911687        52.0197 
 361   0.0000       1.946878        52.9773 
 362   0.0000       1.948018        53.0083 
 363   0.0000       1.981990        53.9327 
 364   0.0000       1.989049        54.1248 
 365   0.0000       1.998179        54.3732 
 366   0.0000       2.043227        55.5990 
 367   0.0000       2.045311        55.6557 
 368   0.0000       2.058591        56.0171 
 369   0.0000       2.159908        58.7741 
 370   0.0000       2.262694        61.5710 
 371   0.0000       2.287783        62.2538 
 372   0.0000       2.291685        62.3599 
 373   0.0000       2.401111        65.3375 
 374   0.0000       2.438898        66.3658 
 375   0.0000       2.463266        67.0289 
 376   0.0000       2.501144        68.0596 
 377   0.0000       2.529146        68.8216 
 378   0.0000       2.540047        69.1182 
 379   0.0000       2.579076        70.1802 
 380   0.0000       2.587985        70.4227 
 381   0.0000       2.620611        71.3104 
 382   0.0000       3.246617        88.3449 
 383   0.0000       3.704639       100.8083 
 384   0.0000       3.765387       102.4614 
 385   0.0000       3.797094       103.3242 
 386   0.0000       3.816715       103.8581 
 387   0.0000       3.855075       104.9019 
 388   0.0000       4.112056       111.8947 
 389   0.0000       4.122508       112.1791 
 390   0.0000       4.130139       112.3868 
 391   0.0000       4.133834       112.4873 
 392   0.0000       4.140077       112.6572 
 393   0.0000       4.152016       112.9821 
 394   0.0000       4.156248       113.0973 
 395   0.0000      23.867822       649.4765 
 396   0.0000      23.909134       650.6006 
[...]
      dx2y2   :    -0.001783
      dxy     :     0.006250
      f0      :     0.000005  f :     0.000079
      f+1     :     0.000027
      f-1     :     0.000033
      f+2     :    -0.000003
      f-2     :     0.000008
      f+3     :     0.000009
      f-3     :     0.000000
  8 Aus       :    -0.258923  s :    -0.258923
      pz      :    -0.003959  p :     0.008202
      px      :     0.009091
      py      :     0.003069
      dz2     :     0.004036  d :     0.017702
      dxz     :     0.001202
      dyz     :    -0.003086
      dx2y2   :     0.006934
      dxy     :     0.008616
      f0      :     0.000001  f :     0.000028
      f+1     :     0.000009
      f-1     :    -0.000007
      f+2     :     0.000011
      f-2     :     0.000010
      f+3     :    -0.000001
      f-3     :     0.000006
  9 Aus       :    -0.242484  s :    -0.242484
      pz      :    -0.006540  p :     0.006808
      px      :     0.004186
      py      :     0.009163
      dz2     :     0.002666  d :     0.019597
      dxz     :    -0.003549
      dyz     :     0.006210
      dx2y2   :     0.011616
      dxy     :     0.002654
      f0      :    -0.000027  f :     0.000028
      f+1     :     0.000001
      f-1     :     0.000032
      f+2     :    -0.000001
      f-2     :    -0.000009
      f+3     :     0.000017
      f-3     :     0.000016
 10 Fes       :     0.014532  s :     0.014532
      pz      :     0.011026  p :     0.022322
      px      :     0.010494
      py      :     0.000802
      dz2     :     0.385044  d :     3.192288
      dxz     :     0.799055
      dyz     :     0.696547
      dx2y2   :     0.547764
      dxy     :     0.763878
      f0      :     0.000002  f :     0.000023
      f+1     :    -0.000011
      f-1     :     0.000012
      f+2     :     0.000001
      f-2     :    -0.000003
      f+3     :     0.000014
      f-3     :     0.000007


                     *******************************
                     * LOEWDIN POPULATION ANALYSIS *
                     *******************************

-------------------------------------------
LOEWDIN ATOMIC CHARGES AND SPIN POPULATIONS
-------------------------------------------
   0 Au:    0.090111   -0.137946
   1 Au:   -0.015322   -0.145235
   2 Au:   -0.017889   -0.152322
   3 Au:    0.112170   -0.133569
   4 Au:    0.112367   -0.134372
   5 Au:    0.089909   -0.138636
   6 Au:    0.009224   -0.027018
   7 Au:    0.009327   -0.027069
   8 Au:   -0.016669   -0.152430
   9 Au:   -0.016070   -0.144480
  10 Fe:   -0.357158    3.193077

----------------------------------------------------
LOEWDIN REDUCED ORBITAL CHARGES AND SPIN POPULATIONS
----------------------------------------------------
CHARGE
  0 Aus       :     2.770793  s :     2.770793
      pz      :     2.077490  p :     6.251203
      px      :     2.080802
      py      :     2.092911
      dz2     :     1.982495  d :     9.883827
      dxz     :     1.989329
      dyz     :     1.954767
      dx2y2   :     1.968717
      dxy     :     1.988519
      f0      :     0.000448  f :     0.004065
      f+1     :     0.000296
      f-1     :     0.000614
      f+2     :     0.000793
      f-2     :     0.000555
      f+3     :     0.000628
      f-3     :     0.000731
  1 Aus       :     2.626697  s :     2.626697
      pz      :     2.085790  p :     6.508074
      px      :     2.292223
      py      :     2.130062
      dz2     :     1.986066  d :     9.874478
      dxz     :     1.984918
      dyz     :     1.982378
      dx2y2   :     1.954393
      dxy     :     1.966723
      f0      :     0.000601  f :     0.006072
      f+1     :     0.000794
      f-1     :     0.000544
      f+2     :     0.000463
      f-2     :     0.000957
      f+3     :     0.001218
      f-3     :     0.001495
  2 Aus       :     2.627241  s :     2.627241
      pz      :     2.140783  p :     6.509135
      px      :     2.104789
      py      :     2.263562
      dz2     :     1.990121  d :     9.875412
      dxz     :     1.962806
      dyz     :     1.970899
      dx2y2   :     1.976392
      dxy     :     1.975194
      f0      :     0.000886  f :     0.006101
      f+1     :     0.000443
      f-1     :     0.000824
      f+2     :     0.000927
      f-2     :     0.000967
      f+3     :     0.001102
      f-3     :     0.000953
  3 Aus       :     2.744169  s :     2.744169
      pz      :     2.057754  p :     6.308826
      px      :     2.086026
      py      :     2.165045
      dz2     :     1.982891  d :     9.829606
      dxz     :     1.971764
      dyz     :     1.973741
      dx2y2   :     1.952495
      dxy     :     1.948716
      f0      :     0.000563  f :     0.005228
      f+1     :     0.000542
      f-1     :     0.000644
      f+2     :     0.000628
      f-2     :     0.000653
      f+3     :     0.000951
      f-3     :     0.001247
  4 Aus       :     2.744257  s :     2.744257
      pz      :     2.081545  p :     6.308706
      px      :     2.060508
      py      :     2.166653
      dz2     :     1.954795  d :     9.829469
      dxz     :     1.977681
      dyz     :     1.947056
      dx2y2   :     1.978040
      dxy     :     1.971898
      f0      :     0.000702  f :     0.005200
      f+1     :     0.000549
      f-1     :     0.001174
      f+2     :     0.000683
      f-2     :     0.000777
      f+3     :     0.000734
      f-3     :     0.000582
  5 Aus       :     2.770839  s :     2.770839
      pz      :     2.088895  p :     6.251444
      px      :     2.073217
      py      :     2.089332
      dz2     :     1.963035  d :     9.883738
      dxz     :     1.984037
      dyz     :     1.984859
      dx2y2   :     1.989575
      dxy     :     1.962233
      f0      :     0.000795  f :     0.004069
      f+1     :     0.000468
      f-1     :     0.000687
      f+2     :     0.000268
      f-2     :     0.000636
      f+3     :     0.000703
      f-3     :     0.000513
  6 Aus       :     2.670746  s :     2.670746
      pz      :     2.166036  p :     6.477137
      px      :     2.079923
      py      :     2.231178
      dz2     :     1.985220  d :     9.836911
      dxz     :     1.956665
      dyz     :     1.960166
      dx2y2   :     1.962711
      dxy     :     1.972150
      f0      :     0.000810  f :     0.005982
      f+1     :     0.000352
      f-1     :     0.000869
      f+2     :     0.001218
      f-2     :     0.000918
      f+3     :     0.000955
      f-3     :     0.000861
  7 Aus       :     2.670827  s :     2.670827
      pz      :     2.082951  p :     6.476961
      px      :     2.142395
      py      :     2.251615
      dz2     :     1.951957  d :     9.836895
      dxz     :     1.964930
      dyz     :     1.974164
      dx2y2   :     1.972729
      dxy     :     1.973116
      f0      :     0.000753  f :     0.005990
      f+1     :     0.000534
      f-1     :     0.000988
      f+2     :     0.000712
      f-2     :     0.000801
      f+3     :     0.001432
      f-3     :     0.000771
  8 Aus       :     2.628621  s :     2.628621
      pz      :     2.127416  p :     6.506343
      px      :     2.149969
      py      :     2.228958
      dz2     :     1.981015  d :     9.875648
      dxz     :     1.967360
      dyz     :     1.979685
      dx2y2   :     1.978511
      dxy     :     1.969077
      f0      :     0.000793  f :     0.006058
      f+1     :     0.000407
      f-1     :     0.000661
      f+2     :     0.001123
      f-2     :     0.001226
      f+3     :     0.000874
      f-3     :     0.000973
  9 Aus       :     2.625417  s :     2.625417
      pz      :     2.282934  p :     6.510584
      px      :     2.109181
      py      :     2.118469
      dz2     :     1.963078  d :     9.873946
      dxz     :     1.985525
      dyz     :     1.977431
      dx2y2   :     1.964091
      dxy     :     1.983820
      f0      :     0.001206  f :     0.006123
      f+1     :     0.000788
      f-1     :     0.001302
      f+2     :     0.000751
      f-2     :     0.000972
      f+3     :     0.000467
      f-3     :     0.000637
 10 Fes       :     6.340975  s :     6.340975
      pz      :     4.216224  p :    12.650755
      px      :     4.218207
      py      :     4.216323
      dz2     :     1.712759  d :     7.364825
      dxz     :     1.323636
      dyz     :     1.411870
      dx2y2   :     1.571221
      dxy     :     1.345338
      f0      :     0.000081  f :     0.000603
      f+1     :     0.000085
      f-1     :     0.000100
      f+2     :     0.000065
      f-2     :     0.000096
      f+3     :     0.000066
      f-3     :     0.000110

SPIN
  0 Aus       :    -0.059062  s :    -0.059062
      pz      :    -0.017065  p :    -0.046465
      px      :    -0.022210
      py      :    -0.007189
      dz2     :    -0.002294  d :    -0.032300
      dxz     :    -0.001107
      dyz     :    -0.015435
      dx2y2   :    -0.012823
      dxy     :    -0.000640
      f0      :    -0.000013  f :    -0.000120
      f+1     :    -0.000017
      f-1     :    -0.000002
      f+2     :    -0.000044
      f-2     :    -0.000009
      f+3     :    -0.000024
      f-3     :    -0.000011
  1 Aus       :    -0.118551  s :    -0.118551
      pz      :    -0.012620  p :    -0.039943
      px      :    -0.025951
      py      :    -0.001371
      dz2     :     0.001965  d :     0.013206
      dxz     :    -0.011665
      dyz     :     0.004815
      dx2y2   :     0.013949
      dxy     :     0.004142
      f0      :     0.000001  f :     0.000053
      f+1     :    -0.000010
      f-1     :     0.000027
      f+2     :     0.000037
      f-2     :    -0.000048
      f+3     :    -0.000032
      f-3     :     0.000078
  2 Aus       :    -0.122420  s :    -0.122420
      pz      :    -0.022340  p :    -0.040445
      px      :    -0.017003
      py      :    -0.001102
      dz2     :     0.002139  d :     0.010495
      dxz     :     0.005618
      dyz     :     0.006953
      dx2y2   :     0.003151
      dxy     :    -0.007367
      f0      :    -0.000010  f :     0.000049
      f+1     :     0.000027
      f-1     :    -0.000005
      f+2     :    -0.000020
      f-2     :     0.000056
      f+3     :     0.000007
      f-3     :    -0.000007
  3 Aus       :     0.005290  s :     0.005290
      pz      :    -0.014626  p :    -0.113848
      px      :    -0.012956
      py      :    -0.086266
      dz2     :    -0.004411  d :    -0.025025
      dxz     :     0.009307
      dyz     :    -0.008346
      dx2y2   :    -0.004233
      dxy     :    -0.017342
      f0      :    -0.000024  f :     0.000013
      f+1     :    -0.000020
      f-1     :    -0.000034
      f+2     :     0.000009
      f-2     :     0.000018
      f+3     :     0.000041
      f-3     :     0.000022
  4 Aus       :     0.005313  s :     0.005313
      pz      :    -0.012761  p :    -0.113947
      px      :    -0.015694
      py      :    -0.085492
      dz2     :    -0.004421  d :    -0.025755
      dxz     :    -0.000811
      dyz     :    -0.015254
      dx2y2   :    -0.003642
      dxy     :    -0.001627
      f0      :     0.000069  f :     0.000017
      f+1     :     0.000005
      f-1     :     0.000091
      f+2     :     0.000011
      f-2     :    -0.000017
      f+3     :    -0.000112
      f-3     :    -0.000031
  5 Aus       :    -0.059640  s :    -0.059640
      pz      :    -0.023891  p :    -0.046538
      px      :    -0.017953
      py      :    -0.004694
      dz2     :    -0.015312  d :    -0.032338
      dxz     :    -0.003920
      dyz     :    -0.002021
      dx2y2   :     0.000141
      dxy     :    -0.011226
      f0      :    -0.000048  f :    -0.000120
      f+1     :    -0.000016
      f-1     :    -0.000002
      f+2     :     0.000000
      f-2     :    -0.000022
      f+3     :    -0.000029
      f-3     :    -0.000004
  6 Aus       :    -0.028186  s :    -0.028186
      pz      :    -0.000841  p :    -0.028227
      px      :    -0.010073
      py      :    -0.017314
      dz2     :    -0.005918  d :     0.029195
      dxz     :     0.013491
      dyz     :     0.010240
      dx2y2   :     0.008656
      dxy     :     0.002725
      f0      :     0.000039  f :     0.000200
      f+1     :     0.000014
      f-1     :    -0.000001
      f+2     :     0.000023
      f-2     :     0.000097
      f+3     :    -0.000003
      f-3     :     0.000031
  7 Aus       :    -0.028046  s :    -0.028046
      pz      :    -0.007614  p :    -0.028362
      px      :    -0.005433
      py      :    -0.015314
      dz2     :     0.017041  d :     0.029140
      dxz     :     0.011045
      dyz     :     0.000423
      dx2y2   :    -0.004613
      dxy     :     0.005244
      f0      :     0.000026  f :     0.000199
      f+1     :     0.000076
      f-1     :     0.000069
      f+2     :    -0.000000
      f-2     :     0.000022
      f+3     :     0.000005
      f-3     :     0.000001
  8 Aus       :    -0.123794  s :    -0.123794
      pz      :    -0.018293  p :    -0.039692
      px      :    -0.022897
      py      :     0.001497
      dz2     :     0.004448  d :     0.011004
      dxz     :    -0.002319
      dyz     :    -0.006520
      dx2y2   :     0.007664
      dxy     :     0.007732
      f0      :     0.000004  f :     0.000052
      f+1     :     0.000016
      f-1     :    -0.000010
      f+2     :     0.000012
      f-2     :     0.000012
      f+3     :     0.000003
      f-3     :     0.000015
  9 Aus       :    -0.116852  s :    -0.116852
      pz      :    -0.027461  p :    -0.040562
      px      :    -0.012434
      py      :    -0.000667
      dz2     :    -0.000242  d :     0.012883
      dxz     :    -0.005772
      dyz     :     0.006262
      dx2y2   :     0.012383
      dxy     :     0.000253
      f0      :    -0.000069  f :     0.000051
      f+1     :     0.000001
      f-1     :     0.000066
      f+2     :    -0.000004
      f-2     :    -0.000029
      f+3     :     0.000030
      f-3     :     0.000056
 10 Fes       :     0.018107  s :     0.018107
      pz      :     0.007979  p :     0.014886
      px      :     0.007038
      py      :    -0.000132
      dz2     :     0.387173  d :     3.160073
      dxz     :     0.788013
      dyz     :     0.693154
      dx2y2   :     0.537083
      dxy     :     0.754651
      f0      :     0.000001  f :     0.000012
      f+1     :    -0.000012
      f-1     :     0.000011
      f+2     :     0.000000
      f-2     :    -0.000006
      f+3     :     0.000013
      f-3     :     0.000005


                      *****************************
                      * MAYER POPULATION ANALYSIS *
                      *****************************

  NA   - Mulliken gross atomic population
  ZA   - Total nuclear charge
  QA   - Mulliken gross atomic charge
  VA   - Mayer's total valence
  BVA  - Mayer's bonded valence
  FA   - Mayer's free valence

  ATOM       NA         ZA         QA         VA         BVA        FA
  0 Au    18.6490    19.0000     0.3510     1.3561     1.3372     0.0189
  1 Au    18.9717    19.0000     0.0283     1.7570     1.6828     0.0742
  2 Au    18.9764    19.0000     0.0236     1.7530     1.6744     0.0785
  3 Au    18.7900    19.0000     0.2100     1.5655     1.5622     0.0033
  4 Au    18.7892    19.0000     0.2108     1.5655     1.5620     0.0035
  5 Au    18.6492    19.0000     0.3508     1.3565     1.3373     0.0192
  6 Au    18.9838    19.0000     0.0162     1.8351     1.8282     0.0069
  7 Au    18.9842    19.0000     0.0158     1.8353     1.8285     0.0068
  8 Au    18.9770    19.0000     0.0230     1.7487     1.6691     0.0797
  9 Au    18.9704    19.0000     0.0296     1.7604     1.6877     0.0727
 10 Fe    27.2590    26.0000    -1.2590     7.1538     4.3777     2.7761

  Mayer bond orders larger than 0.100000
B(  0-Au,  1-Au) :   0.3329 B(  0-Au,  2-Au) :   0.3313 B(  0-Au,  6-Au) :   0.3390 
B(  1-Au,  2-Au) :   0.2028 B(  1-Au,  3-Au) :   0.3978 B(  1-Au, 10-Fe) :   0.5209 
B(  2-Au,  4-Au) :   0.3956 B(  2-Au, 10-Fe) :   0.5129 B(  3-Au,  8-Au) :   0.3943 
B(  3-Au, 10-Fe) :   0.5172 B(  4-Au,  9-Au) :   0.3985 B(  4-Au, 10-Fe) :   0.5150 
B(  5-Au,  7-Au) :   0.3398 B(  5-Au,  8-Au) :   0.3288 B(  5-Au,  9-Au) :   0.3347 
B(  6-Au,  7-Au) :   0.5926 B(  6-Au, 10-Fe) :   0.5706 B(  7-Au, 10-Fe) :   0.5703 
B(  8-Au,  9-Au) :   0.2029 B(  8-Au, 10-Fe) :   0.5135 B(  9-Au, 10-Fe) :   0.5213 


-------
TIMINGS
-------

Total SCF time: 0 days 0 hours 1 min 45 sec 

Total time                  ....     105.696 sec
Sum of individual times     ....     104.637 sec  ( 99.0%)

Fock matrix formation       ....      97.860 sec  ( 92.6%)
  Split-RI-J                ....      16.239 sec  ( 16.6% of F)
  XC integration            ....      80.926 sec  ( 82.7% of F)
    Basis function eval.    ....       5.256 sec  (  6.5% of XC)
    Density eval.           ....      31.936 sec  ( 39.5% of XC)
    XC-Functional eval.     ....       4.058 sec  (  5.0% of XC)
    XC-Potential eval.      ....      37.040 sec  ( 45.8% of XC)
Diagonalization             ....       3.816 sec  (  3.6%)
Density matrix formation    ....       0.233 sec  (  0.2%)
Population analysis         ....       0.061 sec  (  0.1%)
Initial guess               ....       0.083 sec  (  0.1%)
Orbital Transformation      ....       0.000 sec  (  0.0%)
Orbital Orthonormalization  ....       0.067 sec  (  0.1%)
DIIS solution               ....       1.684 sec  (  1.6%)
Grid generation             ....       0.899 sec  (  0.9%)

Maximum memory used throughout the entire SCF-calculation: 62.7 MB

-------------------------   --------------------
FINAL SINGLE POINT ENERGY     -2622.127936460570
-------------------------   --------------------


                            ***************************************
                            *     ORCA property calculations      *
                            ***************************************

                                    ---------------------
                                    Active property flags
                                    ---------------------
   (+) Dipole Moment


------------------------------------------------------------------------------
                       ORCA ELECTRIC PROPERTIES CALCULATION
------------------------------------------------------------------------------

Dipole Moment Calculation                       ... on
Quadrupole Moment Calculation                   ... off
Polarizability Calculation                      ... off
GBWName                                         ... scan_job2.gbw
Electron density                                ... scan_job2.scfp
The origin for moment calculation is the CENTER OF MASS  = (16.802600, 12.662491 14.343148)

-------------
DIPOLE MOMENT
-------------
                                X             Y             Z
Electronic contribution:      7.02513       0.93951      -9.15984
Nuclear contribution   :     -7.04881      -0.93907       9.18295
                        -----------------------------------------
Total Dipole Moment    :     -0.02369       0.00044       0.02311
                        -----------------------------------------
Magnitude (a.u.)       :      0.03309
Magnitude (Debye)      :      0.08412



--------------------
Rotational spectrum 
--------------------
 
Rotational constants in cm-1:     0.002437     0.001193     0.001174 
Rotational constants in MHz :    73.048490    35.777097    35.189543 

 Dipole components along the rotational axes: 
x,y,z [a.u.] :     0.000157    -0.032734    -0.004869 
x,y,z [Debye]:     0.000400    -0.083203    -0.012375 

 

Timings for individual modules:

Sum of individual times         ...      109.792 sec (=   1.830 min)
GTO integral calculation        ...        4.017 sec (=   0.067 min)   3.7 %
SCF iterations                  ...      105.775 sec (=   1.763 min)  96.3 %



                             ****ORCA TERMINATED NORMALLY****
TOTAL RUN TIME: 0 days 0 hours 4 minutes 14 seconds 199 msec
