
                                 *****************
                                 * O   R   C   A *
                                 *****************

                                            #,                                       
                                            ###                                      
                                            ####                                     
                                            #####                                    
                                            ######                                   
                                           ########,                                 
                                     ,,################,,,,,                         
                               ,,#################################,,                 
                          ,,##########################################,,             
                       ,#########################################, ''#####,          
                    ,#############################################,,   '####,        
                  ,##################################################,,,,####,       
                ,###########''''           ''''###############################       
              ,#####''   ,,,,##########,,,,          '''####'''          '####       
            ,##' ,,,,###########################,,,                        '##       
           ' ,,###''''                  '''############,,,                           
         ,,##''                                '''############,,,,        ,,,,,,###''
      ,#''                                            '''#######################'''  
     '                                                          ''''####''''         
             ,#######,   #######,   ,#######,      ##                                
            ,#'     '#,  ##    ##  ,#'     '#,    #''#        ######   ,####,        
            ##       ##  ##   ,#'  ##            #'  '#       #        #'  '#        
            ##       ##  #######   ##           ,######,      #####,   #    #        
            '#,     ,#'  ##    ##  '#,     ,#' ,#      #,         ##   #,  ,#        
             '#######'   ##     ##  '#######'  #'      '#     #####' # '####'        



                  #######################################################
                  #                        -***-                        #
                  #          Department of theory and spectroscopy      #
                  #    Directorship and core code : Frank Neese         #
                  #        Max Planck Institute fuer Kohlenforschung    #
                  #                Kaiser Wilhelm Platz 1               #
                  #                 D-45470 Muelheim/Ruhr               #
                  #                      Germany                        #
                  #                                                     #
                  #                  All rights reserved                #
                  #                        -***-                        #
                  #######################################################


                         Program Version 5.0.3 -  RELEASE  -


 With contributions from (in alphabetic order):
   Daniel Aravena         : Magnetic Suceptibility
   Michael Atanasov       : Ab Initio Ligand Field Theory (pilot matlab implementation)
   Alexander A. Auer      : GIAO ZORA, VPT2 properties, NMR spectrum
   Ute Becker             : Parallelization
   Giovanni Bistoni       : ED, misc. LED, open-shell LED, HFLD
   Martin Brehm           : Molecular dynamics
   Dmytro Bykov           : SCF Hessian
   Vijay G. Chilkuri      : MRCI spin determinant printing, contributions to CSF-ICE
   Dipayan Datta          : RHF DLPNO-CCSD density
   Achintya Kumar Dutta   : EOM-CC, STEOM-CC
   Dmitry Ganyushin       : Spin-Orbit,Spin-Spin,Magnetic field MRCI
   Miquel Garcia          : C-PCM and meta-GGA Hessian, CC/C-PCM, Gaussian charge scheme
   Yang Guo               : DLPNO-NEVPT2, F12-NEVPT2, CIM, IAO-localization
   Andreas Hansen         : Spin unrestricted coupled pair/coupled cluster methods
   Benjamin Helmich-Paris : MC-RPA, TRAH-SCF, COSX integrals
   Lee Huntington         : MR-EOM, pCC
   Robert Izsak           : Overlap fitted RIJCOSX, COSX-SCS-MP3, EOM
   Marcus Kettner         : VPT2
   Christian Kollmar      : KDIIS, OOCD, Brueckner-CCSD(T), CCSD density, CASPT2, CASPT2-K
   Simone Kossmann        : Meta GGA functionals, TD-DFT gradient, OOMP2, MP2 Hessian
   Martin Krupicka        : Initial AUTO-CI
   Lucas Lang             : DCDCAS
   Marvin Lechner         : AUTO-CI (C++ implementation), FIC-MRCC
   Dagmar Lenk            : GEPOL surface, SMD
   Dimitrios Liakos       : Extrapolation schemes; Compound Job, initial MDCI parallelization
   Dimitrios Manganas     : Further ROCIS development; embedding schemes
   Dimitrios Pantazis     : SARC Basis sets
   Anastasios Papadopoulos: AUTO-CI, single reference methods and gradients
   Taras Petrenko         : DFT Hessian,TD-DFT gradient, ASA, ECA, R-Raman, ABS, FL, XAS/XES, NRVS
   Peter Pinski           : DLPNO-MP2, DLPNO-MP2 Gradient
   Christoph Reimann      : Effective Core Potentials
   Marius Retegan         : Local ZFS, SOC
   Christoph Riplinger    : Optimizer, TS searches, QM/MM, DLPNO-CCSD(T), (RO)-DLPNO pert. Triples
   Tobias Risthaus        : Range-separated hybrids, TD-DFT gradient, RPA, STAB
   Michael Roemelt        : Original ROCIS implementation
   Masaaki Saitow         : Open-shell DLPNO-CCSD energy and density
   Barbara Sandhoefer     : DKH picture change effects
   Avijit Sen             : IP-ROCIS
   Kantharuban Sivalingam : CASSCF convergence, NEVPT2, FIC-MRCI
   Bernardo de Souza      : ESD, SOC TD-DFT
   Georgi Stoychev        : AutoAux, RI-MP2 NMR, DLPNO-MP2 response
   Willem Van den Heuvel  : Paramagnetic NMR
   Boris Wezisla          : Elementary symmetry handling
   Frank Wennmohs         : Technical directorship


 We gratefully acknowledge several colleagues who have allowed us to
 interface, adapt or use parts of their codes:
   Stefan Grimme, W. Hujo, H. Kruse, P. Pracht,  : VdW corrections, initial TS optimization,
                  C. Bannwarth, S. Ehlert          DFT functionals, gCP, sTDA/sTD-DF
   Ed Valeev, F. Pavosevic, A. Kumar             : LibInt (2-el integral package), F12 methods
   Garnet Chan, S. Sharma, J. Yang, R. Olivares  : DMRG
   Ulf Ekstrom                                   : XCFun DFT Library
   Mihaly Kallay                                 : mrcc  (arbitrary order and MRCC methods)
   Jiri Pittner, Ondrej Demel                    : Mk-CCSD
   Frank Weinhold                                : gennbo (NPA and NBO analysis)
   Christopher J. Cramer and Donald G. Truhlar   : smd solvation model
   Lars Goerigk                                  : TD-DFT with DH, B97 family of functionals
   V. Asgeirsson, H. Jonsson                     : NEB implementation
   FAccTs GmbH                                   : IRC, NEB, NEB-TS, DLPNO-Multilevel, CI-OPT
                                                   MM, QMMM, 2- and 3-layer-ONIOM, Crystal-QMMM,
                                                   LR-CPCM, SF, NACMEs, symmetry and pop. for TD-DFT,
                                                   nearIR, NL-DFT gradient (VV10), updates on ESD,
                                                   ML-optimized integration grids
   S Lehtola, MJT Oliveira, MAL Marques          : LibXC Library
   Liviu Ungur et al                             : ANISO software


 Your calculation uses the libint2 library for the computation of 2-el integrals
 For citations please refer to: http://libint.valeyev.net

 Your ORCA version has been built with support for libXC version: 5.1.0
 For citations please refer to: https://tddft.org/programs/libxc/

 This ORCA versions uses:
   CBLAS   interface :  Fast vector & matrix operations
   LAPACKE interface :  Fast linear algebra routines
   SCALAPACK package :  Parallel linear algebra routines
   Shared memory     :  Shared parallel matrices
   BLAS/LAPACK       :  OpenBLAS 0.3.15  USE64BITINT DYNAMIC_ARCH NO_AFFINITY Haswell SINGLE_THREADED
        Core in use  :  Haswell
   Copyright (c) 2011-2014, The OpenBLAS Project




***************************************
The coordinates will be read from file: pbe.xyz
***************************************


================================================================================

cite the ECPs for Au [Def2-ECP] as follows:
Ce-Yb(ecp-28): M. Dolg, H. Stoll, H.Preuss, J. Chem. Phys., 1989, 90, 1730-1734.
Y-Cd(ecp-28), Hf-Hg(ecp-46): D. Andrae,U. Haeussermann, M. Dolg, H. Stoll, H. Preuss, Theor. Chim. Acta, 1990, 77, 123-141.
In-Sb(ecp-28), Tl-Bi(ecp-46): B. Metz, H. Stoll, M. Dolg, J. Chem. Phys., 2000, 113, 2563-2569.
Te-Xe(ecp-28), Po-Rn(ecp-46): K. A. Peterson, D. Figgen, E. Goll, H. Stoll, M. Dolg, J. Chem. Phys., 2003, 119, 11113-11123.
Rb(ecp-28), Cs(ecp-46): T. Leininger, A. Nicklass, W. Kuechle, H. Stoll, M. Dolg, A. Bergner, Chem. Phys. Lett., 1996, 255, 274-280.
Sr(ecp-28), Ba(ecp-46): M. Kaupp, P. V. Schleyer, H. Stoll and H. Preuss, J. Chem. Phys., 1991, 94, 1360-1366.
La(ecp-46): M. Dolg, H. Stoll, A. Savin, H. Preuss, Theor. Chim. Acta, 1989, 75, 173-194.
Lu(ecp-28): X. Cao, M. Dolg, J. Chem. Phys., 2001, 115, 7348-7355.

ECP parameters for Au [Def2-ECP] have been obtained from:
TURBOMOLE (7.0.2)

----- Orbital basis set information -----
Your calculation utilizes the basis: def2-TZVP
   F. Weigend and R. Ahlrichs, Phys. Chem. Chem. Phys. 7, 3297 (2005).

----- AuxJ basis set information -----
Your calculation utilizes the auxiliary basis: def2/J
   F. Weigend, Phys. Chem. Chem. Phys. 8, 1057 (2006).

----- AuxC basis set information -----
Your calculation utilizes the auxiliary basis: def2-TZVP/C
  H-La, Hf-Rn : A. Hellweg, C. Hattig, S. Hofener and W. Klopper, Theor. Chem. Acc. 117, 587 (2007).
        Ce-Lu : J. Chmela and M. E. Harding, Mol. Phys. (2018).

================================================================================
                                        WARNINGS
                       Please study these warnings very carefully!
================================================================================


INFO   : the flag for use of the SHARK integral package has been found!

================================================================================
                                       INPUT FILE
================================================================================
NAME = casscf.inp
|  1> !CASSCF def2-TZVP def2-TZVP/C
|  2> !MOREAD RIJCOSX
|  3> %maxcore 6000
|  4> %moinp "pbe.qro"
|  5> %pal nprocs 2 end 
|  6> 
|  7> %casscf
|  8>  mult 5,3
|  9>  bweight 1,1
| 10>  nroots 5,45
| 11>  nel 6
| 12>  norb 5
| 13> end
| 14> 
| 15> 
| 16> *xyzfile 0 5 pbe.xyz
| 17> 
| 18> 
| 19>                          ****END OF INPUT****
================================================================================

                       ****************************
                       * Single Point Calculation *
                       ****************************

---------------------------------
CARTESIAN COORDINATES (ANGSTROEM)
---------------------------------
  Au     7.396864    6.375312    6.488323
  Au     8.288566    9.110046    6.948014
  Au     9.434052    7.454374    5.185402
  Au     6.407517    5.482329    8.917534
  Au     4.654632    6.398719    6.896739
  Au     6.003734   10.548342    7.621372
  Au     6.658708    7.396158   10.850816
  Au     7.738378    9.649937    9.620915
  Au     4.794366    9.306435   10.073550
  Au     3.761590    8.902733    7.525188
  Fe     6.197522    8.000707    8.262548

----------------------------
CARTESIAN COORDINATES (A.U.)
----------------------------
  NO LB      ZA    FRAG     MASS         X           Y           Z
   0 Au   19.0000*   0   196.966   13.978046   12.047594   12.261154
   1 Au   19.0000*   0   196.966   15.663119   17.215493   13.129844
   2 Au   19.0000*   0   196.966   17.827774   14.086725    9.798989
   3 Au   19.0000*   0   196.966   12.108453   10.360100   16.851696
   4 Au   19.0000*   0   196.966    8.795981   12.091826   13.032947
   5 Au   19.0000*   0   196.966   11.345414   19.933478   14.402307
   6 Au   19.0000*   0   196.966   12.583135   13.976713   20.505070
   7 Au   19.0000*   0   196.966   14.623416   18.235739   18.180895
   8 Au   19.0000*   0   196.966    9.060039   17.586613   19.036250
   9 Au   19.0000*   0   196.966    7.108374   16.823727   14.220544
  10 Fe   26.0000    0    55.850   11.711619   15.119144   15.613952
* core charge reduced due to ECP

--------------------------------
INTERNAL COORDINATES (ANGSTROEM)
--------------------------------
 Au     0   0   0     0.000000000000     0.00000000     0.00000000
 Au     1   0   0     2.912940013899     0.00000000     0.00000000
 Au     1   2   0     2.648039707474    57.28779125     0.00000000
 Au     1   2   3     2.770792064662   105.87359597   148.43702298
 Au     1   2   3     2.772576867099   105.75921239   212.47226384
 Au     2   1   3     2.782545945847   105.78947594   148.07696752
 Au     4   1   2     2.731925701524   111.21187965   358.70430059
 Au     2   1   3     2.781831717521   105.86021213   211.03215159
 Au     7   4   1     2.780120952308   102.81768204    70.23572928
 Au     5   1   2     2.731768892584   111.40501655     0.95718222
 Fe     5   1   2     2.610039550877    59.84100785   327.69308288

---------------------------
INTERNAL COORDINATES (A.U.)
---------------------------
 Au     0   0   0     0.000000000000     0.00000000     0.00000000
 Au     1   0   0     5.504658870810     0.00000000     0.00000000
 Au     1   2   0     5.004069838874    57.28779125     0.00000000
 Au     1   2   3     5.236038176254   105.87359597   148.43702298
 Au     1   2   3     5.239410964063   105.75921239   212.47226384
 Au     2   1   3     5.258249792704   105.78947594   148.07696752
 Au     4   1   2     5.162591394102   111.21187965   358.70430059
 Au     2   1   3     5.256900096770   105.86021213   211.03215159
 Au     7   4   1     5.253667219039   102.81768204    70.23572928
 Au     5   1   2     5.162295068149   111.40501655     0.95718222
 Fe     5   1   2     4.932259949860    59.84100785   327.69308288

---------------------
BASIS SET INFORMATION
---------------------
There are 2 groups of distinct atoms

 Group   1 Type Au  : 8s7p6d1f contracted to 6s4p3d1f pattern {311111/4111/411/1}
 Group   2 Type Fe  : 17s11p7d1f contracted to 6s4p4d1f pattern {842111/6311/4111/1}

Atom   0Au   basis set group =>   1
Atom   1Au   basis set group =>   1
Atom   2Au   basis set group =>   1
Atom   3Au   basis set group =>   1
Atom   4Au   basis set group =>   1
Atom   5Au   basis set group =>   1
Atom   6Au   basis set group =>   1
Atom   7Au   basis set group =>   1
Atom   8Au   basis set group =>   1
Atom   9Au   basis set group =>   1
Atom  10Fe   basis set group =>   2
---------------------------------
AUXILIARY/J BASIS SET INFORMATION
---------------------------------
There are 2 groups of distinct atoms

 Group   1 Type Au  : 11s5p5d3f3g contracted to 8s5p5d2f3g pattern {41111111/11111/11111/21/111}
 Group   2 Type Fe  : 19s5p5d3f3g contracted to 8s5p5d2f3g pattern {121111111/11111/11111/21/111}

Atom   0Au   basis set group =>   1
Atom   1Au   basis set group =>   1
Atom   2Au   basis set group =>   1
Atom   3Au   basis set group =>   1
Atom   4Au   basis set group =>   1
Atom   5Au   basis set group =>   1
Atom   6Au   basis set group =>   1
Atom   7Au   basis set group =>   1
Atom   8Au   basis set group =>   1
Atom   9Au   basis set group =>   1
Atom  10Fe   basis set group =>   2
---------------------------------
AUXILIARY/C BASIS SET INFORMATION
---------------------------------
There are 2 groups of distinct atoms

 Group   1 Type Au  : 8s8p7d5f3g2h contracted to 8s8p7d5f3g2h pattern {11111111/11111111/1111111/11111/111/11}
 Group   2 Type Fe  : 11s9p8d6f5g2h contracted to 9s8p8d6f5g2h pattern {311111111/21111111/11111111/111111/11111/11}

Atom   0Au   basis set group =>   1
Atom   1Au   basis set group =>   1
Atom   2Au   basis set group =>   1
Atom   3Au   basis set group =>   1
Atom   4Au   basis set group =>   1
Atom   5Au   basis set group =>   1
Atom   6Au   basis set group =>   1
Atom   7Au   basis set group =>   1
Atom   8Au   basis set group =>   1
Atom   9Au   basis set group =>   1
Atom  10Fe   basis set group =>   2
-------------------------
ECP PARAMETER INFORMATION
-------------------------

 Group 1, Type Au ECP Def2-ECP (replacing 60 core electrons, lmax=3)

Atom   0Au   ECP group =>   1
Atom   1Au   ECP group =>   1
Atom   2Au   ECP group =>   1
Atom   3Au   ECP group =>   1
Atom   4Au   ECP group =>   1
Atom   5Au   ECP group =>   1
Atom   6Au   ECP group =>   1
Atom   7Au   ECP group =>   1
Atom   8Au   ECP group =>   1
Atom   9Au   ECP group =>   1



           ************************************************************
           *        Program running with 2 parallel MPI-processes     *
           *              working on a common directory               *
           ************************************************************
------------------------------------------------------------------------------
                           ORCA GTO INTEGRAL CALCULATION
                           -- RI-GTO INTEGRALS CHOSEN --
------------------------------------------------------------------------------
------------------------------------------------------------------------------
                   ___                                                        
                  /   \      - P O W E R E D   B Y -                         
                 /     \                                                     
                 |  |  |   _    _      __       _____    __    __             
                 |  |  |  | |  | |    /  \     |  _  \  |  |  /  |          
                  \  \/   | |  | |   /    \    | | | |  |  | /  /          
                 / \  \   | |__| |  /  /\  \   | |_| |  |  |/  /          
                |  |  |   |  __  | /  /__\  \  |    /   |      \           
                |  |  |   | |  | | |   __   |  |    \   |  |\   \          
                \     /   | |  | | |  |  |  |  | |\  \  |  | \   \       
                 \___/    |_|  |_| |__|  |__|  |_| \__\ |__|  \__/        
                                                                              
                      - O R C A' S   B I G   F R I E N D -                    
                                      &                                       
                       - I N T E G R A L  F E E D E R -                       
                                                                              
 v1 FN, 2020, v2 2021                                                         
------------------------------------------------------------------------------


Reading SHARK input file casscf.SHARKINP.tmp ... ok
----------------------
SHARK INTEGRAL PACKAGE
----------------------

Number of atoms                             ...     11
Number of basis functions                   ...    445
Number of shells                            ...    155
Maximum angular momentum                    ...      3
Integral batch strategy                     ... SHARK/LIBINT Hybrid
RI-J (if used) integral strategy            ... SPLIT-RIJ (Revised 2003 algorithm where possible)
Printlevel                                  ...      1
Contraction scheme used                     ... SEGMENTED contraction
Coulomb Range Separation                    ... NOT USED
Exchange Range Separation                   ... NOT USED
Finite Nucleus Model                        ... NOT USED
Auxiliary Coulomb fitting basis             ... AVAILABLE
   # of basis functions in Aux-J            ...    979
   # of shells in Aux-J                     ...    253
   Maximum angular momentum in Aux-J        ...      4
Auxiliary J/K fitting basis                 ... NOT available
Auxiliary Correlation fitting basis         ... AVAILABLE
   # of basis functions in Aux-C            ...   1692
   # of shells in Aux-C                     ...    368
   Maximum angular momentum in Aux-C        ...      5
Auxiliary 'external' fitting basis          ... NOT available
Integral threshold                          ...     1.000000e-10
Primitive cut-off                           ...     1.000000e-11
Primitive pair pre-selection threshold      ...     1.000000e-11

Calculating pre-screening integrals         ... done (  0.2 sec) Dimension = 155
Organizing shell pair data                  ... done (  0.3 sec)
Shell pair information
Total number of shell pairs                 ...     12090
Shell pairs after pre-screening             ...      9937
Total number of primitive shell pairs       ...     33105
Primitive shell pairs kept                  ...     19992
          la=0 lb=0:   1556 shell pairs
          la=1 lb=0:   2269 shell pairs
          la=1 lb=1:    850 shell pairs
          la=2 lb=0:   1976 shell pairs
          la=2 lb=1:   1393 shell pairs
          la=2 lb=2:    577 shell pairs
          la=3 lb=0:    515 shell pairs
          la=3 lb=1:    398 shell pairs
          la=3 lb=2:    348 shell pairs
          la=3 lb=3:     55 shell pairs

Calculating one electron integrals          ... done (  0.1 sec)
Calculating ECP integrals                   ... done (  7.2 sec)
Calculating RI/J V-Matrix + Cholesky decomp.... done (  0.4 sec)
Calculating RI/C V-Matrix + Cholesky decomp.... done (  1.0 sec)
Calculating Nuclear repulsion               ... done (  0.0 sec) ENN=   3209.657998029423 Eh

SHARK setup successfully completed in   9.9 seconds

Maximum memory used throughout the entire GTOINT-calculation: 52.0 MB


           ************************************************************
           *        Program running with 2 parallel MPI-processes     *
           *              working on a common directory               *
           ************************************************************
-------------------------------------------------------------------------------
                                 ORCA SCF
-------------------------------------------------------------------------------

------------
SCF SETTINGS
------------
Hamiltonian:
 Ab initio Hamiltonian  Method          .... Hartree-Fock(GTOs)
 RI-approximation to the Coulomb term is turned on
   Number of AuxJ basis functions       .... 979
   RIJ-COSX (HFX calculated with COS-X)).... on


General Settings:
 Integral files         IntName         .... casscf
 Hartree-Fock type      HFTyp           .... CASSCF
 Total Charge           Charge          ....    0
 Multiplicity           Mult            ....    5
 Number of Electrons    NEL             ....  216
 Basis Dimension        Dim             ....  445
 Nuclear Repulsion      ENuc            ....   3209.6579980294 Eh


Diagonalization of the overlap matrix:
Smallest eigenvalue                        ... 5.412e-04
Time for diagonalization                   ...    0.043 sec
Threshold for overlap eigenvalues          ... 1.000e-08
Number of eigenvalues below threshold      ... 0
Time for construction of square roots      ...    0.034 sec
Total time needed                          ...    0.077 sec

---------------------
INITIAL GUESS: MOREAD
---------------------
Guess MOs are being read from file: pbe.qro
Input Geometry matches current geometry (good)
Input basis set matches current basis set (good)
MOs were renormalized
Gram-Schmidt orthogonalization of all MOs with pivot on actives
                      ------------------
                      INITIAL GUESS DONE (   1.3 sec)
                      ------------------
--------------------
COSX GRID GENERATION
--------------------

GRIDX 1
-------
General Integration Accuracy     IntAcc      ... 3.816
Radial Grid Type                 RadialGrid  ... OptM3 with GC (2021)
Angular Grid (max. ang.)         AngularGrid ... 1 (Lebedev-50)
Angular grid pruning method      GridPruning ... 4 (adaptive)
Weight generation scheme         WeightScheme... Becke
Basis function cutoff            BFCut       ... 1.0000e-10
Integration weight cutoff        WCut        ... 1.0000e-14
Angular grids for H and He will be reduced by one unit
Partially contracted basis set               ... on
Rotationally invariant grid construction     ... off

Total number of grid points                  ...    13060
Total number of batches                      ...      209
Average number of points per batch           ...       62
Average number of grid points per atom       ...     1187
UseSFitting                                  ... on

GRIDX 2
-------
General Integration Accuracy     IntAcc      ... 4.020
Radial Grid Type                 RadialGrid  ... OptM3 with GC (2021)
Angular Grid (max. ang.)         AngularGrid ... 2 (Lebedev-110)
Angular grid pruning method      GridPruning ... 4 (adaptive)
Weight generation scheme         WeightScheme... Becke
Basis function cutoff            BFCut       ... 1.0000e-10
Integration weight cutoff        WCut        ... 1.0000e-14
Angular grids for H and He will be reduced by one unit
Partially contracted basis set               ... on
Rotationally invariant grid construction     ... off

Total number of grid points                  ...    39425
Total number of batches                      ...      623
Average number of points per batch           ...       63
Average number of grid points per atom       ...     3584
UseSFitting                                  ... on

GRIDX 3
-------
General Integration Accuracy     IntAcc      ... 4.338
Radial Grid Type                 RadialGrid  ... OptM3 with GC (2021)
Angular Grid (max. ang.)         AngularGrid ... 3 (Lebedev-194)
Angular grid pruning method      GridPruning ... 4 (adaptive)
Weight generation scheme         WeightScheme... Becke
Basis function cutoff            BFCut       ... 1.0000e-10
Integration weight cutoff        WCut        ... 1.0000e-14
Angular grids for H and He will be reduced by one unit
Partially contracted basis set               ... on
Rotationally invariant grid construction     ... off

Total number of grid points                  ...    72655
Total number of batches                      ...     1141
Average number of points per batch           ...       63
Average number of grid points per atom       ...     6605
UseSFitting                                  ... on

Time for X-Grid setup             =    5.300 sec



 ... the calculation is a CASSCF calculation -I'm leaving here GOOD LUCK!!!



           ************************************************************
           *        Program running with 2 parallel MPI-processes     *
           *              working on a common directory               *
           ************************************************************
-------------------------------------------------------------------------------
                              ORCA-CASSCF
-------------------------------------------------------------------------------

Setting up the integral package       ... done
Setting up the integral package (RI)  ... done
Building the CAS space                ... done (5 configurations for Mult=5)
Building the CAS space                ... done (35 configurations for Mult=3)

SYSTEM-SPECIFIC SETTINGS:
Number of active electrons          ...    6
Number of active orbitals           ...    5
Total number of electrons           ...  216
Total number of orbitals            ...  445
Total number aux. functions         ... 1692

Determined orbital ranges:
   Internal       0 -  104 ( 105 orbitals)
   Active       105 -  109 (   5 orbitals)
   External     110 -  444 ( 335 orbitals)
Number of rotation parameters      ...  37375

CI-STEP:
CI strategy                         ... General CI
Number of multiplicity blocks       ...    2
BLOCK  1 WEIGHT=   0.5000
  Multiplicity                      ...    5
  #(Configurations)                 ...    5
  #(CSFs)                           ...    5
  #(Roots)                          ...    5
    ROOT=0 WEIGHT=    0.100000
    ROOT=1 WEIGHT=    0.100000
    ROOT=2 WEIGHT=    0.100000
    ROOT=3 WEIGHT=    0.100000
    ROOT=4 WEIGHT=    0.100000

BLOCK  2 WEIGHT=   0.5000
  Multiplicity                      ...    3
  #(Configurations)                 ...   35
  #(CSFs)                           ...   45
  #(Roots)                          ...   45
    ROOT=0 WEIGHT=    0.011111
    ROOT=1 WEIGHT=    0.011111
    ROOT=2 WEIGHT=    0.011111
    ROOT=3 WEIGHT=    0.011111
    ROOT=4 WEIGHT=    0.011111
    ROOT=5 WEIGHT=    0.011111
    ROOT=6 WEIGHT=    0.011111
    ROOT=7 WEIGHT=    0.011111
    ROOT=8 WEIGHT=    0.011111
    ROOT=9 WEIGHT=    0.011111
    ROOT=10 WEIGHT=    0.011111
    ROOT=11 WEIGHT=    0.011111
    ROOT=12 WEIGHT=    0.011111
    ROOT=13 WEIGHT=    0.011111
    ROOT=14 WEIGHT=    0.011111
    ROOT=15 WEIGHT=    0.011111
    ROOT=16 WEIGHT=    0.011111
    ROOT=17 WEIGHT=    0.011111
    ROOT=18 WEIGHT=    0.011111
    ROOT=19 WEIGHT=    0.011111
    ROOT=20 WEIGHT=    0.011111
    ROOT=21 WEIGHT=    0.011111
    ROOT=22 WEIGHT=    0.011111
    ROOT=23 WEIGHT=    0.011111
    ROOT=24 WEIGHT=    0.011111
    ROOT=25 WEIGHT=    0.011111
    ROOT=26 WEIGHT=    0.011111
    ROOT=27 WEIGHT=    0.011111
    ROOT=28 WEIGHT=    0.011111
    ROOT=29 WEIGHT=    0.011111
    ROOT=30 WEIGHT=    0.011111
    ROOT=31 WEIGHT=    0.011111
    ROOT=32 WEIGHT=    0.011111
    ROOT=33 WEIGHT=    0.011111
    ROOT=34 WEIGHT=    0.011111
    ROOT=35 WEIGHT=    0.011111
    ROOT=36 WEIGHT=    0.011111
    ROOT=37 WEIGHT=    0.011111
    ROOT=38 WEIGHT=    0.011111
    ROOT=39 WEIGHT=    0.011111
    ROOT=40 WEIGHT=    0.011111
    ROOT=41 WEIGHT=    0.011111
    ROOT=42 WEIGHT=    0.011111
    ROOT=43 WEIGHT=    0.011111
    ROOT=44 WEIGHT=    0.011111

  PrintLevel                        ...    1
  N(GuessMat)                       ...       512
  MaxDim(CI)                        ...        10
  MaxIter(CI)                       ...        64
  Energy Tolerance CI               ...  1.00e-08
  Residual Tolerance CI             ...  1.00e-08
  Shift(CI)                         ...  1.00e-04

INTEGRAL-TRANSFORMATION-STEP:
  Algorithm                         ... RI-MO

ORBITAL-IMPROVEMENT-STEP:
  Algorithm                         ... SuperCI(PT)
  Default Parametrization           ... CAYLEY
  Act-Act rotations                 ... depends on algorithm used

  Note: SuperCI(PT) will ignore FreezeIE, FreezeAct and FreezeGrad. In general Default settings are encouraged.
        In conjunction with ShiftUp, ShiftDn or GradScaling the performance of SuperCI(PT) is less optimal.  

  MaxRot                            ... 2.00e-01 
  Max. no of vectors (DIIS)         ... 15
  DThresh (cut-off) metric          ... 1.00e-06
  Switch step at gradient           ...  3.00e-02 
  Switch step at iteration          ...        50   
  Switch step to                    ... SuperCI(PT)    

SCF-SETTINGS:
  Incremental                       ... off
  RIJCOSX approximation             ... on
  UseFinalGrid                      ... on
  RI-JK approximation               ... off
  AO integral handling              ... DIRECT
  Integral Neglect Thresh           ...  1.00e-10
  Primitive cutoff TCut             ...  1.00e-11
  Energy convergence tolerance      ...  1.00e-07
  Orbital gradient convergence      ...  1.00e-03
  Max. number of iterations         ...        75  


FINAL ORBITALS:
  Active   Orbitals                 ... natural 
  Internal Orbitals                 ... canonical 
  External Orbitals                 ... canonical 

------------------
CAS-SCF ITERATIONS
------------------


MACRO-ITERATION   1: 
   --- Inactive Energy E0 = -2600.13842661 Eh
CI-ITERATION   0: 
 -2610.049944392   0.000000000000 (    0.00)
 -2610.032180687   0.000000000000
 -2610.028434147   0.000000000000
 -2610.014424548   0.000000000000
 -2609.970839052   0.000000000000
   CI-PROBLEM SOLVED
   DENSITIES MADE
CI-ITERATION   0: 
 -2610.016345856   0.000000000000 (    0.00)
 -2610.003363809   0.000000000000
 -2609.996465453   0.000000000000
 -2609.993570748   0.000000000000
 -2609.993410471   0.000000000000
 -2609.987786536   0.000000000000
 -2609.983814764   0.000000000000
 -2609.982622452   0.000000000000
 -2609.980123629   0.000000000000
 -2609.978294632   0.000000000000
 -2609.978114110   0.000000000000
 -2609.976035873   0.000000000000
 -2609.974049002   0.000000000000
 -2609.973739967   0.000000000000
 -2609.966715845   0.000000000000
 -2609.966017104   0.000000000000
 -2609.958735911   0.000000000000
 -2609.957830191   0.000000000000
 -2609.955117968   0.000000000000
 -2609.950161326   0.000000000000
 -2609.948282774   0.000000000000
 -2609.944320170   0.000000000000
 -2609.943649575   0.000000000000
 -2609.942276758   0.000000000000
 -2609.934730533   0.000000000000
 -2609.925799881   0.000000000000
 -2609.925213129   0.000000000000
 -2609.919433797   0.000000000000
 -2609.909014003   0.000000000000
 -2609.903844838   0.000000000000
 -2609.901839137   0.000000000000
 -2609.896768102   0.000000000000
 -2609.891053719   0.000000000000
 -2609.890142085   0.000000000000
 -2609.887360522   0.000000000000
 -2609.880187256   0.000000000000
 -2609.876304983   0.000000000000
 -2609.871659926   0.000000000000
 -2609.847047623   0.000000000000
 -2609.837567390   0.000000000000
 -2609.824849674   0.000000000000
 -2609.792392175   0.000000000000
 -2609.788587131   0.000000000000
 -2609.768258480   0.000000000000
 -2609.713622732   0.000000000000
   CI-PROBLEM SOLVED
   DENSITIES MADE

                 <<<<<<<<<<<<<<<<<<INITIAL CI STATE CHECK>>>>>>>>>>>>>>>>>>

BLOCK  1 MULT= 5 NROOTS= 5 
ROOT   0:  E=   -2610.0499443917 Eh
      0.59542 [     3]: 12111
      0.36618 [     1]: 11121
      0.03840 [     4]: 21111
ROOT   1:  E=   -2610.0321806867 Eh  0.483 eV   3898.7 cm**-1
      0.99657 [     2]: 11211
ROOT   2:  E=   -2610.0284341470 Eh  0.585 eV   4721.0 cm**-1
      0.40138 [     4]: 21111
      0.32508 [     3]: 12111
      0.27224 [     1]: 11121
ROOT   3:  E=   -2610.0144245478 Eh  0.967 eV   7795.7 cm**-1
      0.55994 [     4]: 21111
      0.36091 [     1]: 11121
      0.07903 [     3]: 12111
ROOT   4:  E=   -2609.9708390520 Eh  2.153 eV  17361.6 cm**-1
      0.99792 [     0]: 11112

BLOCK  2 MULT= 3 NROOTS=45 
ROOT   0:  E=   -2610.0163458557 Eh
      0.58946 [    18]: 12111
      0.37744 [    11]: 11121
      0.02027 [    28]: 21111
      0.00457 [     1]: 01212
      0.00251 [     4]: 02121
ROOT   1:  E=   -2610.0033638087 Eh  0.353 eV   2849.2 cm**-1
      0.77998 [    13]: 11211
      0.15133 [    34]: 22110
      0.04970 [    29]: 21120
      0.00842 [    19]: 12120
ROOT   2:  E=   -2609.9964654532 Eh  0.541 eV   4363.2 cm**-1
      0.35329 [    18]: 12111
      0.30546 [    11]: 11121
      0.29850 [    28]: 21111
      0.02100 [    21]: 12210
      0.00592 [     1]: 01212
      0.00504 [     7]: 10212
      0.00475 [    23]: 20121
ROOT   3:  E=   -2609.9935707482 Eh  0.620 eV   4998.6 cm**-1
      0.51058 [    18]: 12111
      0.28292 [    11]: 11121
      0.08486 [    34]: 22110
      0.04918 [     1]: 01212
      0.01685 [    13]: 11211
      0.01652 [    23]: 20121
      0.01540 [    28]: 21111
      0.00501 [    31]: 21210
      0.00461 [     3]: 02112
      0.00323 [     0]: 01122
      0.00281 [    21]: 12210
ROOT   4:  E=   -2609.9934104705 Eh  0.624 eV   5033.7 cm**-1
      0.64492 [    34]: 22110
      0.14031 [    13]: 11211
      0.06618 [    18]: 12111
      0.03935 [     3]: 02112
      0.03481 [    11]: 11121
      0.02808 [     0]: 01122
      0.00954 [    20]: 12201
      0.00681 [     8]: 10221
      0.00637 [     1]: 01212
      0.00401 [    28]: 21111
      0.00291 [    26]: 21021
      0.00253 [    16]: 12021
ROOT   5:  E=   -2609.9877865363 Eh  0.777 eV   6268.0 cm**-1
      0.44438 [    11]: 11121
      0.36447 [     4]: 02121
      0.10423 [    18]: 12111
      0.03414 [     1]: 01212
      0.02585 [    28]: 21111
      0.01068 [    33]: 22101
      0.00505 [    31]: 21210
      0.00347 [    21]: 12210
      0.00258 [     7]: 10212
ROOT   6:  E=   -2609.9838147643 Eh  0.885 eV   7139.7 cm**-1
      0.63260 [    13]: 11211
      0.17933 [     8]: 10221
      0.09942 [     2]: 01221
      0.02189 [     0]: 01122
      0.01440 [    24]: 20211
      0.01357 [    34]: 22110
      0.00805 [    16]: 12021
      0.00551 [    19]: 12120
      0.00501 [    20]: 12201
      0.00466 [    30]: 21201
      0.00365 [     5]: 02211
      0.00292 [    29]: 21120
ROOT   7:  E=   -2609.9826224522 Eh  0.918 eV   7401.4 cm**-1
      0.54733 [    13]: 11211
      0.30914 [     8]: 10221
      0.05216 [    16]: 12021
      0.03842 [     0]: 01122
      0.01440 [     5]: 02211
      0.00933 [    34]: 22110
      0.00924 [     2]: 01221
      0.00360 [     6]: 10122
      0.00359 [    29]: 21120
      0.00338 [    26]: 21021
      0.00274 [     3]: 02112
ROOT   8:  E=   -2609.9801236293 Eh  0.986 eV   7949.9 cm**-1
      0.46568 [    11]: 11121
      0.18645 [    18]: 12111
      0.14488 [    28]: 21111
      0.12759 [     1]: 01212
      0.03865 [     4]: 02121
      0.03048 [    23]: 20121
ROOT   9:  E=   -2609.9782946325 Eh  1.035 eV   8351.3 cm**-1
      0.31420 [    28]: 21111
      0.23592 [    11]: 11121
      0.10870 [    29]: 21120
      0.05428 [     0]: 01122
      0.05271 [    31]: 21210
      0.03897 [     3]: 02112
      0.03281 [    18]: 12111
      0.03199 [    24]: 20211
      0.02180 [     4]: 02121
      0.01845 [     5]: 02211
      0.01620 [    19]: 12120
      0.01419 [    14]: 11220
      0.01404 [    23]: 20121
      0.01403 [    13]: 11211
      0.01046 [     2]: 01221
      0.00623 [    34]: 22110
      0.00479 [    21]: 12210
      0.00330 [    20]: 12201
ROOT  10:  E=   -2609.9781141098 Eh  1.040 eV   8390.9 cm**-1
      0.24319 [    29]: 21120
      0.13413 [    28]: 21111
      0.12110 [     0]: 01122
      0.11045 [    11]: 11121
      0.08397 [     3]: 02112
      0.07726 [    24]: 20211
      0.04067 [     5]: 02211
      0.04044 [    19]: 12120
      0.02704 [    13]: 11211
      0.02362 [    31]: 21210
      0.02359 [     2]: 01221
      0.01716 [    34]: 22110
      0.01369 [    18]: 12111
      0.00883 [    20]: 12201
      0.00856 [     4]: 02121
      0.00663 [    14]: 11220
      0.00601 [    23]: 20121
      0.00535 [    16]: 12021
      0.00367 [     8]: 10221
ROOT  11:  E=   -2609.9760358727 Eh  1.097 eV   8847.0 cm**-1
      0.30940 [    24]: 20211
      0.24238 [     8]: 10221
      0.21775 [    13]: 11211
      0.06223 [    20]: 12201
      0.03726 [    29]: 21120
      0.03543 [     0]: 01122
      0.01674 [    34]: 22110
      0.01624 [     2]: 01221
      0.01398 [    30]: 21201
      0.01194 [    32]: 22011
      0.01006 [    19]: 12120
      0.00625 [     6]: 10122
      0.00602 [     3]: 02112
      0.00591 [     5]: 02211
      0.00290 [    22]: 20112
      0.00288 [    16]: 12021
ROOT  12:  E=   -2609.9740490017 Eh  1.151 eV   9283.1 cm**-1
      0.30583 [    29]: 21120
      0.18316 [     3]: 02112
      0.11956 [     5]: 02211
      0.10967 [     2]: 01221
      0.10673 [    19]: 12120
      0.06770 [    13]: 11211
      0.04208 [     0]: 01122
      0.02880 [    16]: 12021
      0.01387 [    30]: 21201
      0.00588 [    34]: 22110
      0.00328 [    20]: 12201
      0.00310 [     8]: 10221
ROOT  13:  E=   -2609.9737399668 Eh  1.159 eV   9350.9 cm**-1
      0.55048 [     1]: 01212
      0.12179 [    18]: 12111
      0.10913 [    11]: 11121
      0.10456 [    31]: 21210
      0.03806 [     4]: 02121
      0.03251 [    28]: 21111
      0.02388 [     7]: 10212
      0.01088 [    23]: 20121
      0.00276 [    21]: 12210
ROOT  14:  E=   -2609.9667158454 Eh  1.351 eV  10892.5 cm**-1
      0.29311 [    20]: 12201
      0.21688 [    16]: 12021
      0.14081 [    24]: 20211
      0.12640 [     0]: 01122
      0.07916 [     5]: 02211
      0.03982 [     8]: 10221
      0.03413 [    29]: 21120
      0.01910 [    13]: 11211
      0.01719 [    30]: 21201
      0.01148 [     2]: 01221
      0.00846 [    26]: 21021
      0.00418 [    10]: 11112
      0.00310 [    34]: 22110
ROOT  15:  E=   -2609.9660171037 Eh  1.370 eV  11045.9 cm**-1
      0.55489 [    28]: 21111
      0.29780 [    18]: 12111
      0.07465 [    11]: 11121
      0.01798 [     7]: 10212
      0.01784 [     1]: 01212
      0.01732 [    23]: 20121
      0.00676 [    33]: 22101
      0.00387 [     4]: 02121
      0.00287 [    21]: 12210
ROOT  16:  E=   -2609.9587359108 Eh  1.568 eV  12643.9 cm**-1
      0.32074 [    31]: 21210
      0.17724 [    18]: 12111
      0.15482 [     4]: 02121
      0.14809 [    23]: 20121
      0.12457 [    11]: 11121
      0.05787 [    28]: 21111
      0.00419 [    33]: 22101
ROOT  17:  E=   -2609.9578301909 Eh  1.592 eV  12842.7 cm**-1
      0.35432 [     2]: 01221
      0.16418 [     0]: 01122
      0.13783 [     5]: 02211
      0.07192 [    13]: 11211
      0.05877 [    20]: 12201
      0.05531 [     3]: 02112
      0.04856 [    16]: 12021
      0.02491 [    10]: 11112
      0.01894 [    34]: 22110
      0.01831 [    19]: 12120
      0.01440 [    32]: 22011
      0.01381 [    26]: 21021
      0.00402 [    30]: 21201
      0.00311 [     6]: 10122
ROOT  18:  E=   -2609.9551179681 Eh  1.666 eV  13438.0 cm**-1
      0.52461 [    30]: 21201
      0.08595 [     2]: 01221
      0.07883 [    13]: 11211
      0.07274 [     3]: 02112
      0.06997 [     8]: 10221
      0.05801 [    26]: 21021
      0.04978 [    20]: 12201
      0.02888 [     5]: 02211
      0.00968 [    19]: 12120
      0.00786 [    34]: 22110
      0.00418 [    10]: 11112
      0.00402 [    24]: 20211
ROOT  19:  E=   -2609.9501613265 Eh  1.801 eV  14525.8 cm**-1
      0.33797 [    31]: 21210
      0.30629 [    18]: 12111
      0.13114 [    28]: 21111
      0.05828 [    11]: 11121
      0.05021 [     1]: 01212
      0.04419 [    23]: 20121
      0.04343 [     7]: 10212
      0.01989 [    12]: 11202
      0.00411 [     4]: 02121
      0.00350 [    25]: 21012
ROOT  20:  E=   -2609.9482827735 Eh  1.852 eV  14938.1 cm**-1
      0.52875 [    33]: 22101
      0.25252 [    23]: 20121
      0.12173 [    28]: 21111
      0.03435 [     7]: 10212
      0.03119 [    11]: 11121
      0.01409 [    31]: 21210
      0.00843 [    18]: 12111
      0.00569 [    14]: 11220
ROOT  21:  E=   -2609.9443201696 Eh  1.960 eV  15807.8 cm**-1
      0.27767 [    16]: 12021
      0.14207 [    26]: 21021
      0.13765 [    13]: 11211
      0.09656 [    30]: 21201
      0.08553 [    24]: 20211
      0.07761 [     2]: 01221
      0.07530 [     3]: 02112
      0.02965 [    29]: 21120
      0.01769 [    32]: 22011
      0.01662 [     0]: 01122
      0.01174 [    10]: 11112
      0.01037 [     8]: 10221
      0.01014 [     5]: 02211
      0.00428 [    19]: 12120
      0.00301 [    34]: 22110
ROOT  22:  E=   -2609.9436495748 Eh  1.978 eV  15955.0 cm**-1
      0.21626 [    28]: 21111
      0.16425 [     4]: 02121
      0.16262 [    11]: 11121
      0.15597 [    18]: 12111
      0.09669 [    33]: 22101
      0.07952 [    31]: 21210
      0.06122 [     1]: 01212
      0.03440 [     7]: 10212
      0.01601 [    21]: 12210
      0.00523 [    23]: 20121
ROOT  23:  E=   -2609.9422767578 Eh  2.016 eV  16256.3 cm**-1
      0.21058 [    24]: 20211
      0.19256 [     3]: 02112
      0.14731 [    13]: 11211
      0.13251 [     0]: 01122
      0.10280 [    32]: 22011
      0.04125 [     5]: 02211
      0.03600 [     8]: 10221
      0.03007 [     2]: 01221
      0.02506 [    29]: 21120
      0.02420 [    10]: 11112
      0.01547 [    30]: 21201
      0.01135 [    22]: 20112
      0.00793 [     6]: 10122
      0.00704 [    19]: 12120
      0.00398 [    20]: 12201
      0.00368 [    26]: 21021
      0.00329 [    27]: 21102
      0.00284 [    16]: 12021
ROOT  24:  E=   -2609.9347305333 Eh  2.221 eV  17912.5 cm**-1
      0.83745 [    28]: 21111
      0.02999 [     4]: 02121
      0.02811 [    12]: 11202
      0.02393 [     1]: 01212
      0.01871 [    33]: 22101
      0.01551 [     7]: 10212
      0.01396 [    18]: 12111
      0.01368 [    11]: 11121
      0.00752 [    31]: 21210
      0.00747 [    23]: 20121
ROOT  25:  E=   -2609.9257998805 Eh  2.464 eV  19872.5 cm**-1
      0.69252 [     7]: 10212
      0.05372 [     1]: 01212
      0.04529 [    21]: 12210
      0.04146 [    33]: 22101
      0.03834 [    28]: 21111
      0.03433 [    11]: 11121
      0.02428 [     4]: 02121
      0.01952 [    31]: 21210
      0.01530 [    15]: 12012
      0.01162 [    12]: 11202
      0.00619 [    14]: 11220
      0.00388 [    18]: 12111
      0.00353 [    19]: 12120
ROOT  26:  E=   -2609.9252131289 Eh  2.480 eV  20001.3 cm**-1
      0.35494 [    19]: 12120
      0.19665 [    32]: 22011
      0.10624 [     3]: 02112
      0.09874 [     5]: 02211
      0.04402 [    29]: 21120
      0.03827 [     6]: 10122
      0.03702 [     2]: 01221
      0.03011 [     0]: 01122
      0.02195 [    26]: 21021
      0.01715 [    16]: 12021
      0.01460 [    10]: 11112
      0.00954 [    13]: 11211
      0.00858 [    30]: 21201
      0.00564 [     7]: 10212
      0.00505 [    22]: 20112
      0.00397 [    20]: 12201
      0.00366 [    17]: 12102
ROOT  27:  E=   -2609.9194337973 Eh  2.637 eV  21269.7 cm**-1
      0.28455 [    19]: 12120
      0.22492 [    32]: 22011
      0.14438 [    10]: 11112
      0.08306 [    29]: 21120
      0.05287 [    20]: 12201
      0.05081 [     5]: 02211
      0.04069 [     0]: 01122
      0.02399 [     3]: 02112
      0.02131 [     2]: 01221
      0.01291 [     6]: 10122
      0.01169 [    13]: 11211
      0.00925 [    26]: 21021
      0.00846 [    27]: 21102
      0.00693 [    17]: 12102
      0.00650 [    34]: 22110
      0.00600 [     8]: 10221
      0.00474 [    16]: 12021
      0.00309 [    30]: 21201
ROOT  28:  E=   -2609.9090140034 Eh  2.921 eV  23556.6 cm**-1
      0.70439 [    10]: 11112
      0.21450 [     6]: 10122
      0.03575 [    19]: 12120
      0.01190 [    30]: 21201
      0.00664 [     5]: 02211
      0.00636 [    29]: 21120
      0.00592 [    20]: 12201
      0.00434 [    16]: 12021
      0.00277 [    13]: 11211
ROOT  29:  E=   -2609.9038448376 Eh  3.061 eV  24691.1 cm**-1
      0.53139 [    14]: 11220
      0.24194 [    12]: 11202
      0.16482 [    21]: 12210
      0.01536 [    33]: 22101
      0.01094 [    28]: 21111
      0.00772 [    18]: 12111
      0.00602 [    11]: 11121
      0.00549 [    15]: 12012
      0.00488 [     4]: 02121
      0.00473 [     9]: 11022
      0.00448 [    23]: 20121
ROOT  30:  E=   -2609.9018391368 Eh  3.116 eV  25131.3 cm**-1
      0.74233 [    10]: 11112
      0.07370 [     0]: 01122
      0.03897 [     6]: 10122
      0.02704 [    20]: 12201
      0.02620 [    32]: 22011
      0.02127 [     3]: 02112
      0.02005 [    30]: 21201
      0.01882 [    17]: 12102
      0.00853 [     2]: 01221
      0.00628 [    29]: 21120
      0.00296 [    26]: 21021
      0.00261 [    13]: 11211
      0.00257 [    27]: 21102
ROOT  31:  E=   -2609.8967681015 Eh  3.254 eV  26244.3 cm**-1
      0.43716 [    10]: 11112
      0.11650 [     5]: 02211
      0.10268 [    26]: 21021
      0.07634 [    16]: 12021
      0.04863 [    32]: 22011
      0.04487 [    20]: 12201
      0.03340 [     0]: 01122
      0.03217 [    19]: 12120
      0.01901 [    24]: 20211
      0.01771 [     2]: 01221
      0.01715 [     3]: 02112
      0.01662 [    17]: 12102
      0.01022 [     8]: 10221
      0.00759 [    13]: 11211
      0.00741 [     6]: 10122
      0.00553 [    30]: 21201
      0.00279 [    29]: 21120
      0.00255 [    34]: 22110
ROOT  32:  E=   -2609.8910537189 Eh  3.409 eV  27498.4 cm**-1
      0.41858 [    12]: 11202
      0.14766 [    23]: 20121
      0.12769 [    33]: 22101
      0.09474 [     9]: 11022
      0.08455 [    14]: 11220
      0.05555 [     4]: 02121
      0.02294 [    11]: 11121
      0.01127 [    15]: 12012
      0.00987 [    21]: 12210
      0.00908 [    28]: 21111
      0.00419 [    18]: 12111
      0.00374 [     6]: 10122
      0.00287 [    17]: 12102
ROOT  33:  E=   -2609.8901420848 Eh  3.434 eV  27698.5 cm**-1
      0.34911 [     6]: 10122
      0.34036 [    17]: 12102
      0.21855 [    10]: 11112
      0.02017 [    13]: 11211
      0.01865 [    20]: 12201
      0.00883 [    30]: 21201
      0.00789 [     8]: 10221
      0.00780 [    32]: 22011
      0.00528 [    16]: 12021
      0.00389 [    24]: 20211
      0.00387 [    12]: 11202
      0.00343 [    22]: 20112
      0.00319 [     5]: 02211
ROOT  34:  E=   -2609.8873605218 Eh  3.510 eV  28309.0 cm**-1
      0.25549 [    23]: 20121
      0.15341 [    21]: 12210
      0.13661 [    12]: 11202
      0.11306 [    33]: 22101
      0.08735 [     7]: 10212
      0.07716 [    11]: 11121
      0.06775 [     4]: 02121
      0.03436 [     9]: 11022
      0.02678 [    14]: 11220
      0.02345 [    15]: 12012
      0.01647 [    28]: 21111
      0.00709 [    18]: 12111
ROOT  35:  E=   -2609.8801872562 Eh  3.705 eV  29883.4 cm**-1
      0.31175 [    32]: 22011
      0.19622 [     5]: 02211
      0.16604 [    10]: 11112
      0.08490 [    24]: 20211
      0.05726 [    20]: 12201
      0.04037 [     3]: 02112
      0.02798 [    30]: 21201
      0.02367 [    13]: 11211
      0.02239 [     6]: 10122
      0.01961 [    16]: 12021
      0.01597 [     8]: 10221
      0.01145 [    17]: 12102
      0.00804 [     0]: 01122
      0.00444 [    26]: 21021
      0.00370 [    22]: 20112
      0.00311 [    29]: 21120
ROOT  36:  E=   -2609.8763049834 Eh  3.811 eV  30735.4 cm**-1
      0.52244 [    21]: 12210
      0.29361 [    14]: 11220
      0.03245 [    15]: 12012
      0.02692 [    33]: 22101
      0.02616 [    23]: 20121
      0.01991 [    11]: 11121
      0.01979 [    18]: 12111
      0.01899 [    31]: 21210
      0.01388 [     9]: 11022
      0.01053 [     4]: 02121
      0.00694 [    28]: 21111
      0.00569 [    12]: 11202
ROOT  37:  E=   -2609.8716599263 Eh  3.937 eV  31754.9 cm**-1
      0.24130 [    20]: 12201
      0.20018 [    10]: 11112
      0.13372 [    30]: 21201
      0.09261 [    16]: 12021
      0.08227 [    26]: 21021
      0.06030 [     6]: 10122
      0.04062 [     8]: 10221
      0.03829 [     2]: 01221
      0.02970 [    19]: 12120
      0.01810 [     5]: 02211
      0.01738 [     3]: 02112
      0.01352 [    17]: 12102
      0.00810 [     0]: 01122
      0.00784 [    13]: 11211
      0.00728 [    32]: 22011
      0.00506 [    29]: 21120
ROOT  38:  E=   -2609.8470476226 Eh  4.607 eV  37156.7 cm**-1
      0.52903 [    26]: 21021
      0.12379 [    10]: 11112
      0.11903 [    16]: 12021
      0.08084 [    30]: 21201
      0.04097 [     2]: 01221
      0.02241 [     6]: 10122
      0.02163 [    17]: 12102
      0.01721 [    32]: 22011
      0.01013 [    19]: 12120
      0.00868 [    20]: 12201
      0.00767 [     5]: 02211
      0.00712 [     8]: 10221
      0.00551 [     0]: 01122
      0.00355 [    24]: 20211
ROOT  39:  E=   -2609.8375673897 Eh  4.865 eV  39237.3 cm**-1
      0.51343 [    17]: 12102
      0.17220 [     6]: 10122
      0.14672 [    10]: 11112
      0.04888 [    27]: 21102
      0.03619 [    20]: 12201
      0.03213 [    22]: 20112
      0.01478 [    19]: 12120
      0.01012 [    13]: 11211
      0.00710 [    16]: 12021
      0.00658 [    26]: 21021
      0.00348 [    32]: 22011
      0.00302 [     8]: 10221
ROOT  40:  E=   -2609.8248496737 Eh  5.211 eV  42028.6 cm**-1
      0.65714 [    15]: 12012
      0.20423 [     9]: 11022
      0.05322 [    12]: 11202
      0.03348 [    21]: 12210
      0.02627 [     7]: 10212
      0.00684 [    25]: 21012
      0.00663 [    14]: 11220
      0.00362 [    18]: 12111
      0.00274 [    33]: 22101
ROOT  41:  E=   -2609.7923921749 Eh  6.094 eV  49152.2 cm**-1
      0.89992 [    22]: 20112
      0.04211 [    27]: 21102
      0.01456 [     6]: 10122
      0.01373 [     3]: 02112
      0.00939 [    10]: 11112
      0.00754 [    24]: 20211
      0.00321 [    17]: 12102
ROOT  42:  E=   -2609.7885871313 Eh  6.198 eV  49987.3 cm**-1
      0.63257 [     9]: 11022
      0.24895 [    15]: 12012
      0.06820 [    12]: 11202
      0.01502 [    14]: 11220
      0.01185 [    18]: 12111
      0.00827 [    21]: 12210
      0.00480 [     7]: 10212
      0.00452 [    25]: 21012
      0.00251 [    11]: 11121
ROOT  43:  E=   -2609.7682584805 Eh  6.751 eV  54448.9 cm**-1
      0.88627 [    27]: 21102
      0.04023 [    17]: 12102
      0.03052 [    22]: 20112
      0.01282 [     6]: 10122
      0.01117 [    10]: 11112
      0.00751 [     0]: 01122
      0.00379 [    30]: 21201
ROOT  44:  E=   -2609.7136227322 Eh  8.238 eV  66440.0 cm**-1
      0.97673 [    25]: 21012
      0.00837 [     9]: 11022
      0.00513 [     1]: 01212

                 <<<<<<<<<<<<<<<<<<INITIAL CI STATE CHECK>>>>>>>>>>>>>>>>>>

   E(CAS)= -2609.971099194 Eh DE=    0.000000e+00
   --- Energy gap subspaces: Ext-Act = 0.150   Act-Int = 0.094
   N(occ)=  1.20000 1.20000 1.20000 1.20000 1.20000
   ||g|| =     2.298173e+00 Max(G)=    5.043096e-01 Rot=382,1
   --- Orbital Update [SuperCI(PT)]
   --- Canonicalize Internal Space
   --- Canonicalize External Space
   --- SX_PT (Skipped TA=0 IT=0): ||X|| =      0.539851887 Max(X)(110,105) =      0.239319984 
   --- SFit(Active Orbitals)

MACRO-ITERATION   2: 
   --- Inactive Energy E0 = -2600.09882560 Eh
CI-ITERATION   0: 
 -2610.406240082   0.000000000000 (    0.00)
 -2610.364939788   0.000000000000
 -2610.345383164   0.000000000000
 -2610.321665893   0.000000000000
 -2610.314030185   0.000000000000
   CI-PROBLEM SOLVED
   DENSITIES MADE
CI-ITERATION   0: 
 -2610.342823862   0.000000000000 (    0.00)
 -2610.332217180   0.000000000000
 -2610.327044857   0.000000000000
 -2610.326802204   0.000000000000
 -2610.321371337   0.000000000000
 -2610.316040284   0.000000000000
 -2610.314173792   0.000000000000
 -2610.307374298   0.000000000000
 -2610.302897193   0.000000000000
 -2610.301497904   0.000000000000
 -2610.296693185   0.000000000000
 -2610.290464168   0.000000000000
 -2610.286259151   0.000000000000
 -2610.284042636   0.000000000000
 -2610.283029595   0.000000000000
 -2610.277478049   0.000000000000
 -2610.273746889   0.000000000000
 -2610.273435890   0.000000000000
 -2610.267206720   0.000000000000
 -2610.266196974   0.000000000000
 -2610.263689725   0.000000000000
 -2610.260143142   0.000000000000
 -2610.257497956   0.000000000000
 -2610.256596945   0.000000000000
 -2610.249857573   0.000000000000
 -2610.244238018   0.000000000000
 -2610.243836312   0.000000000000
 -2610.238921938   0.000000000000
 -2610.233482368   0.000000000000
 -2610.223646011   0.000000000000
 -2610.223364752   0.000000000000
 -2610.215321733   0.000000000000
 -2610.207732038   0.000000000000
 -2610.199269870   0.000000000000
 -2610.189854679   0.000000000000
 -2610.160571712   0.000000000000
 -2610.154494795   0.000000000000
 -2610.134761377   0.000000000000
 -2610.127318155   0.000000000000
 -2610.099135933   0.000000000000
 -2610.087860171   0.000000000000
 -2610.061686824   0.000000000000
 -2610.012065609   0.000000000000
 -2610.008921418   0.000000000000
 -2609.961143481   0.000000000000
   CI-PROBLEM SOLVED
   DENSITIES MADE
   E(CAS)= -2610.289739341 Eh DE=   -3.186401e-01
   --- Energy gap subspaces: Ext-Act = 0.066   Act-Int = 0.183
   N(occ)=  1.20000 1.20000 1.20000 1.20000 1.20000
   ||g|| =     1.147871e+00 Max(G)=   -1.635855e-01 Rot=109,104
   --- Orbital Update [SuperCI(PT)]
   --- Canonicalize Internal Space
   --- Canonicalize External Space
   --- SX_PT (Skipped TA=0 IT=0): ||X|| =      0.430118016 Max(X)(109,103) =     -0.278553729 
   --- SFit(Active Orbitals)

MACRO-ITERATION   3: 
   --- Inactive Energy E0 = -2597.91004453 Eh
CI-ITERATION   0: 
 -2610.429706034   0.000000000000 (    0.00)
 -2610.424169711   0.000000000000
 -2610.415710400   0.000000000000
 -2610.396659850   0.000000000000
 -2610.353249296   0.000000000000
   CI-PROBLEM SOLVED
   DENSITIES MADE
CI-ITERATION   0: 
 -2610.381700978   0.000000000000 (    0.00)
 -2610.378375482   0.000000000000
 -2610.368542865   0.000000000000
 -2610.355654443   0.000000000000
 -2610.353499343   0.000000000000
 -2610.349779120   0.000000000000
 -2610.346805392   0.000000000000
 -2610.345102078   0.000000000000
 -2610.344489918   0.000000000000
 -2610.342665977   0.000000000000
 -2610.340244694   0.000000000000
 -2610.338663281   0.000000000000
 -2610.335557263   0.000000000000
 -2610.334215024   0.000000000000
 -2610.330260850   0.000000000000
 -2610.328929792   0.000000000000
 -2610.327775004   0.000000000000
 -2610.322686287   0.000000000000
 -2610.317871030   0.000000000000
 -2610.316529424   0.000000000000
 -2610.312201767   0.000000000000
 -2610.311725092   0.000000000000
 -2610.305330288   0.000000000000
 -2610.301103051   0.000000000000
 -2610.299047135   0.000000000000
 -2610.293959061   0.000000000000
 -2610.282834728   0.000000000000
 -2610.278169217   0.000000000000
 -2610.267416343   0.000000000000
 -2610.265666697   0.000000000000
 -2610.262335131   0.000000000000
 -2610.257582919   0.000000000000
 -2610.255021288   0.000000000000
 -2610.249355431   0.000000000000
 -2610.245659903   0.000000000000
 -2610.223900233   0.000000000000
 -2610.218299144   0.000000000000
 -2610.212970877   0.000000000000
 -2610.200443619   0.000000000000
 -2610.196885242   0.000000000000
 -2610.190302225   0.000000000000
 -2610.156788241   0.000000000000
 -2610.150374464   0.000000000000
 -2610.125502447   0.000000000000
 -2610.119615217   0.000000000000
   CI-PROBLEM SOLVED
   DENSITIES MADE
   E(CAS)= -2610.344636618 Eh DE=   -5.489728e-02
   --- Energy gap subspaces: Ext-Act = 0.205   Act-Int = 0.031
   N(occ)=  1.20000 1.20000 1.20000 1.20000 1.20000
   ||g|| =     8.401712e-01 Max(G)=   -2.242191e-01 Rot=110,105
   --- Orbital Update [SuperCI(PT)]
   --- Canonicalize Internal Space
   --- Canonicalize External Space
   --- SX_PT (Skipped TA=0 IT=0): ||X|| =      0.284467064 Max(X)(110,105) =      0.172614054 
   --- SFit(Active Orbitals)

MACRO-ITERATION   4: 
   --- Inactive Energy E0 = -2597.85498971 Eh
CI-ITERATION   0: 
 -2610.480157734   0.000000000000 (    0.00)
 -2610.473255247   0.000000000000
 -2610.469049988   0.000000000000
 -2610.462824829   0.000000000000
 -2610.444546386   0.000000000000
   CI-PROBLEM SOLVED
   DENSITIES MADE
CI-ITERATION   0: 
 -2610.416703945   0.000000000000 (    0.00)
 -2610.414261976   0.000000000000
 -2610.409279367   0.000000000000
 -2610.392875968   0.000000000000
 -2610.391566695   0.000000000000
 -2610.391337477   0.000000000000
 -2610.388799973   0.000000000000
 -2610.386353920   0.000000000000
 -2610.384452715   0.000000000000
 -2610.384307368   0.000000000000
 -2610.382306369   0.000000000000
 -2610.381560749   0.000000000000
 -2610.380480391   0.000000000000
 -2610.379832949   0.000000000000
 -2610.376543434   0.000000000000
 -2610.371083276   0.000000000000
 -2610.371043015   0.000000000000
 -2610.370841317   0.000000000000
 -2610.369934524   0.000000000000
 -2610.368341312   0.000000000000
 -2610.366928149   0.000000000000
 -2610.366318412   0.000000000000
 -2610.365960947   0.000000000000
 -2610.359080982   0.000000000000
 -2610.352395654   0.000000000000
 -2610.352331509   0.000000000000
 -2610.349944374   0.000000000000
 -2610.340609538   0.000000000000
 -2610.332747819   0.000000000000
 -2610.326322147   0.000000000000
 -2610.325882079   0.000000000000
 -2610.306398257   0.000000000000
 -2610.304536575   0.000000000000
 -2610.301600686   0.000000000000
 -2610.286560292   0.000000000000
 -2610.253546966   0.000000000000
 -2610.248386408   0.000000000000
 -2610.246123848   0.000000000000
 -2610.244794055   0.000000000000
 -2610.244380481   0.000000000000
 -2610.240078980   0.000000000000
 -2610.235553363   0.000000000000
 -2610.234346702   0.000000000000
 -2610.217244813   0.000000000000
 -2610.207508376   0.000000000000
   CI-PROBLEM SOLVED
   DENSITIES MADE
   E(CAS)= -2610.400999953 Eh DE=   -5.636334e-02
   --- Energy gap subspaces: Ext-Act = 0.134   Act-Int = 0.124
   N(occ)=  1.20000 1.20000 1.20000 1.20000 1.20000
   ||g|| =     3.407893e-01 Max(G)=   -1.171175e-01 Rot=109,104
   --- Orbital Update [SuperCI(PT)]
   --- Canonicalize Internal Space
   --- Canonicalize External Space
   --- SX_PT (Skipped TA=0 IT=0): ||X|| =      0.197844090 Max(X)(109,102) =     -0.171505582 
   --- SFit(Active Orbitals)

MACRO-ITERATION   5: 
   --- Inactive Energy E0 = -2597.36488822 Eh
CI-ITERATION   0: 
 -2610.489881051   0.000000000000 (    0.00)
 -2610.485214867   0.000000000000
 -2610.482147269   0.000000000000
 -2610.477715228   0.000000000000
 -2610.460708418   0.000000000000
   CI-PROBLEM SOLVED
   DENSITIES MADE
CI-ITERATION   0: 
 -2610.422113654   0.000000000000 (    0.00)
 -2610.420205411   0.000000000000
 -2610.417161709   0.000000000000
 -2610.400691171   0.000000000000
 -2610.400557543   0.000000000000
 -2610.399682806   0.000000000000
 -2610.398820210   0.000000000000
 -2610.395903007   0.000000000000
 -2610.394406619   0.000000000000
 -2610.393418368   0.000000000000
 -2610.392153853   0.000000000000
 -2610.391800744   0.000000000000
 -2610.389897352   0.000000000000
 -2610.388702352   0.000000000000
 -2610.386161725   0.000000000000
 -2610.381661005   0.000000000000
 -2610.381288511   0.000000000000
 -2610.379795780   0.000000000000
 -2610.379353276   0.000000000000
 -2610.378835511   0.000000000000
 -2610.377376157   0.000000000000
 -2610.376919201   0.000000000000
 -2610.375043362   0.000000000000
 -2610.370489830   0.000000000000
 -2610.364451827   0.000000000000
 -2610.363699815   0.000000000000
 -2610.363436486   0.000000000000
 -2610.348407759   0.000000000000
 -2610.345101128   0.000000000000
 -2610.343331874   0.000000000000
 -2610.339932974   0.000000000000
 -2610.335866834   0.000000000000
 -2610.331543904   0.000000000000
 -2610.328477863   0.000000000000
 -2610.319494933   0.000000000000
 -2610.263404599   0.000000000000
 -2610.260636720   0.000000000000
 -2610.257424854   0.000000000000
 -2610.253201457   0.000000000000
 -2610.252170572   0.000000000000
 -2610.248642540   0.000000000000
 -2610.248575610   0.000000000000
 -2610.244831272   0.000000000000
 -2610.242203504   0.000000000000
 -2610.238774408   0.000000000000
   CI-PROBLEM SOLVED
   DENSITIES MADE
   E(CAS)= -2610.413856129 Eh DE=   -1.285618e-02
   --- Energy gap subspaces: Ext-Act = 0.146   Act-Int = 0.096
   N(occ)=  1.20000 1.20000 1.20000 1.20000 1.20000
   ||g|| =     2.167236e-01 Max(G)=   -1.097015e-01 Rot=109,104
   --- Orbital Update [SuperCI(PT)]
   --- Canonicalize Internal Space
   --- Canonicalize External Space
   --- SX_PT (Skipped TA=0 IT=0): ||X|| =      0.177149266 Max(X)(109,103) =      0.157290168 
   --- SFit(Active Orbitals)

MACRO-ITERATION   6: 
   --- Inactive Energy E0 = -2596.28124875 Eh
CI-ITERATION   0: 
 -2610.508648557   0.000000000000 (    0.12)
 -2610.506705802   0.000000000000
 -2610.504738304   0.000000000000
 -2610.502509833   0.000000000000
 -2610.490261556   0.000000000000
   CI-PROBLEM SOLVED
   DENSITIES MADE
CI-ITERATION   0: 
 -2610.427064395   0.000000000000 (    0.00)
 -2610.426096487   0.000000000000
 -2610.424946271   0.000000000000
 -2610.417880101   0.000000000000
 -2610.416894720   0.000000000000
 -2610.415617504   0.000000000000
 -2610.415496302   0.000000000000
 -2610.413000516   0.000000000000
 -2610.411651445   0.000000000000
 -2610.410915275   0.000000000000
 -2610.410299337   0.000000000000
 -2610.407238260   0.000000000000
 -2610.406129904   0.000000000000
 -2610.405946779   0.000000000000
 -2610.401796077   0.000000000000
 -2610.399574233   0.000000000000
 -2610.399250601   0.000000000000
 -2610.398678585   0.000000000000
 -2610.398239793   0.000000000000
 -2610.395758848   0.000000000000
 -2610.395024285   0.000000000000
 -2610.394100741   0.000000000000
 -2610.394034492   0.000000000000
 -2610.392368334   0.000000000000
 -2610.391468001   0.000000000000
 -2610.391023020   0.000000000000
 -2610.386812512   0.000000000000
 -2610.385912934   0.000000000000
 -2610.384668154   0.000000000000
 -2610.384184639   0.000000000000
 -2610.363816673   0.000000000000
 -2610.360162669   0.000000000000
 -2610.358731103   0.000000000000
 -2610.355070499   0.000000000000
 -2610.355003522   0.000000000000
 -2610.278394732   0.000000000000
 -2610.277918806   0.000000000000
 -2610.271947345   0.000000000000
 -2610.268146530   0.000000000000
 -2610.262667653   0.000000000000
 -2610.261030973   0.000000000000
 -2610.259155581   0.000000000000
 -2610.257784959   0.000000000000
 -2610.257653347   0.000000000000
 -2610.254832830   0.000000000000
   CI-PROBLEM SOLVED
   DENSITIES MADE
   E(CAS)= -2610.435112958 Eh DE=   -2.125683e-02
   --- Energy gap subspaces: Ext-Act = 0.156   Act-Int = 0.052
   N(occ)=  1.20000 1.20000 1.20000 1.20000 1.20000
   ||g|| =     2.902480e-01 Max(G)=   -1.018109e-01 Rot=109,104
   --- Orbital Update [SuperCI(PT)]
   --- Canonicalize Internal Space
   --- Canonicalize External Space
   --- SX_PT (Skipped TA=0 IT=0): ||X|| =      0.159530483 Max(X)(109,103) =     -0.144464423 
   --- SFit(Active Orbitals)

MACRO-ITERATION   7: 
   --- Inactive Energy E0 = -2594.99828429 Eh
CI-ITERATION   0: 
 -2610.530751479   0.000000000000 (    0.00)
 -2610.530442673   0.000000000000
 -2610.529129959   0.000000000000
 -2610.523732179   0.000000000000
 -2610.515158007   0.000000000000
   CI-PROBLEM SOLVED
   DENSITIES MADE
CI-ITERATION   0: 
 -2610.440671444   0.000000000000 (    0.00)
 -2610.439651159   0.000000000000
 -2610.437514078   0.000000000000
 -2610.435493952   0.000000000000
 -2610.433965882   0.000000000000
 -2610.433365185   0.000000000000
 -2610.432334669   0.000000000000
 -2610.431241477   0.000000000000
 -2610.430360385   0.000000000000
 -2610.427721543   0.000000000000
 -2610.426960163   0.000000000000
 -2610.422025465   0.000000000000
 -2610.421908041   0.000000000000
 -2610.419876362   0.000000000000
 -2610.418938665   0.000000000000
 -2610.415903660   0.000000000000
 -2610.415406434   0.000000000000
 -2610.413285903   0.000000000000
 -2610.412870347   0.000000000000
 -2610.410744498   0.000000000000
 -2610.409578728   0.000000000000
 -2610.408105853   0.000000000000
 -2610.407741796   0.000000000000
 -2610.407437541   0.000000000000
 -2610.406732070   0.000000000000
 -2610.401488620   0.000000000000
 -2610.400899199   0.000000000000
 -2610.399767733   0.000000000000
 -2610.399228825   0.000000000000
 -2610.398858358   0.000000000000
 -2610.373583839   0.000000000000
 -2610.370129662   0.000000000000
 -2610.368329880   0.000000000000
 -2610.365759415   0.000000000000
 -2610.364818208   0.000000000000
 -2610.276455487   0.000000000000
 -2610.273557882   0.000000000000
 -2610.272710637   0.000000000000
 -2610.267036835   0.000000000000
 -2610.264661484   0.000000000000
 -2610.263576969   0.000000000000
 -2610.262459838   0.000000000000
 -2610.256523031   0.000000000000
 -2610.254199864   0.000000000000
 -2610.253330110   0.000000000000
   CI-PROBLEM SOLVED
   DENSITIES MADE
   E(CAS)= -2610.452334887 Eh DE=   -1.722193e-02
   --- Energy gap subspaces: Ext-Act = 0.168   Act-Int = 0.004
   N(occ)=  1.20000 1.20000 1.20000 1.20000 1.20000
   ||g|| =     3.456088e-01 Max(G)=    3.874619e-02 Rot=382,15
   --- Orbital Update [SuperCI(PT)]
   --- Canonicalize Internal Space
   --- Canonicalize External Space
   --- SX_PT (Skipped TA=0 IT=0): ||X|| =      0.089595041 Max(X)(110,105) =     -0.021923318 
   --- SFit(Active Orbitals)

MACRO-ITERATION   8: 
   --- Inactive Energy E0 = -2594.82952800 Eh
CI-ITERATION   0: 
 -2610.535090816   0.000000000000 (    0.00)
 -2610.534988713   0.000000000000
 -2610.534040349   0.000000000000
 -2610.527365492   0.000000000000
 -2610.519696031   0.000000000000
   CI-PROBLEM SOLVED
   DENSITIES MADE
CI-ITERATION   0: 
 -2610.447216758   0.000000000000 (    0.00)
 -2610.446068358   0.000000000000
 -2610.443389277   0.000000000000
 -2610.441329180   0.000000000000
 -2610.439645326   0.000000000000
 -2610.439214604   0.000000000000
 -2610.438033470   0.000000000000
 -2610.437020064   0.000000000000
 -2610.435684921   0.000000000000
 -2610.433182025   0.000000000000
 -2610.432218701   0.000000000000
 -2610.427436562   0.000000000000
 -2610.427352703   0.000000000000
 -2610.425366537   0.000000000000
 -2610.424082263   0.000000000000
 -2610.421634405   0.000000000000
 -2610.420908626   0.000000000000
 -2610.418469024   0.000000000000
 -2610.418062975   0.000000000000
 -2610.415918306   0.000000000000
 -2610.414322020   0.000000000000
 -2610.413578600   0.000000000000
 -2610.413015968   0.000000000000
 -2610.412680337   0.000000000000
 -2610.412215615   0.000000000000
 -2610.406746501   0.000000000000
 -2610.406067401   0.000000000000
 -2610.404743676   0.000000000000
 -2610.404213731   0.000000000000
 -2610.403761204   0.000000000000
 -2610.379971087   0.000000000000
 -2610.376006642   0.000000000000
 -2610.374129645   0.000000000000
 -2610.371351445   0.000000000000
 -2610.370284252   0.000000000000
 -2610.284331529   0.000000000000
 -2610.281323480   0.000000000000
 -2610.279186902   0.000000000000
 -2610.273528842   0.000000000000
 -2610.271806545   0.000000000000
 -2610.269588252   0.000000000000
 -2610.268552674   0.000000000000
 -2610.262965165   0.000000000000
 -2610.260603666   0.000000000000
 -2610.259776740   0.000000000000
   CI-PROBLEM SOLVED
   DENSITIES MADE
   E(CAS)= -2610.457417984 Eh DE=   -5.083097e-03
   --- Energy gap subspaces: Ext-Act = 0.210   Act-Int = -0.035
   N(occ)=  1.20000 1.20000 1.20000 1.20000 1.20000
   ||g|| =     6.649751e-02 Max(G)=    2.242685e-02 Rot=110,105
   --- Orbital Update [SuperCI(PT)]
   --- Canonicalize Internal Space
   --- Canonicalize External Space
   --- SX_PT (Skipped TA=0 IT=0): ||X|| =      0.033337486 Max(X)(109,104) =     -0.020758984 
   --- SFit(Active Orbitals)

MACRO-ITERATION   9: 
   --- Inactive Energy E0 = -2594.90901534 Eh
CI-ITERATION   0: 
 -2610.534372517   0.000000000000 (    0.00)
 -2610.533898645   0.000000000000
 -2610.533728090   0.000000000000
 -2610.526069133   0.000000000000
 -2610.519541001   0.000000000000
   CI-PROBLEM SOLVED
   DENSITIES MADE
CI-ITERATION   0: 
 -2610.447866349   0.000000000000 (    0.00)
 -2610.446548551   0.000000000000
 -2610.443767314   0.000000000000
 -2610.441672595   0.000000000000
 -2610.440087169   0.000000000000
 -2610.439715159   0.000000000000
 -2610.438617922   0.000000000000
 -2610.437357311   0.000000000000
 -2610.435819948   0.000000000000
 -2610.433624319   0.000000000000
 -2610.432633265   0.000000000000
 -2610.427901215   0.000000000000
 -2610.427859933   0.000000000000
 -2610.425763251   0.000000000000
 -2610.424398291   0.000000000000
 -2610.422299488   0.000000000000
 -2610.421459444   0.000000000000
 -2610.418867808   0.000000000000
 -2610.418504558   0.000000000000
 -2610.416443794   0.000000000000
 -2610.414680107   0.000000000000
 -2610.414041599   0.000000000000
 -2610.413314883   0.000000000000
 -2610.413018929   0.000000000000
 -2610.412752461   0.000000000000
 -2610.407324369   0.000000000000
 -2610.406645448   0.000000000000
 -2610.405302829   0.000000000000
 -2610.404702014   0.000000000000
 -2610.404273818   0.000000000000
 -2610.381172781   0.000000000000
 -2610.376902646   0.000000000000
 -2610.375151146   0.000000000000
 -2610.372341047   0.000000000000
 -2610.371261635   0.000000000000
 -2610.286724307   0.000000000000
 -2610.284061851   0.000000000000
 -2610.280682880   0.000000000000
 -2610.275389011   0.000000000000
 -2610.274205733   0.000000000000
 -2610.271471306   0.000000000000
 -2610.270177907   0.000000000000
 -2610.265321712   0.000000000000
 -2610.262573339   0.000000000000
 -2610.262070198   0.000000000000
   CI-PROBLEM SOLVED
   DENSITIES MADE
   E(CAS)= -2610.457502846 Eh DE=   -8.486114e-05
   --- Energy gap subspaces: Ext-Act = 0.217   Act-Int = -0.040
   N(occ)=  1.20000 1.20000 1.20000 1.20000 1.20000
   ||g|| =     3.883262e-02 Max(G)=   -2.182214e-02 Rot=109,104
   --- Orbital Update [SuperCI(PT)]
   --- Canonicalize Internal Space
   --- Canonicalize External Space
   --- SX_PT (Skipped TA=0 IT=0): ||X|| =      0.032697425 Max(X)(109,104) =     -0.030966342 
   --- SFit(Active Orbitals)

MACRO-ITERATION  10: 
   --- Inactive Energy E0 = -2594.74594566 Eh
CI-ITERATION   0: 
 -2610.536212833   0.000000000000 (    0.00)
 -2610.535827799   0.000000000000
 -2610.535444008   0.000000000000
 -2610.528583958   0.000000000000
 -2610.520674075   0.000000000000
   CI-PROBLEM SOLVED
   DENSITIES MADE
CI-ITERATION   0: 
 -2610.447314947   0.000000000000 (    0.00)
 -2610.446104265   0.000000000000
 -2610.443261064   0.000000000000
 -2610.442010743   0.000000000000
 -2610.440060407   0.000000000000
 -2610.439753928   0.000000000000
 -2610.438445853   0.000000000000
 -2610.437594597   0.000000000000
 -2610.436419618   0.000000000000
 -2610.433632189   0.000000000000
 -2610.432880220   0.000000000000
 -2610.428477370   0.000000000000
 -2610.428078172   0.000000000000
 -2610.425760698   0.000000000000
 -2610.425124773   0.000000000000
 -2610.421811578   0.000000000000
 -2610.421795019   0.000000000000
 -2610.419158365   0.000000000000
 -2610.418806696   0.000000000000
 -2610.416735675   0.000000000000
 -2610.414903421   0.000000000000
 -2610.414474948   0.000000000000
 -2610.414070925   0.000000000000
 -2610.413737269   0.000000000000
 -2610.412628670   0.000000000000
 -2610.407734504   0.000000000000
 -2610.407013036   0.000000000000
 -2610.405778841   0.000000000000
 -2610.405117756   0.000000000000
 -2610.404798452   0.000000000000
 -2610.380001732   0.000000000000
 -2610.376458826   0.000000000000
 -2610.374720987   0.000000000000
 -2610.372118713   0.000000000000
 -2610.371193974   0.000000000000
 -2610.282789701   0.000000000000
 -2610.280431353   0.000000000000
 -2610.279202666   0.000000000000
 -2610.274283989   0.000000000000
 -2610.271625720   0.000000000000
 -2610.270216762   0.000000000000
 -2610.269090457   0.000000000000
 -2610.263922344   0.000000000000
 -2610.261229705   0.000000000000
 -2610.260874054   0.000000000000
   CI-PROBLEM SOLVED
   DENSITIES MADE
   E(CAS)= -2610.458248100 Eh DE=   -7.452547e-04
   --- Energy gap subspaces: Ext-Act = 0.218   Act-Int = -0.043
   N(occ)=  1.20000 1.20000 1.20000 1.20000 1.20000
   ||g|| =     4.327045e-02 Max(G)=    9.133511e-03 Rot=382,15
   --- Orbital Update [SuperCI(PT)]
   --- Canonicalize Internal Space
   --- Canonicalize External Space
   --- SX_PT (Skipped TA=0 IT=0): ||X|| =      0.011690087 Max(X)(113,104) =      0.003993508 
   --- SFit(Active Orbitals)

MACRO-ITERATION  11: 
   --- Inactive Energy E0 = -2594.68854447 Eh
CI-ITERATION   0: 
 -2610.536310301   0.000000000000 (    0.00)
 -2610.536003708   0.000000000000
 -2610.535526292   0.000000000000
 -2610.528845534   0.000000000000
 -2610.520941620   0.000000000000
   CI-PROBLEM SOLVED
   DENSITIES MADE
CI-ITERATION   0: 
 -2610.446761808   0.000000000000 (    0.00)
 -2610.445643275   0.000000000000
 -2610.442753482   0.000000000000
 -2610.441814905   0.000000000000
 -2610.439815274   0.000000000000
 -2610.439585911   0.000000000000
 -2610.438233184   0.000000000000
 -2610.437454616   0.000000000000
 -2610.436360706   0.000000000000
 -2610.433360647   0.000000000000
 -2610.432708535   0.000000000000
 -2610.428418240   0.000000000000
 -2610.427903934   0.000000000000
 -2610.425510908   0.000000000000
 -2610.425131190   0.000000000000
 -2610.421809426   0.000000000000
 -2610.421462913   0.000000000000
 -2610.419112517   0.000000000000
 -2610.418729742   0.000000000000
 -2610.416756924   0.000000000000
 -2610.414816585   0.000000000000
 -2610.414371740   0.000000000000
 -2610.414038853   0.000000000000
 -2610.413729255   0.000000000000
 -2610.412380305   0.000000000000
 -2610.407772740   0.000000000000
 -2610.407012044   0.000000000000
 -2610.405844498   0.000000000000
 -2610.405102692   0.000000000000
 -2610.404832373   0.000000000000
 -2610.379574995   0.000000000000
 -2610.376182089   0.000000000000
 -2610.374473823   0.000000000000
 -2610.371990201   0.000000000000
 -2610.371140452   0.000000000000
 -2610.281695183   0.000000000000
 -2610.279726794   0.000000000000
 -2610.278357106   0.000000000000
 -2610.273922860   0.000000000000
 -2610.271030711   0.000000000000
 -2610.269729188   0.000000000000
 -2610.268711805   0.000000000000
 -2610.263743899   0.000000000000
 -2610.261052912   0.000000000000
 -2610.260710740   0.000000000000
   CI-PROBLEM SOLVED
   DENSITIES MADE
   E(CAS)= -2610.458221323 Eh DE=    2.677724e-05
   --- Energy gap subspaces: Ext-Act = 0.223   Act-Int = -0.049
   N(occ)=  1.20000 1.20000 1.20000 1.20000 1.20000
   ||g|| =     2.453000e-02 Max(G)=    8.064620e-03 Rot=109,104
   --- Orbital Update [SuperCI(PT)]
   --- Canonicalize Internal Space
   --- Canonicalize External Space
   --- SX_PT (Skipped TA=0 IT=0): ||X|| =      0.014302136 Max(X)(109,104) =      0.011405825 
   --- SFit(Active Orbitals)

MACRO-ITERATION  12: 
   --- Inactive Energy E0 = -2594.74344053 Eh
CI-ITERATION   0: 
 -2610.535963831   0.000000000000 (    0.00)
 -2610.535536239   0.000000000000
 -2610.535247362   0.000000000000
 -2610.528205627   0.000000000000
 -2610.520501547   0.000000000000
   CI-PROBLEM SOLVED
   DENSITIES MADE
CI-ITERATION   0: 
 -2610.448043685   0.000000000000 (    0.00)
 -2610.446862802   0.000000000000
 -2610.443863606   0.000000000000
 -2610.442385380   0.000000000000
 -2610.440392289   0.000000000000
 -2610.440180778   0.000000000000
 -2610.438874904   0.000000000000
 -2610.437934521   0.000000000000
 -2610.436611418   0.000000000000
 -2610.433850314   0.000000000000
 -2610.433029147   0.000000000000
 -2610.428745396   0.000000000000
 -2610.428423093   0.000000000000
 -2610.426142520   0.000000000000
 -2610.425356503   0.000000000000
 -2610.422116717   0.000000000000
 -2610.422107884   0.000000000000
 -2610.419310962   0.000000000000
 -2610.419035348   0.000000000000
 -2610.416929612   0.000000000000
 -2610.414959639   0.000000000000
 -2610.414838518   0.000000000000
 -2610.414356868   0.000000000000
 -2610.414011931   0.000000000000
 -2610.413086768   0.000000000000
 -2610.407950975   0.000000000000
 -2610.407232532   0.000000000000
 -2610.405987097   0.000000000000
 -2610.405314358   0.000000000000
 -2610.404966886   0.000000000000
 -2610.380824935   0.000000000000
 -2610.376934776   0.000000000000
 -2610.375276946   0.000000000000
 -2610.372622337   0.000000000000
 -2610.371596503   0.000000000000
 -2610.284191482   0.000000000000
 -2610.281665948   0.000000000000
 -2610.280124709   0.000000000000
 -2610.275194248   0.000000000000
 -2610.272815398   0.000000000000
 -2610.271080379   0.000000000000
 -2610.269912347   0.000000000000
 -2610.265091205   0.000000000000
 -2610.262224709   0.000000000000
 -2610.261869834   0.000000000000
   CI-PROBLEM SOLVED
   DENSITIES MADE
   E(CAS)= -2610.458371329 Eh DE=   -1.500065e-04
   --- Energy gap subspaces: Ext-Act = 0.227   Act-Int = -0.052
   N(occ)=  1.20000 1.20000 1.20000 1.20000 1.20000
   ||g|| =     2.052687e-02 Max(G)=   -4.026236e-03 Rot=382,15
   --- Orbital Update [SuperCI(PT)]
   --- Canonicalize Internal Space
   --- Canonicalize External Space
   --- SX_PT (Skipped TA=0 IT=0): ||X|| =      0.005887536 Max(X)(109,104) =     -0.002194664 
   --- SFit(Active Orbitals)

MACRO-ITERATION  13: 
   --- Inactive Energy E0 = -2594.74945564 Eh
CI-ITERATION   0: 
 -2610.536004361   0.000000000000 (    0.29)
 -2610.535519003   0.000000000000
 -2610.535255348   0.000000000000
 -2610.528191049   0.000000000000
 -2610.520521582   0.000000000000
   CI-PROBLEM SOLVED
   DENSITIES MADE
CI-ITERATION   0: 
 -2610.448060545   0.000000000000 (    0.00)
 -2610.446902807   0.000000000000
 -2610.443875994   0.000000000000
 -2610.442397975   0.000000000000
 -2610.440394694   0.000000000000
 -2610.440215907   0.000000000000
[...]
      px      :     2.134920
      py      :     2.211541
      dz2     :     1.999731  d :     9.971528
      dxz     :     1.993768
      dyz     :     1.993986
      dx2y2   :     1.995897
      dxy     :     1.988146
      f0      :     0.000792  f :     0.004689
      f+1     :     0.000659
      f-1     :     0.000727
      f+2     :     0.000475
      f-2     :     0.000821
      f+3     :     0.000612
      f-3     :     0.000603
  2 Aus       :     2.803080  s :     2.803080
      pz      :     2.041005  p :     6.104912
      px      :     2.042604
      py      :     2.021303
      dz2     :     1.993123  d :     9.946262
      dxz     :     1.993326
      dyz     :     1.984841
      dx2y2   :     1.990862
      dxy     :     1.984112
      f0      :     0.000378  f :     0.003125
      f+1     :     0.000440
      f-1     :     0.000405
      f+2     :     0.000471
      f-2     :     0.000654
      f+3     :     0.000377
      f-3     :     0.000399
  3 Aus       :     2.712096  s :     2.712096
      pz      :     2.191525  p :     6.356109
      px      :     2.075140
      py      :     2.089443
      dz2     :     1.979109  d :     9.928936
      dxz     :     1.996644
      dyz     :     1.990340
      dx2y2   :     1.977829
      dxy     :     1.985014
      f0      :     0.000526  f :     0.003698
      f+1     :     0.000539
      f-1     :     0.000696
      f+2     :     0.000705
      f-2     :     0.000578
      f+3     :     0.000242
      f-3     :     0.000412
  4 Aus       :     2.713169  s :     2.713169
      pz      :     2.100277  p :     6.354837
      px      :     2.150634
      py      :     2.103926
      dz2     :     1.984878  d :     9.929211
      dxz     :     1.996333
      dyz     :     1.987607
      dx2y2   :     1.987246
      dxy     :     1.973147
      f0      :     0.000375  f :     0.003693
      f+1     :     0.000571
      f-1     :     0.000331
      f+2     :     0.000561
      f-2     :     0.000533
      f+3     :     0.000685
      f-3     :     0.000637
  5 Aus       :     2.551394  s :     2.551394
      pz      :     2.089585  p :     6.470415
      px      :     2.297976
      py      :     2.082854
      dz2     :     1.988916  d :     9.959350
      dxz     :     1.999457
      dyz     :     1.991391
      dx2y2   :     1.969857
      dxy     :     2.009729
      f0      :     0.000350  f :     0.003759
      f+1     :     0.000607
      f-1     :     0.000522
      f+2     :     0.000374
      f-2     :     0.000604
      f+3     :     0.000570
      f-3     :     0.000733
  6 Aus       :     2.525949  s :     2.525949
      pz      :     2.088590  p :     6.458560
      px      :     2.064840
      py      :     2.305131
      dz2     :     1.982289  d :     9.966779
      dxz     :     1.990096
      dyz     :     2.008292
      dx2y2   :     1.994756
      dxy     :     1.991346
      f0      :     0.000533  f :     0.003734
      f+1     :     0.000255
      f-1     :     0.000763
      f+2     :     0.000576
      f-2     :     0.000701
      f+3     :     0.000470
      f-3     :     0.000435
  7 Aus       :     2.551297  s :     2.551297
      pz      :     2.254740  p :     6.470795
      px      :     2.118742
      py      :     2.097313
      dz2     :     2.000412  d :     9.959091
      dxz     :     1.995052
      dyz     :     1.979541
      dx2y2   :     1.995239
      dxy     :     1.988847
      f0      :     0.000646  f :     0.003758
      f+1     :     0.000627
      f-1     :     0.000546
      f+2     :     0.000475
      f-2     :     0.000590
      f+3     :     0.000537
      f-3     :     0.000337
  8 Aus       :     2.500679  s :     2.500679
      pz      :     2.200055  p :     6.467898
      px      :     2.182748
      py      :     2.085095
      dz2     :     2.010597  d :     9.985959
      dxz     :     1.990398
      dyz     :     1.988120
      dx2y2   :     2.000692
      dxy     :     1.996152
      f0      :     0.000510  f :     0.003412
      f+1     :     0.000682
      f-1     :     0.000537
      f+2     :     0.000303
      f-2     :     0.000510
      f+3     :     0.000506
      f-3     :     0.000364
  9 Aus       :     2.526915  s :     2.526915
      pz      :     2.107836  p :     6.456875
      px      :     2.073670
      py      :     2.275368
      dz2     :     1.993894  d :     9.967114
      dxz     :     1.990347
      dyz     :     1.994865
      dx2y2   :     1.989206
      dxy     :     1.998801
      f0      :     0.000483  f :     0.003748
      f+1     :     0.000689
      f-1     :     0.000485
      f+2     :     0.000364
      f-2     :     0.000361
      f+3     :     0.000661
      f-3     :     0.000705
 10 Fes       :     6.315743  s :     6.315743
      pz      :     4.238636  p :    12.746331
      px      :     4.231892
      py      :     4.275804
      dz2     :     1.388577  d :     7.105942
      dxz     :     1.382396
      dyz     :     1.441028
      dx2y2   :     1.423989
      dxy     :     1.469952
      f0      :     0.000074  f :     0.000533
      f+1     :     0.000051
      f-1     :     0.000070
      f+2     :     0.000069
      f-2     :     0.000111
      f+3     :     0.000062
      f-3     :     0.000095

SPIN
  0 Aus       :     0.000104  s :     0.000104
      pz      :     0.001661  p :     0.003448
      px      :     0.001459
      py      :     0.000329
      dz2     :     0.001022  d :     0.007114
      dxz     :     0.000823
      dyz     :     0.002555
      dx2y2   :     0.001225
      dxy     :     0.001489
      f0      :     0.000013  f :     0.000127
      f+1     :     0.000009
      f-1     :     0.000031
      f+2     :     0.000012
      f-2     :     0.000037
      f+3     :     0.000019
      f-3     :     0.000005
  1 Aus       :     0.000388  s :     0.000388
      pz      :     0.001040  p :     0.002333
      px      :     0.001001
      py      :     0.000291
      dz2     :     0.001173  d :     0.007428
      dxz     :     0.001303
      dyz     :     0.001359
      dx2y2   :     0.001333
      dxy     :     0.002259
      f0      :     0.000017  f :     0.000117
      f+1     :     0.000011
      f-1     :     0.000004
      f+2     :     0.000015
      f-2     :     0.000030
      f+3     :     0.000011
      f-3     :     0.000029
  2 Aus       :     0.002308  s :     0.002308
      pz      :     0.000109  p :     0.000299
      px      :     0.000057
      py      :     0.000133
      dz2     :     0.000039  d :     0.000279
      dxz     :     0.000128
      dyz     :     0.000031
      dx2y2   :     0.000048
      dxy     :     0.000033
      f0      :     0.000000  f :     0.000003
      f+1     :     0.000000
      f-1     :     0.000001
      f+2     :     0.000000
      f-2     :     0.000000
      f+3     :     0.000001
      f-3     :     0.000000
  3 Aus       :     0.003537  s :     0.003537
      pz      :     0.001064  p :     0.003348
      px      :     0.000741
      py      :     0.001543
      dz2     :     0.001413  d :     0.009017
      dxz     :     0.000280
      dyz     :     0.002202
      dx2y2   :     0.002700
      dxy     :     0.002423
      f0      :     0.000015  f :     0.000157
      f+1     :     0.000002
      f-1     :     0.000028
      f+2     :     0.000026
      f-2     :     0.000005
      f+3     :     0.000035
      f-3     :     0.000047
  4 Aus       :     0.003555  s :     0.003555
      pz      :     0.001570  p :     0.003336
      px      :     0.001366
      py      :     0.000401
      dz2     :     0.001685  d :     0.009037
      dxz     :     0.001556
      dyz     :     0.001782
      dx2y2   :     0.001791
      dxy     :     0.002224
      f0      :     0.000019  f :     0.000157
      f+1     :     0.000017
      f-1     :     0.000020
      f+2     :     0.000009
      f-2     :     0.000050
      f+3     :     0.000025
      f-3     :     0.000017
  5 Aus       :     0.002430  s :     0.002430
      pz      :     0.000618  p :     0.002896
      px      :     0.001051
      py      :     0.001227
      dz2     :     0.000941  d :     0.007469
      dxz     :     0.000133
      dyz     :     0.002155
      dx2y2   :     0.003265
      dxy     :     0.000975
      f0      :     0.000016  f :     0.000150
      f+1     :     0.000002
      f-1     :     0.000023
      f+2     :     0.000029
      f-2     :     0.000002
      f+3     :     0.000015
      f-3     :     0.000063
  6 Aus       :     0.000877  s :     0.000877
      pz      :     0.000822  p :     0.003820
      px      :     0.000539
      py      :     0.002459
      dz2     :     0.003039  d :     0.006371
      dxz     :     0.001653
      dyz     :     0.001039
      dx2y2   :     0.000275
      dxy     :     0.000366
      f0      :     0.000052  f :     0.000115
      f+1     :     0.000024
      f-1     :     0.000028
      f+2     :     0.000005
      f-2     :     0.000005
      f+3     :     0.000000
      f-3     :     0.000000
  7 Aus       :     0.002422  s :     0.002422
      pz      :     0.001544  p :     0.002898
      px      :     0.000865
      py      :     0.000488
      dz2     :     0.000890  d :     0.007467
      dxz     :     0.001516
      dyz     :     0.001844
      dx2y2   :     0.001752
      dxy     :     0.001464
      f0      :     0.000027  f :     0.000150
      f+1     :     0.000006
      f-1     :     0.000009
      f+2     :     0.000013
      f-2     :     0.000055
      f+3     :     0.000020
      f-3     :     0.000020
  8 Aus       :     0.001348  s :     0.001348
      pz      :     0.001018  p :     0.002413
      px      :     0.000903
      py      :     0.000492
      dz2     :     0.000753  d :     0.007331
      dxz     :     0.002507
      dyz     :     0.002132
      dx2y2   :     0.000976
      dxy     :     0.000963
      f0      :     0.000014  f :     0.000160
      f+1     :     0.000031
      f-1     :     0.000024
      f+2     :     0.000018
      f-2     :     0.000055
      f+3     :     0.000009
      f-3     :     0.000008
  9 Aus       :     0.000882  s :     0.000882
      pz      :     0.000689  p :     0.003806
      px      :     0.000502
      py      :     0.002615
      dz2     :     0.001108  d :     0.006326
      dxz     :     0.001460
      dyz     :     0.000484
      dx2y2   :     0.001764
      dxy     :     0.001510
      f0      :     0.000015  f :     0.000113
      f+1     :     0.000017
      f-1     :     0.000001
      f+2     :     0.000013
      f-2     :     0.000014
      f+3     :     0.000020
      f-3     :     0.000034
 10 Fes       :     0.000605  s :     0.000605
      pz      :     0.000968  p :     0.002302
      px      :     0.001078
      py      :     0.000255
      dz2     :     0.580011  d :     2.881555
      dxz     :     0.579835
      dyz     :     0.573427
      dx2y2   :     0.575576
      dxy     :     0.572705
      f0      :     0.000000  f :     0.000001
      f+1     :     0.000000
      f-1     :     0.000000
      f+2     :     0.000000
      f-2     :     0.000000
      f+3     :     0.000000
      f-3     :     0.000000


                      *****************************
                      * MAYER POPULATION ANALYSIS *
                      *****************************

  NA   - Mulliken gross atomic population
  ZA   - Total nuclear charge
  QA   - Mulliken gross atomic charge
  VA   - Mayer's total valence
  BVA  - Mayer's bonded valence
  FA   - Mayer's free valence

  ATOM       NA         ZA         QA         VA         BVA        FA
  0 Au    19.0545    19.0000    -0.0545     1.7613     1.7546     0.0067
  1 Au    19.2251    19.0000    -0.2251     1.9178     1.9103     0.0075
  2 Au    18.6185    19.0000     0.3815     1.0921     1.0897     0.0024
  3 Au    18.9612    19.0000     0.0388     1.1414     1.1273     0.0141
  4 Au    18.9636    19.0000     0.0364     1.1374     1.1233     0.0141
  5 Au    18.7622    19.0000     0.2378     1.3109     1.3003     0.0106
  6 Au    18.7018    19.0000     0.2982     1.2779     1.2706     0.0074
  7 Au    18.7608    19.0000     0.2392     1.3107     1.3001     0.0106
  8 Au    18.7668    19.0000     0.2332     1.3723     1.3637     0.0086
  9 Au    18.7024    19.0000     0.2976     1.2753     1.2680     0.0073
 10 Fe    27.4830    26.0000    -1.4830     8.7400     4.1338     4.6063

  Mayer bond orders larger than 0.100000
B(  0-Au,  1-Au) :   0.4169 B(  0-Au,  2-Au) :   0.5617 B(  0-Au,  3-Au) :   0.1920 
B(  0-Au,  4-Au) :   0.1901 B(  0-Au, 10-Fe) :   0.3099 B(  1-Au,  2-Au) :   0.4678 
B(  1-Au,  5-Au) :   0.2616 B(  1-Au,  7-Au) :   0.2614 B(  1-Au, 10-Fe) :   0.4227 
B(  3-Au,  6-Au) :   0.1902 B(  3-Au, 10-Fe) :   0.6084 B(  4-Au,  9-Au) :   0.1873 
B(  4-Au, 10-Fe) :   0.6095 B(  5-Au,  9-Au) :   0.2563 B(  5-Au, 10-Fe) :   0.4885 
B(  6-Au,  7-Au) :   0.2543 B(  6-Au,  8-Au) :   0.3001 B(  6-Au, 10-Fe) :   0.3629 
B(  7-Au, 10-Fe) :   0.4879 B(  8-Au,  9-Au) :   0.3002 B(  8-Au, 10-Fe) :   0.4585 
B(  9-Au, 10-Fe) :   0.3615 


-------------------------------------------------------------
 Forming the transition density       ... done in 1.985761 sec
-------------------------------------------------------------



==========================================
CASSCF UV, CD spectra and dipole moments
==========================================
-------------------
ABSORPTION SPECTRUM
-------------------

Center of mass           = ( 12.2929, 15.2326, 15.1550)
Nuclear contribution to the dipole moment =   -11.981539,   -2.338283,    9.460507 au

Calculating the Dipole integrals                  ... done
Transforming integrals                            ... done
Calculating the Linear Momentum integrals         ... done
Transforming integrals                            ... done
Calculating the Angular Momentum integrals        ... done
Transforming integrals                            ... done

------------------------------------------------------------------------------------------
                                ABSORPTION SPECTRUM
------------------------------------------------------------------------------------------
  States           Energy   Wavelength   fosc          T2        TX         TY        TZ  
                   (cm-1)     (nm)                   (D**2)      (D)        (D)       (D) 
------------------------------------------------------------------------------------------
  0( 0)-> 1( 0) 5      91.1   109724.6   0.000000055   0.00128   0.02111  -0.01195   0.02620
  0( 0)-> 2( 0) 5     158.0   63287.7   0.000000132   0.00177   0.03081   0.02407  -0.01564
  0( 0)-> 3( 0) 5    1682.6   5943.2   0.000013194   0.01665  -0.08154   0.04312   0.09024
  0( 0)-> 4( 0) 5    3385.1   2954.1   0.000001046   0.00066  -0.01581   0.00840  -0.01831
------------------------------------------------------------------------------------------



------------------------------------------------------------------------------
                             CD SPECTRUM
------------------------------------------------------------------------------
      States        Energy   Wavelength   R*T        RX        RY        RZ   
                    (cm-1)      (nm)   (1e40*sgs)   (au)      (au)      (au)  
------------------------------------------------------------------------------
  0( 0)-> 1( 0) 5      91.1   109724.6     0.16942  -0.32891  -0.79116  -0.06085
  0( 0)-> 2( 0) 5     158.0   63287.7    -0.10264  -0.25711   0.11525  -0.29378
  0( 0)-> 3( 0) 5    1682.6   5943.2    -0.02161   0.11886  -0.05864   0.13413
  0( 0)-> 4( 0) 5    3385.1   2954.1     0.00005  -0.49580  -0.17737   0.34662
------------------------------------------------------------------------------

------------------------------------------------------------------------------
                                 DIPOLE MOMENTS
------------------------------------------------------------------------------
  Root  Block           TX        TY        TZ           |T|
                      (Debye)   (Debye)   (Debye)      (Debye)
------------------------------------------------------------------------------
    0    0            0.50672   0.64857  -0.16612      0.83965

--------------
CASSCF TIMINGS
--------------

Total time                       ...     2452.3 sec
Sum of individual times          ...     2432.8 sec ( 99.2%)

Calculation of AO operators
   F(Core) operator              ...     1198.9 sec ( 48.9%)
   G(Act) operator               ...     1117.7 sec ( 45.6%)
   J(AO) operators               ...        0.0 sec (  0.0%)
Calculation of MO transformed quantities
   J(MO) operators               ...       79.7 sec (  3.2%)
   (pq|rs) integrals             ...        0.0 sec (  0.0%)
   AO->MO one electron integrals ...        0.6 sec (  0.0%)
Configuration interaction steps
   CI-setup phase                ...        0.0 sec (  0.0%)
   CI-solution phase             ...       23.9 sec (  1.0%)
   Generation of densities       ...        2.5 sec (  0.1%)
Orbital improvement steps
   Orbital gradient              ...        0.9 sec (  0.0%)
   O(1) converger                ...        6.6 sec (  0.3%)
Properties                       ...        2.0 sec (  0.1%)
   SOC integral calculation      ...        0.0 sec (  0.0%)
   SSC RMEs (incl. integrals)    ...        0.0 sec (  0.0%)
   SOC RMEs                      ...        0.0 sec (  0.0%)

Maximum memory used throughout the entire CASSCF-calculation: 256.4 MB

-------------------------   --------------------
FINAL SINGLE POINT ENERGY     -2610.458421207381
-------------------------   --------------------


                            ***************************************
                            *     ORCA property calculations      *
                            ***************************************

                                    ---------------------
                                    Active property flags
                                    ---------------------
   (+) Dipole Moment


------------------------------------------------------------------------------
                       ORCA ELECTRIC PROPERTIES CALCULATION
------------------------------------------------------------------------------

Dipole Moment Calculation                       ... on
Quadrupole Moment Calculation                   ... off
Polarizability Calculation                      ... off
GBWName                                         ... casscf.gbw
Electron density                                ... casscf.scfp
The origin for moment calculation is the CENTER OF MASS  = (12.292893, 15.232584 15.154984)

-------------
DIPOLE MOMENT
-------------
                                X             Y             Z
Electronic contribution:     12.17320       2.59356      -9.51917
Nuclear contribution   :    -11.98154      -2.33828       9.46051
                        -----------------------------------------
Total Dipole Moment    :      0.19166       0.25528      -0.05867
                        -----------------------------------------
Magnitude (a.u.)       :      0.32457
Magnitude (Debye)      :      0.82499



--------------------
Rotational spectrum 
--------------------
 
Rotational constants in cm-1:     0.001990     0.001476     0.001349 
Rotational constants in MHz :    59.664077    44.256980    40.440593 

 Dipole components along the rotational axes: 
x,y,z [a.u.] :    -0.084120    -0.313445    -0.004502 
x,y,z [Debye]:    -0.213816    -0.796715    -0.011444 

 

Timings for individual modules:

Sum of individual times         ...     2476.753 sec (=  41.279 min)
GTO integral calculation        ...       10.008 sec (=   0.167 min)   0.4 %
SCF iterations                  ...        7.800 sec (=   0.130 min)   0.3 %
CASSCF iterations               ...     2458.945 sec (=  40.982 min)  99.3 %
                             ****ORCA TERMINATED NORMALLY****
TOTAL RUN TIME: 0 days 0 hours 41 minutes 17 seconds 194 msec
