
                                 *****************
                                 * O   R   C   A *
                                 *****************

                                            #,                                       
                                            ###                                      
                                            ####                                     
                                            #####                                    
                                            ######                                   
                                           ########,                                 
                                     ,,################,,,,,                         
                               ,,#################################,,                 
                          ,,##########################################,,             
                       ,#########################################, ''#####,          
                    ,#############################################,,   '####,        
                  ,##################################################,,,,####,       
                ,###########''''           ''''###############################       
              ,#####''   ,,,,##########,,,,          '''####'''          '####       
            ,##' ,,,,###########################,,,                        '##       
           ' ,,###''''                  '''############,,,                           
         ,,##''                                '''############,,,,        ,,,,,,###''
      ,#''                                            '''#######################'''  
     '                                                          ''''####''''         
             ,#######,   #######,   ,#######,      ##                                
            ,#'     '#,  ##    ##  ,#'     '#,    #''#        ######   ,####,        
            ##       ##  ##   ,#'  ##            #'  '#       #        #'  '#        
            ##       ##  #######   ##           ,######,      #####,   #    #        
            '#,     ,#'  ##    ##  '#,     ,#' ,#      #,         ##   #,  ,#        
             '#######'   ##     ##  '#######'  #'      '#     #####' # '####'        



                  #######################################################
                  #                        -***-                        #
                  #          Department of theory and spectroscopy      #
                  #    Directorship and core code : Frank Neese         #
                  #        Max Planck Institute fuer Kohlenforschung    #
                  #                Kaiser Wilhelm Platz 1               #
                  #                 D-45470 Muelheim/Ruhr               #
                  #                      Germany                        #
                  #                                                     #
                  #                  All rights reserved                #
                  #                        -***-                        #
                  #######################################################


                         Program Version 5.0.3 -  RELEASE  -


 With contributions from (in alphabetic order):
   Daniel Aravena         : Magnetic Suceptibility
   Michael Atanasov       : Ab Initio Ligand Field Theory (pilot matlab implementation)
   Alexander A. Auer      : GIAO ZORA, VPT2 properties, NMR spectrum
   Ute Becker             : Parallelization
   Giovanni Bistoni       : ED, misc. LED, open-shell LED, HFLD
   Martin Brehm           : Molecular dynamics
   Dmytro Bykov           : SCF Hessian
   Vijay G. Chilkuri      : MRCI spin determinant printing, contributions to CSF-ICE
   Dipayan Datta          : RHF DLPNO-CCSD density
   Achintya Kumar Dutta   : EOM-CC, STEOM-CC
   Dmitry Ganyushin       : Spin-Orbit,Spin-Spin,Magnetic field MRCI
   Miquel Garcia          : C-PCM and meta-GGA Hessian, CC/C-PCM, Gaussian charge scheme
   Yang Guo               : DLPNO-NEVPT2, F12-NEVPT2, CIM, IAO-localization
   Andreas Hansen         : Spin unrestricted coupled pair/coupled cluster methods
   Benjamin Helmich-Paris : MC-RPA, TRAH-SCF, COSX integrals
   Lee Huntington         : MR-EOM, pCC
   Robert Izsak           : Overlap fitted RIJCOSX, COSX-SCS-MP3, EOM
   Marcus Kettner         : VPT2
   Christian Kollmar      : KDIIS, OOCD, Brueckner-CCSD(T), CCSD density, CASPT2, CASPT2-K
   Simone Kossmann        : Meta GGA functionals, TD-DFT gradient, OOMP2, MP2 Hessian
   Martin Krupicka        : Initial AUTO-CI
   Lucas Lang             : DCDCAS
   Marvin Lechner         : AUTO-CI (C++ implementation), FIC-MRCC
   Dagmar Lenk            : GEPOL surface, SMD
   Dimitrios Liakos       : Extrapolation schemes; Compound Job, initial MDCI parallelization
   Dimitrios Manganas     : Further ROCIS development; embedding schemes
   Dimitrios Pantazis     : SARC Basis sets
   Anastasios Papadopoulos: AUTO-CI, single reference methods and gradients
   Taras Petrenko         : DFT Hessian,TD-DFT gradient, ASA, ECA, R-Raman, ABS, FL, XAS/XES, NRVS
   Peter Pinski           : DLPNO-MP2, DLPNO-MP2 Gradient
   Christoph Reimann      : Effective Core Potentials
   Marius Retegan         : Local ZFS, SOC
   Christoph Riplinger    : Optimizer, TS searches, QM/MM, DLPNO-CCSD(T), (RO)-DLPNO pert. Triples
   Tobias Risthaus        : Range-separated hybrids, TD-DFT gradient, RPA, STAB
   Michael Roemelt        : Original ROCIS implementation
   Masaaki Saitow         : Open-shell DLPNO-CCSD energy and density
   Barbara Sandhoefer     : DKH picture change effects
   Avijit Sen             : IP-ROCIS
   Kantharuban Sivalingam : CASSCF convergence, NEVPT2, FIC-MRCI
   Bernardo de Souza      : ESD, SOC TD-DFT
   Georgi Stoychev        : AutoAux, RI-MP2 NMR, DLPNO-MP2 response
   Willem Van den Heuvel  : Paramagnetic NMR
   Boris Wezisla          : Elementary symmetry handling
   Frank Wennmohs         : Technical directorship


 We gratefully acknowledge several colleagues who have allowed us to
 interface, adapt or use parts of their codes:
   Stefan Grimme, W. Hujo, H. Kruse, P. Pracht,  : VdW corrections, initial TS optimization,
                  C. Bannwarth, S. Ehlert          DFT functionals, gCP, sTDA/sTD-DF
   Ed Valeev, F. Pavosevic, A. Kumar             : LibInt (2-el integral package), F12 methods
   Garnet Chan, S. Sharma, J. Yang, R. Olivares  : DMRG
   Ulf Ekstrom                                   : XCFun DFT Library
   Mihaly Kallay                                 : mrcc  (arbitrary order and MRCC methods)
   Jiri Pittner, Ondrej Demel                    : Mk-CCSD
   Frank Weinhold                                : gennbo (NPA and NBO analysis)
   Christopher J. Cramer and Donald G. Truhlar   : smd solvation model
   Lars Goerigk                                  : TD-DFT with DH, B97 family of functionals
   V. Asgeirsson, H. Jonsson                     : NEB implementation
   FAccTs GmbH                                   : IRC, NEB, NEB-TS, DLPNO-Multilevel, CI-OPT
                                                   MM, QMMM, 2- and 3-layer-ONIOM, Crystal-QMMM,
                                                   LR-CPCM, SF, NACMEs, symmetry and pop. for TD-DFT,
                                                   nearIR, NL-DFT gradient (VV10), updates on ESD,
                                                   ML-optimized integration grids
   S Lehtola, MJT Oliveira, MAL Marques          : LibXC Library
   Liviu Ungur et al                             : ANISO software


 Your calculation uses the libint2 library for the computation of 2-el integrals
 For citations please refer to: http://libint.valeyev.net

 Your ORCA version has been built with support for libXC version: 5.1.0
 For citations please refer to: https://tddft.org/programs/libxc/

 This ORCA versions uses:
   CBLAS   interface :  Fast vector & matrix operations
   LAPACKE interface :  Fast linear algebra routines
   SCALAPACK package :  Parallel linear algebra routines
   Shared memory     :  Shared parallel matrices
   BLAS/LAPACK       :  OpenBLAS 0.3.15  USE64BITINT DYNAMIC_ARCH NO_AFFINITY Haswell SINGLE_THREADED
        Core in use  :  Haswell
   Copyright (c) 2011-2014, The OpenBLAS Project




***************************************
The coordinates will be read from file: pbe.xyz
***************************************


================================================================================

cite the ECPs for Au [Def2-ECP] as follows:
Ce-Yb(ecp-28): M. Dolg, H. Stoll, H.Preuss, J. Chem. Phys., 1989, 90, 1730-1734.
Y-Cd(ecp-28), Hf-Hg(ecp-46): D. Andrae,U. Haeussermann, M. Dolg, H. Stoll, H. Preuss, Theor. Chim. Acta, 1990, 77, 123-141.
In-Sb(ecp-28), Tl-Bi(ecp-46): B. Metz, H. Stoll, M. Dolg, J. Chem. Phys., 2000, 113, 2563-2569.
Te-Xe(ecp-28), Po-Rn(ecp-46): K. A. Peterson, D. Figgen, E. Goll, H. Stoll, M. Dolg, J. Chem. Phys., 2003, 119, 11113-11123.
Rb(ecp-28), Cs(ecp-46): T. Leininger, A. Nicklass, W. Kuechle, H. Stoll, M. Dolg, A. Bergner, Chem. Phys. Lett., 1996, 255, 274-280.
Sr(ecp-28), Ba(ecp-46): M. Kaupp, P. V. Schleyer, H. Stoll and H. Preuss, J. Chem. Phys., 1991, 94, 1360-1366.
La(ecp-46): M. Dolg, H. Stoll, A. Savin, H. Preuss, Theor. Chim. Acta, 1989, 75, 173-194.
Lu(ecp-28): X. Cao, M. Dolg, J. Chem. Phys., 2001, 115, 7348-7355.

ECP parameters for Au [Def2-ECP] have been obtained from:
TURBOMOLE (7.0.2)

----- Orbital basis set information -----
Your calculation utilizes the basis: def2-TZVP
   F. Weigend and R. Ahlrichs, Phys. Chem. Chem. Phys. 7, 3297 (2005).

----- AuxJ basis set information -----
Your calculation utilizes the auxiliary basis: def2/J
   F. Weigend, Phys. Chem. Chem. Phys. 8, 1057 (2006).

----- AuxC basis set information -----
Your calculation utilizes the auxiliary basis: def2-TZVP/C
  H-La, Hf-Rn : A. Hellweg, C. Hattig, S. Hofener and W. Klopper, Theor. Chem. Acc. 117, 587 (2007).
        Ce-Lu : J. Chmela and M. E. Harding, Mol. Phys. (2018).

================================================================================
                                        WARNINGS
                       Please study these warnings very carefully!
================================================================================


WARNING: your system is open-shell and RHF/RKS was chosen
  ===> : WILL SWITCH to UHF/UKS


WARNING: No MP2 level density has been requested!
         To caclulate MP2 level properties use
         %mp2 Density relaxed end
         or
         %mp2 Density unrelaxed end
         Otherwise for double-hybrid DFT only the energy is correct!

WARNING: The frozen-core approximation is turned on by default for 
         the MP2 part of double-hybrid DFT.

INFO   : the flag for use of the SHARK integral package has been found!



***************************************
The coordinates will be read from file: pbe.xyz
***************************************


================================================================================

cite the ECPs for Au [Def2-ECP] as follows:
Ce-Yb(ecp-28): M. Dolg, H. Stoll, H.Preuss, J. Chem. Phys., 1989, 90, 1730-1734.
Y-Cd(ecp-28), Hf-Hg(ecp-46): D. Andrae,U. Haeussermann, M. Dolg, H. Stoll, H. Preuss, Theor. Chim. Acta, 1990, 77, 123-141.
In-Sb(ecp-28), Tl-Bi(ecp-46): B. Metz, H. Stoll, M. Dolg, J. Chem. Phys., 2000, 113, 2563-2569.
Te-Xe(ecp-28), Po-Rn(ecp-46): K. A. Peterson, D. Figgen, E. Goll, H. Stoll, M. Dolg, J. Chem. Phys., 2003, 119, 11113-11123.
Rb(ecp-28), Cs(ecp-46): T. Leininger, A. Nicklass, W. Kuechle, H. Stoll, M. Dolg, A. Bergner, Chem. Phys. Lett., 1996, 255, 274-280.
Sr(ecp-28), Ba(ecp-46): M. Kaupp, P. V. Schleyer, H. Stoll and H. Preuss, J. Chem. Phys., 1991, 94, 1360-1366.
La(ecp-46): M. Dolg, H. Stoll, A. Savin, H. Preuss, Theor. Chim. Acta, 1989, 75, 173-194.
Lu(ecp-28): X. Cao, M. Dolg, J. Chem. Phys., 2001, 115, 7348-7355.

ECP parameters for Au [Def2-ECP] have been obtained from:
TURBOMOLE (7.0.2)

----- Orbital basis set information -----
Your calculation utilizes the basis: def2-TZVP
   F. Weigend and R. Ahlrichs, Phys. Chem. Chem. Phys. 7, 3297 (2005).

----- AuxJ basis set information -----
Your calculation utilizes the auxiliary basis: def2/J
   F. Weigend, Phys. Chem. Chem. Phys. 8, 1057 (2006).

----- AuxC basis set information -----
Your calculation utilizes the auxiliary basis: def2-TZVP/C
  H-La, Hf-Rn : A. Hellweg, C. Hattig, S. Hofener and W. Klopper, Theor. Chem. Acc. 117, 587 (2007).
        Ce-Lu : J. Chmela and M. E. Harding, Mol. Phys. (2018).

================================================================================
                                        WARNINGS
                       Please study these warnings very carefully!
================================================================================


WARNING: No MP2 level density has been requested!
         To caclulate MP2 level properties use
         %mp2 Density relaxed end
         or
         %mp2 Density unrelaxed end
         Otherwise for double-hybrid DFT only the energy is correct!

WARNING: The frozen-core approximation is turned on by default for 
         the MP2 part of double-hybrid DFT.

INFO   : the flag for use of the SHARK integral package has been found!

================================================================================
                                       INPUT FILE
================================================================================
NAME = b2plyp.inp
|  1> !RI-B2PLYP def2-TZVP def2-TZVP/C
|  2> !RIJCOSX VERYSLOWCONV
|  3> 
|  4> %scf
|  5>   AutoTRAHIter 200
|  6>   maxiter 400
|  7> end
|  8> 
|  9> 
| 10> %pal nprocs 6 end 
| 11> 
| 12> *xyzfile 0 5 pbe.xyz
| 13> 
| 14> $new_job
| 15> 
| 16> !RI-B2PLYP def2-TZVP def2-TZVP/C
| 17> !RIJCOSX VERYSLOWCONV
| 18> 
| 19> %scf
| 20>   AutoTRAHIter 200
| 21>   maxiter 400
| 22> end
| 23> 
| 24> 
| 25> %pal nprocs 6 end 
| 26> 
| 27> *xyzfile 0 3 pbe.xyz
| 28> 
| 29> 
| 30> 
| 31> 
| 32> 
| 33>                          ****END OF INPUT****
================================================================================


                 $$$$$$$$$$$$$$$$$$$$$$$$$$$$$$$$$$$$$$$$$$$$$$ 
                 $ THERE ARE  2 JOBS TO BE PROCESSED THIS RUN $
                 $$$$$$$$$$$$$$$$$$$$$$$$$$$$$$$$$$$$$$$$$$$$$$ 




                 $$$$$$$$$$$$$$$$  JOB NUMBER  1 $$$$$$$$$$$$$$


                       ****************************
                       * Single Point Calculation *
                       ****************************

---------------------------------
CARTESIAN COORDINATES (ANGSTROEM)
---------------------------------
  Au     6.545212   11.201705    9.597091
  Au     8.993307   11.031737    8.268771
  Au     4.728818    9.086939    9.220240
  Au     8.366220    9.168812   10.281829
  Au     6.505251    7.070260   10.056782
  Au     5.162676    6.811188    7.624285
  Au     5.202944   10.945233    7.163893
  Au     8.952058    6.900899    8.724475
  Au     7.650663   10.777636    5.834486
  Au     7.609091    6.639250    6.291634
  Au     9.422903    8.758966    6.667244
  Au     5.793057    8.674927    5.612529
  Cr     7.077067    8.923292    7.947992

----------------------------
CARTESIAN COORDINATES (A.U.)
----------------------------
  NO LB      ZA    FRAG     MASS         X           Y           Z
   0 Au   19.0000*   0   196.966   12.368658   21.168154   18.135873
   1 Au   19.0000*   0   196.966   16.994888   20.846962   15.625713
   2 Au   19.0000*   0   196.966    8.936172   17.171827   17.423729
   3 Au   19.0000*   0   196.966   15.809865   17.326543   19.429842
   4 Au   19.0000*   0   196.966   12.293143   13.360856   19.004564
   5 Au   19.0000*   0   196.966    9.756044   12.871280   14.407811
   6 Au   19.0000*   0   196.966    9.832139   20.683493   13.537796
   7 Au   19.0000*   0   196.966   16.916938   13.040809   16.486868
   8 Au   19.0000*   0   196.966   14.457658   20.366780   11.025582
   9 Au   19.0000*   0   196.966   14.379099   12.546364   11.889465
  10 Au   19.0000*   0   196.966   17.806706   16.552047   12.599265
  11 Au   19.0000*   0   196.966   10.947291   16.393237   10.606142
  12 Cr   24.0000    0    52.000   13.373719   16.862578   15.019528
* core charge reduced due to ECP

--------------------------------
INTERNAL COORDINATES (ANGSTROEM)
--------------------------------
 Au     0   0   0     0.000000000000     0.00000000     0.00000000
 Au     1   0   0     2.790428793573     0.00000000     0.00000000
 Au     1   2   0     2.813100503577   117.18833674     0.00000000
 Au     2   1   3     2.813562547180    60.27774485   294.41339476
 Au     4   2   1     2.813853457381   125.73149483    72.90873066
 Au     5   4   2     2.790459590822   117.20399025     0.00000000
 Au     1   2   3     2.790683571519    90.07610865   303.87906824
 Au     5   4   2     2.791162957081    60.24209458    72.92895548
 Au     7   1   2     2.790473392786    89.94258179   359.94925591
 Au     6   5   4     2.791141423886    90.01264564    56.13104592
 Au     8   5   4     2.811815664348   117.12477923   294.36551472
 Au    10   6   5     2.811253851487    60.29910900   238.46839573
 Cr     3   1   2     2.675755800531    62.80712917     0.04289290

---------------------------
INTERNAL COORDINATES (A.U.)
---------------------------
 Au     0   0   0     0.000000000000     0.00000000     0.00000000
 Au     1   0   0     5.273146216062     0.00000000     0.00000000
 Au     1   2   0     5.315989538956   117.18833674     0.00000000
 Au     2   1   3     5.316862674828    60.27774485   294.41339476
 Au     4   2   1     5.317412415437   125.73149483    72.90873066
 Au     5   4   2     5.273204414427   117.20399025     0.00000000
 Au     1   2   3     5.273627676604    90.07610865   303.87906824
 Au     5   4   2     5.274533584028    60.24209458    72.92895548
 Au     7   1   2     5.273230496359    89.94258179   359.94925591
 Au     6   5   4     5.274492892187    90.01264564    56.13104592
 Au     8   5   4     5.313561544688   117.12477923   294.36551472
 Au    10   6   5     5.312499872242    60.29910900   238.46839573
 Cr     3   1   2     5.056445664255    62.80712917     0.04289290

---------------------
BASIS SET INFORMATION
---------------------
There are 2 groups of distinct atoms

 Group   1 Type Au  : 8s7p6d1f contracted to 6s4p3d1f pattern {311111/4111/411/1}
 Group   2 Type Cr  : 17s11p7d1f contracted to 6s4p4d1f pattern {842111/6311/4111/1}

Atom   0Au   basis set group =>   1
Atom   1Au   basis set group =>   1
Atom   2Au   basis set group =>   1
Atom   3Au   basis set group =>   1
Atom   4Au   basis set group =>   1
Atom   5Au   basis set group =>   1
Atom   6Au   basis set group =>   1
Atom   7Au   basis set group =>   1
Atom   8Au   basis set group =>   1
Atom   9Au   basis set group =>   1
Atom  10Au   basis set group =>   1
Atom  11Au   basis set group =>   1
Atom  12Cr   basis set group =>   2
---------------------------------
AUXILIARY/J BASIS SET INFORMATION
---------------------------------
There are 2 groups of distinct atoms

 Group   1 Type Au  : 11s5p5d3f3g contracted to 8s5p5d2f3g pattern {41111111/11111/11111/21/111}
 Group   2 Type Cr  : 19s5p5d3f3g contracted to 8s5p5d2f3g pattern {121111111/11111/11111/21/111}

Atom   0Au   basis set group =>   1
Atom   1Au   basis set group =>   1
Atom   2Au   basis set group =>   1
Atom   3Au   basis set group =>   1
Atom   4Au   basis set group =>   1
Atom   5Au   basis set group =>   1
Atom   6Au   basis set group =>   1
Atom   7Au   basis set group =>   1
Atom   8Au   basis set group =>   1
Atom   9Au   basis set group =>   1
Atom  10Au   basis set group =>   1
Atom  11Au   basis set group =>   1
Atom  12Cr   basis set group =>   2
---------------------------------
AUXILIARY/C BASIS SET INFORMATION
---------------------------------
There are 2 groups of distinct atoms

 Group   1 Type Au  : 8s8p7d5f3g2h contracted to 8s8p7d5f3g2h pattern {11111111/11111111/1111111/11111/111/11}
 Group   2 Type Cr  : 11s9p8d6f5g2h contracted to 9s8p8d6f5g2h pattern {311111111/21111111/11111111/111111/11111/11}

Atom   0Au   basis set group =>   1
Atom   1Au   basis set group =>   1
Atom   2Au   basis set group =>   1
Atom   3Au   basis set group =>   1
Atom   4Au   basis set group =>   1
Atom   5Au   basis set group =>   1
Atom   6Au   basis set group =>   1
Atom   7Au   basis set group =>   1
Atom   8Au   basis set group =>   1
Atom   9Au   basis set group =>   1
Atom  10Au   basis set group =>   1
Atom  11Au   basis set group =>   1
Atom  12Cr   basis set group =>   2
-------------------------
ECP PARAMETER INFORMATION
-------------------------

 Group 1, Type Au ECP Def2-ECP (replacing 60 core electrons, lmax=3)

Atom   0Au   ECP group =>   1
Atom   1Au   ECP group =>   1
Atom   2Au   ECP group =>   1
Atom   3Au   ECP group =>   1
Atom   4Au   ECP group =>   1
Atom   5Au   ECP group =>   1
Atom   6Au   ECP group =>   1
Atom   7Au   ECP group =>   1
Atom   8Au   ECP group =>   1
Atom   9Au   ECP group =>   1
Atom  10Au   ECP group =>   1
Atom  11Au   ECP group =>   1



           ************************************************************
           *        Program running with 6 parallel MPI-processes     *
           *              working on a common directory               *
           ************************************************************
------------------------------------------------------------------------------
                           ORCA GTO INTEGRAL CALCULATION
                           -- RI-GTO INTEGRALS CHOSEN --
------------------------------------------------------------------------------
------------------------------------------------------------------------------
                   ___                                                        
                  /   \      - P O W E R E D   B Y -                         
                 /     \                                                     
                 |  |  |   _    _      __       _____    __    __             
                 |  |  |  | |  | |    /  \     |  _  \  |  |  /  |          
                  \  \/   | |  | |   /    \    | | | |  |  | /  /          
                 / \  \   | |__| |  /  /\  \   | |_| |  |  |/  /          
                |  |  |   |  __  | /  /__\  \  |    /   |      \           
                |  |  |   | |  | | |   __   |  |    \   |  |\   \          
                \     /   | |  | | |  |  |  |  | |\  \  |  | \   \       
                 \___/    |_|  |_| |__|  |__|  |_| \__\ |__|  \__/        
                                                                              
                      - O R C A' S   B I G   F R I E N D -                    
                                      &                                       
                       - I N T E G R A L  F E E D E R -                       
                                                                              
 v1 FN, 2020, v2 2021                                                         
------------------------------------------------------------------------------


Reading SHARK input file b2plyp.SHARKINP.tmp ... ok
----------------------
SHARK INTEGRAL PACKAGE
----------------------

Number of atoms                             ...     13
Number of basis functions                   ...    525
Number of shells                            ...    183
Maximum angular momentum                    ...      3
Integral batch strategy                     ... SHARK/LIBINT Hybrid
RI-J (if used) integral strategy            ... SPLIT-RIJ (Revised 2003 algorithm where possible)
Printlevel                                  ...      1
Contraction scheme used                     ... SEGMENTED contraction
Coulomb Range Separation                    ... NOT USED
Exchange Range Separation                   ... NOT USED
Finite Nucleus Model                        ... NOT USED
Auxiliary Coulomb fitting basis             ... AVAILABLE
   # of basis functions in Aux-J            ...   1157
   # of shells in Aux-J                     ...    299
   Maximum angular momentum in Aux-J        ...      4
Auxiliary J/K fitting basis                 ... NOT available
Auxiliary Correlation fitting basis         ... AVAILABLE
   # of basis functions in Aux-C            ...   1994
   # of shells in Aux-C                     ...    434
   Maximum angular momentum in Aux-C        ...      5
Auxiliary 'external' fitting basis          ... NOT available
Integral threshold                          ...     1.000000e-10
Primitive cut-off                           ...     1.000000e-11
Primitive pair pre-selection threshold      ...     1.000000e-11

Calculating pre-screening integrals         ... done (  0.2 sec) Dimension = 183
Organizing shell pair data                  ... done (  0.5 sec)
Shell pair information
Total number of shell pairs                 ...     16836
Shell pairs after pre-screening             ...     13870
Total number of primitive shell pairs       ...     45389
Primitive shell pairs kept                  ...     27394
          la=0 lb=0:   2149 shell pairs
          la=1 lb=0:   3124 shell pairs
          la=1 lb=1:   1200 shell pairs
          la=2 lb=0:   2748 shell pairs
          la=2 lb=1:   1944 shell pairs
          la=2 lb=2:    790 shell pairs
          la=3 lb=0:    750 shell pairs
          la=3 lb=1:    588 shell pairs
          la=3 lb=2:    492 shell pairs
          la=3 lb=3:     85 shell pairs

Calculating one electron integrals          ... done (  0.2 sec)
Calculating ECP integrals                   ... done ( 16.1 sec)
Calculating RI/J V-Matrix + Cholesky decomp.... done (  3.0 sec)
Calculating RI/C V-Matrix + Cholesky decomp.... done (  3.3 sec)
Calculating Nuclear repulsion               ... done (  0.0 sec) ENN=   4396.243161300466 Eh

SHARK setup successfully completed in  24.7 seconds

Maximum memory used throughout the entire GTOINT-calculation: 39.3 MB


           ************************************************************
           *        Program running with 6 parallel MPI-processes     *
           *              working on a common directory               *
           ************************************************************
-------------------------------------------------------------------------------
                                 ORCA SCF
-------------------------------------------------------------------------------

------------
SCF SETTINGS
------------
Hamiltonian:
 Density Functional     Method          .... DFT(GTOs)
 Exchange Functional    Exchange        .... B88
   X-Alpha parameter    XAlpha          ....  0.666667
   Becke's b parameter  XBeta           ....  0.004200
 Correlation Functional Correlation     .... LYP
 LDA part of GGA corr.  LDAOpt          .... VWN-3
 Gradients option       PostSCFGGA      .... off
 Hybrid DFT is turned on
   Fraction HF Exchange ScalHFX         ....  0.530000
   Scaling of DF-GGA-X  ScalDFX         ....  0.470000
   Scaling of DF-GGA-C  ScalDFC         ....  0.730000
   Scaling of DF-LDA-C  ScalLDAC        ....  0.730000
   Perturbative correction              ....  0.270000
   Density functional embedding theory  .... OFF
   NL short-range parameter             ....  7.800000
 RI-approximation to the Coulomb term is turned on
   Number of AuxJ basis functions       .... 1157
   RIJ-COSX (HFX calculated with COS-X)).... on


General Settings:
 Integral files         IntName         .... b2plyp
 Hartree-Fock type      HFTyp           .... UHF
 Total Charge           Charge          ....    0
 Multiplicity           Mult            ....    5
 Number of Electrons    NEL             ....  252
 Basis Dimension        Dim             ....  525
 Nuclear Repulsion      ENuc            ....   4396.2431613005 Eh

Convergence Acceleration:
 DIIS                   CNVDIIS         .... on
   Start iteration      DIISMaxIt       ....     0
   Startup error        DIISStart       ....  0.200000
   # of expansion vecs  DIISMaxEq       ....     5
   Bias factor          DIISBfac        ....   1.050
   Max. coefficient     DIISMaxC        ....  10.000
 Trust-Rad. Augm. Hess. CNVTRAH         .... auto
   Auto Start mean grad. ratio tolernc. ....  1.125000
   Auto Start start iteration           ....   200
   Auto Start num. interpolation iter.  ....    10
   Max. Number of Micro iterations      ....    16
   Max. Number of Macro iterations      .... Maxiter - #DIIS iter
   Number of Davidson start vectors     ....     2
   Converg. threshold I  (grad. norm)   ....   5.000e-05
   Converg. threshold II (energy diff.) ....   1.000e-06
   Grad. Scal. Fac. for Micro threshold ....   0.100
   Minimum threshold for Micro iter.    ....   0.010
   NR start threshold (gradient norm)   ....   0.001
   Initial trust radius                 ....   0.400
   Minimum AH scaling param. (alpha)    ....   1.000
   Maximum AH scaling param. (alpha)    .... 1000.000
   Orbital update algorithm             .... Taylor
   White noise on init. David. guess    .... on
   Maximum white noise                  ....   0.010
   Quad. conv. algorithm                .... NR
 SOSCF                  CNVSOSCF        .... off
 Level Shifting         CNVShift        .... on
   Level shift para.    LevelShift      ....    0.2500
   Turn off err/grad.   ShiftErr        ....    0.0000
 Zerner damping         CNVZerner       .... off
 Static damping         CNVDamp         .... on
   Fraction old density DampFac         ....    0.9200
   Max. Damping (<1)    DampMax         ....    0.9800
   Min. Damping (>=0)   DampMin         ....    0.0000
   Turn off err/grad.   DampErr         ....    0.0030
 Fernandez-Rico         CNVRico         .... off

SCF Procedure:
 Maximum # iterations   MaxIter         ....   400
 SCF integral mode      SCFMode         .... Direct
   Integral package                     .... SHARK and LIBINT hybrid scheme
 Reset frequency        DirectResetFreq ....    20
 Integral Threshold     Thresh          ....  1.000e-10 Eh
 Primitive CutOff       TCut            ....  1.000e-11 Eh

Convergence Tolerance:
 Convergence Check Mode ConvCheckMode   .... Total+1el-Energy
 Convergence forced     ConvForced      .... 0
 Energy Change          TolE            ....  1.000e-06 Eh
 1-El. energy change                    ....  1.000e-03 Eh
 DIIS Error             TolErr          ....  1.000e-06


Diagonalization of the overlap matrix:
Smallest eigenvalue                        ... 1.381e-04
Time for diagonalization                   ...    0.092 sec
Threshold for overlap eigenvalues          ... 1.000e-08
Number of eigenvalues below threshold      ... 0
Time for construction of square roots      ...    0.229 sec
Total time needed                          ...    0.521 sec

Time for model grid setup =    2.620 sec

------------------------------
INITIAL GUESS: MODEL POTENTIAL
------------------------------
Loading Hartree-Fock densities                     ... done
  calling /media/Programs/ORCA501/orca b2plyp_atom79.inp > b2plyp_atom79.out in order to generate an atomic fitting density for atom 0 (Au with ECP) on-the-fly... 
    atom 0 (Au), assumed electronic state with S=2: 1s2 2s2 2p6 3s2 3p6 4s2 3d10 4p6 5s2 4d10 5p6 6s1 4f14 5d10           ... done
Calculating cut-offs                               ... done
Initializing the effective Hamiltonian             ... done
Setting up the integral package (SHARK)            ... done
Starting the Coulomb interaction                   ... done (   1.3 sec)
Reading the grid                                   ... done
Mapping shells                                     ... done
Starting the XC term evaluation                    ... done (   0.9 sec)
  promolecular density results
     # of electrons  =    972.012889960
     EX              =  -4455.985728974
     EC              =    -19.735096613
     EX+EC           =  -4475.720825587
Transforming the Hamiltonian                       ... done (   1.0 sec)
Diagonalizing the Hamiltonian                      ... done (   0.4 sec)
Back transforming the eigenvectors                 ... done (   0.1 sec)
Now organizing SCF variables                       ... done
                      ------------------
                      INITIAL GUESS DONE (   8.2 sec)
                      ------------------
-------------------
DFT GRID GENERATION
-------------------

General Integration Accuracy     IntAcc      ... 4.388
Radial Grid Type                 RadialGrid  ... OptM3 with GC (2021)
Angular Grid (max. ang.)         AngularGrid ... 4 (Lebedev-302)
Angular grid pruning method      GridPruning ... 4 (adaptive)
Weight generation scheme         WeightScheme... Becke
Basis function cutoff            BFCut       ... 1.0000e-10
Integration weight cutoff        WCut        ... 1.0000e-14
Angular grids for H and He will be reduced by one unit
Partially contracted basis set               ... off
Rotationally invariant grid construction     ... off

Total number of grid points                  ...   144458
Total number of batches                      ...     2264
Average number of points per batch           ...       63
Average number of grid points per atom       ...    11112
Time for grid setup =    5.924 sec

--------------------
COSX GRID GENERATION
--------------------

GRIDX 1
-------
General Integration Accuracy     IntAcc      ... 3.816
Radial Grid Type                 RadialGrid  ... OptM3 with GC (2021)
Angular Grid (max. ang.)         AngularGrid ... 1 (Lebedev-50)
Angular grid pruning method      GridPruning ... 4 (adaptive)
Weight generation scheme         WeightScheme... Becke
Basis function cutoff            BFCut       ... 1.0000e-10
Integration weight cutoff        WCut        ... 1.0000e-14
Angular grids for H and He will be reduced by one unit
Partially contracted basis set               ... on
Rotationally invariant grid construction     ... off

Total number of grid points                  ...    15184
Total number of batches                      ...      245
Average number of points per batch           ...       61
Average number of grid points per atom       ...     1168
UseSFitting                                  ... on

GRIDX 2
-------
General Integration Accuracy     IntAcc      ... 4.020
Radial Grid Type                 RadialGrid  ... OptM3 with GC (2021)
Angular Grid (max. ang.)         AngularGrid ... 2 (Lebedev-110)
Angular grid pruning method      GridPruning ... 4 (adaptive)
Weight generation scheme         WeightScheme... Becke
Basis function cutoff            BFCut       ... 1.0000e-10
Integration weight cutoff        WCut        ... 1.0000e-14
Angular grids for H and He will be reduced by one unit
Partially contracted basis set               ... on
Rotationally invariant grid construction     ... off

Total number of grid points                  ...    45922
Total number of batches                      ...      723
Average number of points per batch           ...       63
Average number of grid points per atom       ...     3532
UseSFitting                                  ... on

GRIDX 3
-------
General Integration Accuracy     IntAcc      ... 4.338
Radial Grid Type                 RadialGrid  ... OptM3 with GC (2021)
Angular Grid (max. ang.)         AngularGrid ... 3 (Lebedev-194)
Angular grid pruning method      GridPruning ... 4 (adaptive)
Weight generation scheme         WeightScheme... Becke
Basis function cutoff            BFCut       ... 1.0000e-10
Integration weight cutoff        WCut        ... 1.0000e-14
Angular grids for H and He will be reduced by one unit
Partially contracted basis set               ... on
Rotationally invariant grid construction     ... off

Total number of grid points                  ...    84143
Total number of batches                      ...     1321
Average number of points per batch           ...       63
Average number of grid points per atom       ...     6473
UseSFitting                                  ... on

Time for X-Grid setup             =    6.193 sec

--------------
SCF ITERATIONS
--------------
ITER       Energy         Delta-E        Max-DP      RMS-DP      [F,P]     Damp
               ***  Starting incremental Fock matrix formation  ***
  0  -2667.6964230401   0.000000000000 0.37922285  0.00076939  0.3224069 0.9200
  1  -2668.0227317014  -0.326308661370 0.17801980  0.00055231  0.2518674 0.9200
                               ***Turning on DIIS***
  2  -2668.2062195082  -0.183487806793 0.05049234  0.00039976  0.2315565 0.9200
  3  -2668.2868912737  -0.080671765497 0.11386173  0.00032971  0.2129165 0.9200
  4  -2668.3589082982  -0.072017024505 0.08386772  0.00028204  0.1957923 0.9200
  5  -2668.4220398499  -0.063131551709 0.07668168  0.00026133  0.1800858 0.9200
  6  -2668.4775523610  -0.055512511087 0.07881529  0.00024863  0.1657233 0.9200
  7  -2668.5334625071  -0.055910146131 0.07833301  0.00025097  0.1525523 0.9200
  8  -2668.5928563829  -0.059393875784 0.07485892  0.00023025  0.1403989 0.9200
  9  -2668.6465003565  -0.053643973581 0.06429338  0.00020309  0.1291663 0.9200
 10  -2668.6954207144  -0.048920357841 0.05547240  0.00018595  0.1188115 0.9200
 11  -2668.7397364256  -0.044315711235 0.05498298  0.00017562  0.1092892 0.9200
 12  -2668.7821012825  -0.042364856891 0.05408771  0.00016822  0.1005496 0.9200
 13  -2668.8228427807  -0.040741498226 0.04877418  0.00015548  0.0925192 0.9200
 14  -2668.8607733767  -0.037930596018 0.04141621  0.00013995  0.0851277 0.9200
 15  -2668.8959726044  -0.035199227661 0.03586928  0.00012839  0.0783188 0.9200
 16  -2668.9286518067  -0.032679202329 0.03388003  0.00011991  0.0720505 0.9200
 17  -2668.9592923002  -0.030640493440 0.03263950  0.00011266  0.0662865 0.9200
 18  -2668.9881007502  -0.028808450095 0.02977297  0.00010453  0.0609872 0.9200
 19  -2669.0150307889  -0.026930038695 0.02557886  0.00009543  0.0561128 0.9200
               *** Restarting incremental Fock matrix formation ***
                                   *** Resetting DIIS ***
 20  -2669.0389079780  -0.023877189060 0.02379825  0.00008482  0.0516255 0.9200
 21  -2669.0627101178  -0.023802139770 0.02162641  0.00007707  0.0474930 0.9200
 22  -2669.0848650431  -0.022154925356 0.01884510  0.00007099  0.0436946 0.9200
 23  -2669.1054191952  -0.020554152089 0.01684018  0.00006694  0.0402084 0.9200
 24  -2669.1244739984  -0.019054803152 0.01551948  0.00006360  0.0370043 0.9200
 25  -2669.1421501485  -0.017676150085 0.01458433  0.00006011  0.0340547 0.9200
 26  -2669.1585779732  -0.016427824712 0.01301600  0.00005628  0.0313349 0.9200
 27  -2669.1738392354  -0.015261262188 0.01114191  0.00005243  0.0288291 0.9200
 28  -2669.1880164584  -0.014177223032 0.00963369  0.00004891  0.0265235 0.9200
 29  -2669.2011892405  -0.013172782092 0.00862519  0.00004566  0.0244033 0.9200
 30  -2669.2134311721  -0.012241931596 0.00786020  0.00004260  0.0224533 0.9200
 31  -2669.2248071970  -0.011376024965 0.00703474  0.00003971  0.0206591 0.9200
 32  -2669.2353752434  -0.010568046390 0.00613739  0.00003699  0.0190080 0.9200
 33  -2669.2451896408  -0.009814397363 0.00533921  0.00003448  0.0174888 0.9200
 34  -2669.2543014824  -0.009111841633 0.00471998  0.00003213  0.0160910 0.9200
 35  -2669.2627584619  -0.008456979471 0.00422517  0.00002994  0.0148050 0.9200
 36  -2669.2706049217  -0.007846459796 0.00376897  0.00002790  0.0136219 0.9200
 37  -2669.2778821629  -0.007277241207 0.00331762  0.00002600  0.0125333 0.9200
 38  -2669.2846289509  -0.006746787973 0.00290579  0.00002425  0.0115316 0.9200
 39  -2669.2908816264  -0.006252675554 0.00289470  0.00002220  0.0106101 0.9200
               *** Restarting incremental Fock matrix formation ***
                                   *** Resetting DIIS ***
 40  -2669.2966790731  -0.005797446659 0.00334646  0.00001849  0.0097622 0.9200
 41  -2669.3020823615  -0.005403288459 0.00311944  0.00001654  0.0089829 0.9200
 42  -2669.3070804812  -0.004998119696 0.00252645  0.00001554  0.0082661 0.9200
 43  -2669.3116962898  -0.004615808586 0.00199834  0.00001511  0.0076073 0.9200
 44  -2669.3159561730  -0.004259883127 0.00163319  0.00001477  0.0070013 0.9200
 45  -2669.3198864573  -0.003930284356 0.00146770  0.00001413  0.0064431 0.9200
 46  -2669.3235151911  -0.003628733828 0.00136059  0.00001344  0.0059285 0.9200
 47  -2669.3268661495  -0.003350958385 0.00135619  0.00001275  0.0054546 0.9200
 48  -2669.3299609155  -0.003094766005 0.00133622  0.00001207  0.0050185 0.9200
 49  -2669.3328193656  -0.002858450119 0.00130293  0.00001139  0.0046175 0.9200
 50  -2669.3354596620  -0.002640296399 0.00126094  0.00001072  0.0043226 0.9200
 51  -2669.3378984156  -0.002438753550 0.00121465  0.00001008  0.0041054 0.9200
 52  -2669.3401508448  -0.002252429218 0.00116635  0.00000947  0.0038957 0.9200
 53  -2669.3422310065  -0.002080161688 0.00111668  0.00000890  0.0036918 0.9200
 54  -2669.3441518528  -0.001920846280 0.00106608  0.00000835  0.0034942 0.9200
 55  -2669.3459254065  -0.001773553716 0.00101545  0.00000783  0.0033046 0.9200
 56  -2669.3475627784  -0.001637371892 0.00096585  0.00000735  0.0031239 0.9200
 57  -2669.3490741897  -0.001511411273 0.01147198  0.00008629  0.0029517 0.0000
 58  -2669.3668828384  -0.017808648712 0.00168279  0.00001041  0.0007957 0.0000
               *** Restarting incremental Fock matrix formation ***
                                   *** Resetting DIIS ***
 59  -2669.3678551689  -0.000972330559 0.01135933  0.00011112  0.0006292 0.0000
 60  -2669.3679860539  -0.000130884988 0.00187035  0.00003509  0.0004017 0.0000
 61  -2669.3680063469  -0.000020292957 0.00219982  0.00001279  0.0003520 0.0000
 62  -2669.3680129940  -0.000006647142 0.00129882  0.00000652  0.0002742 0.0000
 63  -2669.3680165076  -0.000003513609 0.00064320  0.00000392  0.0002446 0.0000
 64  -2669.3680189139  -0.000002406254 0.00054207  0.00000326  0.0001570 0.0000
 65  -2669.3680208955  -0.000001981626 0.00045885  0.00000240  0.0001747 0.0000
 66  -2669.3680220297  -0.000001134182 0.00065840  0.00000264  0.0001231 0.0000
 67  -2669.3680229130  -0.000000883337 0.00070493  0.00000226  0.0001114 0.0000
 68  -2669.3680235041  -0.000000591106 0.00062155  0.00000194  0.0000767 0.0000
 69  -2669.3680237946  -0.000000290442 0.00072839  0.00000188  0.0000697 0.0000
 70  -2669.3680240402  -0.000000245642 0.00044153  0.00000147  0.0000474 0.0000
 71  -2669.3680241333  -0.000000093035 0.00026736  0.00000096  0.0000363 0.0000
                 **** Energy Check signals convergence ****

               *****************************************************
               *                     SUCCESS                       *
               *           SCF CONVERGED AFTER  72 CYCLES          *
               *****************************************************

Old exchange energy                            =   -101.094223422 Eh
New exchange energy                            =   -101.094002111 Eh
Exchange energy change after final integration =      0.000221310 Eh
Total energy after final integration           =  -2669.367803014 Eh
Final COS-X integration done in                =    37.297 sec

----------------
TOTAL SCF ENERGY
----------------

Total Energy       :        -2669.36780301 Eh          -72637.19072 eV

Components:
Nuclear Repulsion  :         4396.24316130 Eh          119627.85818 eV
Electronic Energy  :        -7065.61096431 Eh         -192265.04891 eV
One Electron Energy:       -13089.28781591 Eh         -356177.62919 eV
Two Electron Energy:         6023.67685160 Eh          163912.58029 eV
Max COSX asymmetry :            0.00001141 Eh               0.00031 eV

Virial components:
Potential Energy   :        -4264.07337701 Eh         -116031.33551 eV
Kinetic Energy     :         1594.70557400 Eh           43394.14478 eV
Virial Ratio       :            2.67389382


DFT components:
N(Alpha)           :      128.000015503238 electrons
N(Beta)            :      124.000013265486 electrons
N(Total)           :      252.000028768723 electrons
E(X)               :      -91.058446453695 Eh       
E(C)               :       -6.937588751780 Eh       
E(XC)              :      -97.996035205475 Eh       
DFET-embed. en.    :        0.000000000000 Eh       

---------------
SCF CONVERGENCE
---------------

  Last Energy change         ...   -1.9083e-07  Tolerance :   1.0000e-06
  Last MAX-Density change    ...    0.0000e+00  Tolerance :   1.0000e-05
  Last RMS-Density change    ...    0.0000e+00  Tolerance :   1.0000e-06
  Last DIIS Error            ...    1.8382e-05  Tolerance :   1.0000e-06

             **** THE GBW FILE WAS UPDATED (b2plyp.gbw) ****
             **** DENSITY b2plyp.scfp WAS UPDATED ****
             **** ENERGY FILE WAS UPDATED (b2plyp.en.tmp) ****
----------------------
UHF SPIN CONTAMINATION
----------------------

Warning: in a DFT calculation there is little theoretical justification to 
         calculate <S**2> as in Hartree-Fock theory. We will do it anyways
         but you should keep in mind that the values have only limited relevance

Expectation value of <S**2>     :     6.091700
Ideal value S*(S+1) for S=2.0   :     6.000000
Deviation                       :     0.091700

             **** THE GBW FILE WAS UPDATED (b2plyp.gbw) ****
             **** DENSITY b2plyp.scfp WAS UPDATED ****
----------------
ORBITAL ENERGIES
----------------
                 SPIN UP ORBITALS
  NO   OCC          E(Eh)            E(eV) 
   0   1.0000    -217.750158     -5925.2830 
   1   1.0000     -25.435363      -692.1314 
   2   1.0000     -21.574912      -587.0832 
   3   1.0000     -21.574907      -587.0831 
   4   1.0000     -21.568770      -586.9161 
   5   1.0000      -4.399331      -119.7119 
   6   1.0000      -4.399310      -119.7113 
   7   1.0000      -4.399260      -119.7099 
   8   1.0000      -4.399256      -119.7098 
   9   1.0000      -4.391094      -119.4877 
  10   1.0000      -4.391047      -119.4865 
  11   1.0000      -4.390938      -119.4835 
  12   1.0000      -4.390892      -119.4823 
  13   1.0000      -4.390890      -119.4822 
  14   1.0000      -4.390863      -119.4814 
  15   1.0000      -4.390733      -119.4779 
  16   1.0000      -4.390707      -119.4772 
  17   1.0000      -3.227002       -87.8112 
  18   1.0000      -2.519642       -68.5629 
  19   1.0000      -2.519576       -68.5612 
  20   1.0000      -2.519556       -68.5606 
  21   1.0000      -2.519415       -68.5568 
  22   1.0000      -2.517324       -68.4999 
  23   1.0000      -2.517053       -68.4925 
  24   1.0000      -2.517032       -68.4919 
  25   1.0000      -2.516980       -68.4905 
  26   1.0000      -2.514503       -68.4231 
  27   1.0000      -2.514378       -68.4197 
  28   1.0000      -2.514369       -68.4195 
  29   1.0000      -2.514056       -68.4109 
  30   1.0000      -2.510857       -68.3239 
  31   1.0000      -2.510742       -68.3208 
  32   1.0000      -2.510280       -68.3082 
  33   1.0000      -2.510267       -68.3078 
  34   1.0000      -2.510179       -68.3054 
  35   1.0000      -2.509838       -68.2962 
  36   1.0000      -2.509826       -68.2958 
  37   1.0000      -2.509073       -68.2753 
  38   1.0000      -2.508825       -68.2686 
  39   1.0000      -2.508382       -68.2565 
  40   1.0000      -2.508367       -68.2561 
  41   1.0000      -2.508147       -68.2502 
  42   1.0000      -2.507683       -68.2375 
  43   1.0000      -2.507674       -68.2373 
  44   1.0000      -2.507638       -68.2363 
  45   1.0000      -2.507150       -68.2230 
  46   1.0000      -2.505671       -68.1828 
  47   1.0000      -2.505435       -68.1763 
  48   1.0000      -2.505423       -68.1760 
  49   1.0000      -2.505270       -68.1719 
  50   1.0000      -2.505115       -68.1676 
  51   1.0000      -2.505106       -68.1674 
  52   1.0000      -2.504927       -68.1625 
  53   1.0000      -2.504764       -68.1581 
  54   1.0000      -2.119585       -57.6768 
  55   1.0000      -2.109318       -57.3975 
  56   1.0000      -2.109308       -57.3972 
  57   1.0000      -0.496622       -13.5138 
  58   1.0000      -0.475170       -12.9300 
  59   1.0000      -0.475157       -12.9297 
  60   1.0000      -0.474381       -12.9086 
  61   1.0000      -0.460757       -12.5378 
  62   1.0000      -0.458030       -12.4636 
  63   1.0000      -0.456032       -12.4093 
  64   1.0000      -0.454777       -12.3751 
  65   1.0000      -0.454009       -12.3542 
  66   1.0000      -0.449336       -12.2270 
  67   1.0000      -0.449315       -12.2265 
  68   1.0000      -0.443945       -12.0804 
  69   1.0000      -0.443876       -12.0785 
  70   1.0000      -0.437820       -11.9137 
  71   1.0000      -0.437064       -11.8931 
  72   1.0000      -0.436351       -11.8737 
  73   1.0000      -0.436302       -11.8724 
  74   1.0000      -0.428884       -11.6705 
  75   1.0000      -0.425119       -11.5681 
  76   1.0000      -0.423240       -11.5170 
  77   1.0000      -0.422333       -11.4923 
  78   1.0000      -0.418875       -11.3982 
  79   1.0000      -0.418829       -11.3969 
  80   1.0000      -0.418768       -11.3953 
  81   1.0000      -0.413027       -11.2390 
  82   1.0000      -0.412996       -11.2382 
  83   1.0000      -0.410575       -11.1723 
  84   1.0000      -0.410543       -11.1714 
  85   1.0000      -0.402610       -10.9556 
  86   1.0000      -0.400681       -10.9031 
  87   1.0000      -0.400625       -10.9016 
  88   1.0000      -0.399192       -10.8626 
  89   1.0000      -0.395650       -10.7662 
  90   1.0000      -0.393180       -10.6990 
  91   1.0000      -0.393141       -10.6979 
  92   1.0000      -0.392376       -10.6771 
  93   1.0000      -0.383337       -10.4311 
  94   1.0000      -0.375772       -10.2253 
  95   1.0000      -0.375539       -10.2189 
  96   1.0000      -0.375518       -10.2184 
  97   1.0000      -0.369456       -10.0534 
  98   1.0000      -0.369436       -10.0529 
  99   1.0000      -0.366739        -9.9795 
 100   1.0000      -0.360866        -9.8197 
 101   1.0000      -0.356834        -9.7099 
 102   1.0000      -0.356781        -9.7085 
 103   1.0000      -0.356317        -9.6959 
 104   1.0000      -0.353069        -9.6075 
 105   1.0000      -0.351490        -9.5645 
 106   1.0000      -0.347073        -9.4443 
 107   1.0000      -0.345422        -9.3994 
 108   1.0000      -0.344710        -9.3800 
 109   1.0000      -0.344699        -9.3797 
 110   1.0000      -0.344261        -9.3678 
 111   1.0000      -0.341991        -9.3061 
 112   1.0000      -0.341957        -9.3051 
 113   1.0000      -0.341106        -9.2820 
 114   1.0000      -0.340658        -9.2698 
 115   1.0000      -0.339455        -9.2370 
 116   1.0000      -0.339442        -9.2367 
 117   1.0000      -0.337141        -9.1741 
 118   1.0000      -0.337123        -9.1736 
 119   1.0000      -0.332941        -9.0598 
 120   1.0000      -0.320102        -8.7104 
 121   1.0000      -0.307221        -8.3599 
 122   1.0000      -0.304774        -8.2933 
 123   1.0000      -0.300184        -8.1684 
 124   1.0000      -0.300137        -8.1671 
 125   1.0000      -0.236409        -6.4330 
 126   1.0000      -0.211368        -5.7516 
 127   1.0000      -0.211365        -5.7515 
 128   0.0000      -0.102397        -2.7864 
 129   0.0000      -0.099202        -2.6994 
 130   0.0000      -0.061076        -1.6620 
 131   0.0000      -0.057791        -1.5726 
 132   0.0000      -0.038643        -1.0515 
 133   0.0000      -0.031130        -0.8471 
 134   0.0000      -0.030739        -0.8365 
 135   0.0000      -0.030696        -0.8353 
 136   0.0000      -0.005505        -0.1498 
 137   0.0000      -0.002163        -0.0589 
 138   0.0000      -0.002134        -0.0581 
 139   0.0000       0.008792         0.2392 
 140   0.0000       0.019577         0.5327 
 141   0.0000       0.019629         0.5341 
 142   0.0000       0.056382         1.5342 
 143   0.0000       0.056398         1.5347 
 144   0.0000       0.063937         1.7398 
 145   0.0000       0.070854         1.9280 
 146   0.0000       0.076032         2.0689 
 147   0.0000       0.085291         2.3209 
 148   0.0000       0.092209         2.5091 
 149   0.0000       0.093165         2.5352 
 150   0.0000       0.093474         2.5436 
 151   0.0000       0.094213         2.5637 
 152   0.0000       0.094247         2.5646 
 153   0.0000       0.097894         2.6638 
 154   0.0000       0.097929         2.6648 
 155   0.0000       0.103423         2.8143 
 156   0.0000       0.112502         3.0613 
 157   0.0000       0.112515         3.0617 
 158   0.0000       0.113831         3.0975 
 159   0.0000       0.134003         3.6464 
 160   0.0000       0.134102         3.6491 
 161   0.0000       0.134112         3.6494 
 162   0.0000       0.158884         4.3235 
 163   0.0000       0.162479         4.4213 
 164   0.0000       0.162490         4.4216 
 165   0.0000       0.169004         4.5988 
 166   0.0000       0.169390         4.6093 
 167   0.0000       0.186284         5.0690 
 168   0.0000       0.189366         5.1529 
 169   0.0000       0.189386         5.1534 
 170   0.0000       0.194954         5.3050 
 171   0.0000       0.197023         5.3613 
 172   0.0000       0.197034         5.3616 
 173   0.0000       0.208550         5.6749 
 174   0.0000       0.209091         5.6896 
 175   0.0000       0.213882         5.8200 
 176   0.0000       0.214445         5.8353 
 177   0.0000       0.215812         5.8725 
 178   0.0000       0.215822         5.8728 
 179   0.0000       0.280992         7.6462 
 180   0.0000       0.282079         7.6758 
 181   0.0000       0.289234         7.8705 
 182   0.0000       0.289279         7.8717 
 183   0.0000       0.311207         8.4684 
 184   0.0000       0.311801         8.4845 
 185   0.0000       0.311813         8.4849 
 186   0.0000       0.315297         8.5797 
 187   0.0000       0.326578         8.8866 
 188   0.0000       0.326690         8.8897 
 189   0.0000       0.331049         9.0083 
 190   0.0000       0.334677         9.1070 
 191   0.0000       0.339864         9.2482 
 192   0.0000       0.340097         9.2545 
 193   0.0000       0.340162         9.2563 
 194   0.0000       0.346062         9.4168 
 195   0.0000       0.382875        10.4186 
 196   0.0000       0.389194        10.5905 
 197   0.0000       0.393118        10.6973 
 198   0.0000       0.394416        10.7326 
 199   0.0000       0.394449        10.7335 
 200   0.0000       0.397716        10.8224 
 201   0.0000       0.399985        10.8841 
 202   0.0000       0.399996        10.8845 
 203   0.0000       0.403638        10.9835 
 204   0.0000       0.431344        11.7375 
 205   0.0000       0.431362        11.7380 
 206   0.0000       0.438634        11.9358 
 207   0.0000       0.439744        11.9660 
 208   0.0000       0.440110        11.9760 
 209   0.0000       0.442100        12.0302 
 210   0.0000       0.450556        12.2602 
 211   0.0000       0.450618        12.2619 
 212   0.0000       0.463442        12.6109 
 213   0.0000       0.464693        12.6449 
 214   0.0000       0.465202        12.6588 
 215   0.0000       0.465224        12.6594 
 216   0.0000       0.471729        12.8364 
 217   0.0000       0.471747        12.8369 
 218   0.0000       0.474870        12.9219 
 219   0.0000       0.483857        13.1664 
 220   0.0000       0.487336        13.2611 
 221   0.0000       0.506060        13.7706 
 222   0.0000       0.506185        13.7740 
 223   0.0000       0.531914        14.4741 
 224   0.0000       0.541011        14.7216 
 225   0.0000       0.541073        14.7233 
 226   0.0000       0.543411        14.7870 
 227   0.0000       0.550132        14.9698 
 228   0.0000       0.551173        14.9982 
 229   0.0000       0.551195        14.9988 
 230   0.0000       0.558390        15.1946 
 231   0.0000       0.563496        15.3335 
 232   0.0000       0.570423        15.5220 
 233   0.0000       0.572596        15.5811 
 234   0.0000       0.572642        15.5824 
 235   0.0000       0.584581        15.9072 
 236   0.0000       0.600682        16.3454 
 237   0.0000       0.601433        16.3658 
 238   0.0000       0.608316        16.5531 
 239   0.0000       0.608413        16.5557 
 240   0.0000       0.616638        16.7796 
 241   0.0000       0.623140        16.9565 
 242   0.0000       0.623166        16.9572 
 243   0.0000       0.630431        17.1549 
 244   0.0000       0.630460        17.1557 
 245   0.0000       0.632931        17.2229 
 246   0.0000       0.633029        17.2256 
 247   0.0000       0.637041        17.3348 
 248   0.0000       0.657782        17.8992 
 249   0.0000       0.661023        17.9873 
 250   0.0000       0.662612        18.0306 
 251   0.0000       0.662792        18.0355 
 252   0.0000       0.677290        18.4300 
 253   0.0000       0.700022        19.0486 
 254   0.0000       0.710636        19.3374 
 255   0.0000       0.711029        19.3481 
 256   0.0000       0.718374        19.5480 
 257   0.0000       0.718624        19.5548 
 258   0.0000       0.732513        19.9327 
 259   0.0000       0.739965        20.1355 
 260   0.0000       0.780797        21.2466 
 261   0.0000       0.816087        22.2068 
 262   0.0000       0.816230        22.2108 
 263   0.0000       0.882561        24.0157 
 264   0.0000       0.888207        24.1694 
 265   0.0000       0.888407        24.1748 
 266   0.0000       0.908207        24.7136 
 267   0.0000       0.933897        25.4126 
 268   0.0000       0.933919        25.4132 
 269   0.0000       0.954593        25.9758 
 270   0.0000       0.958780        26.0897 
 271   0.0000       0.964933        26.2572 
 272   0.0000       0.965074        26.2610 
 273   0.0000       0.974605        26.5204 
 274   0.0000       0.994053        27.0496 
 275   0.0000       1.004251        27.3271 
 276   0.0000       1.021156        27.7871 
 277   0.0000       1.021390        27.7934 
 278   0.0000       1.022606        27.8265 
 279   0.0000       1.026652        27.9366 
 280   0.0000       1.035372        28.1739 
 281   0.0000       1.035480        28.1769 
 282   0.0000       1.042394        28.3650 
 283   0.0000       1.047794        28.5119 
 284   0.0000       1.050063        28.5737 
 285   0.0000       1.050139        28.5757 
 286   0.0000       1.065424        28.9917 
 287   0.0000       1.104169        30.0460 
 288   0.0000       1.107829        30.1456 
 289   0.0000       1.218725        33.1632 
 290   0.0000       1.395792        37.9814 
 291   0.0000       1.405882        38.2560 
 292   0.0000       1.422856        38.7179 
 293   0.0000       1.436367        39.0855 
 294   0.0000       1.447723        39.3945 
 295   0.0000       1.448350        39.4116 
 296   0.0000       1.453857        39.5615 
 297   0.0000       1.453888        39.5623 
 298   0.0000       1.468276        39.9538 
 299   0.0000       1.474808        40.1316 
 300   0.0000       1.474914        40.1344 
 301   0.0000       1.485149        40.4130 
 302   0.0000       1.489470        40.5305 
 303   0.0000       1.489547        40.5326 
 304   0.0000       1.498108        40.7656 
 305   0.0000       1.513151        41.1749 
 306   0.0000       1.515307        41.2336 
 307   0.0000       1.515334        41.2343 
 308   0.0000       1.535520        41.7836 
 309   0.0000       1.540681        41.9241 
 310   0.0000       1.558965        42.4216 
 311   0.0000       1.559030        42.4234 
 312   0.0000       1.565289        42.5937 
 313   0.0000       1.566577        42.6287 
 314   0.0000       1.570059        42.7235 
 315   0.0000       1.576132        42.8887 
 316   0.0000       1.595703        43.4213 
 317   0.0000       1.595729        43.4220 
 318   0.0000       1.602334        43.6017 
 319   0.0000       1.602619        43.6095 
 320   0.0000       1.606479        43.7145 
 321   0.0000       1.618718        44.0475 
 322   0.0000       1.621574        44.1253 
 323   0.0000       1.625101        44.2212 
 324   0.0000       1.632177        44.4138 
 325   0.0000       1.632309        44.4174 
 326   0.0000       1.638014        44.5726 
 327   0.0000       1.638178        44.5771 
 328   0.0000       1.656711        45.0814 
 329   0.0000       1.656785        45.0834 
 330   0.0000       1.658333        45.1255 
 331   0.0000       1.658418        45.1278 
 332   0.0000       1.661701        45.2172 
 333   0.0000       1.664020        45.2803 
 334   0.0000       1.665858        45.3303 
 335   0.0000       1.665882        45.3309 
 336   0.0000       1.667761        45.3821 
 337   0.0000       1.676587        45.6222 
 338   0.0000       1.676846        45.6293 
 339   0.0000       1.677464        45.6461 
 340   0.0000       1.678208        45.6664 
 341   0.0000       1.678254        45.6676 
 342   0.0000       1.686800        45.9002 
 343   0.0000       1.690247        45.9940 
 344   0.0000       1.690944        46.0129 
 345   0.0000       1.691033        46.0153 
 346   0.0000       1.693796        46.0905 
 347   0.0000       1.693890        46.0931 
 348   0.0000       1.696536        46.1651 
 349   0.0000       1.698565        46.2203 
 350   0.0000       1.699808        46.2541 
 351   0.0000       1.704232        46.3745 
 352   0.0000       1.704354        46.3778 
 353   0.0000       1.705875        46.4192 
 354   0.0000       1.707788        46.4713 
 355   0.0000       1.707831        46.4724 
 356   0.0000       1.708365        46.4870 
 357   0.0000       1.712127        46.5893 
 358   0.0000       1.713140        46.6169 
 359   0.0000       1.713211        46.6188 
 360   0.0000       1.716401        46.7056 
 361   0.0000       1.718462        46.7617 
 362   0.0000       1.719498        46.7899 
 363   0.0000       1.723777        46.9064 
 364   0.0000       1.724022        46.9130 
 365   0.0000       1.724046        46.9137 
 366   0.0000       1.724840        46.9353 
 367   0.0000       1.726583        46.9827 
 368   0.0000       1.726906        46.9915 
 369   0.0000       1.726938        46.9924 
 370   0.0000       1.740608        47.3643 
 371   0.0000       1.740705        47.3670 
 372   0.0000       1.741883        47.3991 
 373   0.0000       1.742009        47.4025 
 374   0.0000       1.747714        47.5577 
 375   0.0000       1.749351        47.6023 
 376   0.0000       1.758798        47.8593 
 377   0.0000       1.758964        47.8638 
 378   0.0000       1.759039        47.8659 
 379   0.0000       1.759245        47.8715 
 380   0.0000       1.759295        47.8729 
 381   0.0000       1.760495        47.9055 
 382   0.0000       1.765552        48.0431 
 383   0.0000       1.765603        48.0445 
 384   0.0000       1.766557        48.0705 
 385   0.0000       1.768260        48.1168 
 386   0.0000       1.768583        48.1256 
 387   0.0000       1.770204        48.1697 
 388   0.0000       1.770360        48.1739 
 389   0.0000       1.772367        48.2286 
 390   0.0000       1.778151        48.3860 
 391   0.0000       1.786481        48.6126 
 392   0.0000       1.786563        48.6148 
 393   0.0000       1.787380        48.6371 
 394   0.0000       1.795360        48.8542 
 395   0.0000       1.804111        49.0924 
 396   0.0000       1.804204        49.0949 
 397   0.0000       1.804259        49.0964 
 398   0.0000       1.808005        49.1983 
 399   0.0000       1.808208        49.2038 
 400   0.0000       1.810648        49.2702 
 401   0.0000       1.814794        49.3831 
 402   0.0000       1.816796        49.4375 
 403   0.0000       1.816890        49.4401 
 404   0.0000       1.822627        49.5962 
 405   0.0000       1.825695        49.6797 
 406   0.0000       1.825718        49.6803 
 407   0.0000       1.839390        50.0524 
 408   0.0000       1.844938        50.2033 
 409   0.0000       1.848094        50.2892 
 410   0.0000       1.848204        50.2922 
 411   0.0000       1.872095        50.9423 
 412   0.0000       1.875818        51.0436 
 413   0.0000       1.888777        51.3962 
 414   0.0000       1.897003        51.6201 
 415   0.0000       1.899651        51.6921 
 416   0.0000       1.899764        51.6952 
 417   0.0000       1.950922        53.0873 
 418   0.0000       1.951548        53.1043 
 419   0.0000       1.951972        53.1159 
 420   0.0000       1.984427        53.9990 
 421   0.0000       1.993332        54.2413 
 422   0.0000       2.008968        54.6668 
 423   0.0000       2.009130        54.6712 
 424   0.0000       2.016659        54.8761 
 425   0.0000       2.016868        54.8818 
 426   0.0000       2.021998        55.0214 
 427   0.0000       2.029737        55.2319 
 428   0.0000       2.050813        55.8055 
 429   0.0000       2.064111        56.1673 
 430   0.0000       2.064643        56.1818 
 431   0.0000       2.084923        56.7336 
 432   0.0000       2.116295        57.5873 
 433   0.0000       2.120229        57.6944 
 434   0.0000       2.121779        57.7365 
 435   0.0000       2.121826        57.7378 
 436   0.0000       2.143871        58.3377 
 437   0.0000       2.365470        64.3677 
 438   0.0000       2.422181        65.9109 
 439   0.0000       2.422652        65.9237 
 440   0.0000       2.427530        66.0564 
 441   0.0000       2.528340        68.7996 
 442   0.0000       2.528470        68.8032 
 443   0.0000       2.563095        69.7454 
 444   0.0000       2.577783        70.1451 
 445   0.0000       2.619882        71.2906 
 446   0.0000       2.622634        71.3655 
 447   0.0000       2.659571        72.3706 
 448   0.0000       2.659769        72.3760 
 449   0.0000       2.713064        73.8262 
 450   0.0000       2.723433        74.1084 
 451   0.0000       2.723632        74.1138 
 452   0.0000       2.746744        74.7427 
 453   0.0000       2.753048        74.9142 
 454   0.0000       2.926259        79.6276 
 455   0.0000       2.927920        79.6728 
 456   0.0000       2.928099        79.6776 
 457   0.0000       3.047222        82.9191 
 458   0.0000       3.047269        82.9204 
 459   0.0000       3.056034        83.1589 
 460   0.0000       3.075955        83.7010 
 461   0.0000       3.101271        84.3899 
 462   0.0000       3.135532        85.3222 
 463   0.0000       3.135738        85.3278 
 464   0.0000       3.137600        85.3784 
 465   0.0000      23.280873       633.5048 
 466   0.0000      23.281702       633.5273 
 467   0.0000      23.426856       637.4771 
 468   0.0000      24.048284       654.3871 
 469   0.0000      24.704174       672.2347 
 470   0.0000      24.951425       678.9628 
 471   0.0000      24.952205       678.9840 
 472   0.0000      24.980687       679.7590 
 473   0.0000      24.981433       679.7793 
 474   0.0000      25.310416       688.7314 
 475   0.0000      25.337240       689.4613 
 476   0.0000      25.714885       699.7376 
 477   0.0000      25.715824       699.7631 
 478   0.0000      26.007438       707.6984 
 479   0.0000      26.216325       713.3825 
 480   0.0000      26.572215       723.0667 
 481   0.0000      26.575682       723.1611 
 482   0.0000      26.698305       726.4978 
 483   0.0000      26.789001       728.9658 
 484   0.0000      26.990648       734.4529 
 485   0.0000      27.030211       735.5294 
 486   0.0000      27.040837       735.8186 
 487   0.0000      27.043318       735.8861 
 488   0.0000      27.056818       736.2534 
 489   0.0000      27.327230       743.6117 
 490   0.0000      27.364744       744.6325 
 491   0.0000      27.467296       747.4231 
 492   0.0000      27.468752       747.4627 
 493   0.0000      27.693401       753.5757 
 494   0.0000      27.694382       753.6025 
 495   0.0000      27.763707       755.4889 
 496   0.0000      27.767723       755.5982 
 497   0.0000      27.946100       760.4520 
 498   0.0000      29.716632       808.6307 
 499   0.0000      30.652245       834.0900 
 500   0.0000      30.655600       834.1813 
 501   0.0000      44.110291      1200.3020 
 502   0.0000      44.228934      1203.5305 
 503   0.0000      44.229089      1203.5347 
 504   0.0000      44.237945      1203.7757 
 505   0.0000      44.340497      1206.5663 
 506   0.0000      44.340657      1206.5706 
 507   0.0000      44.348693      1206.7893 
 508   0.0000      44.386154      1207.8087 
 509   0.0000      44.386363      1207.8143 
 510   0.0000      44.391243      1207.9471 
 511   0.0000      44.445431      1209.4217 
 512   0.0000      44.459893      1209.8152 
 513   0.0000     202.676294      5515.1024 
 514   0.0000     202.722035      5516.3470 
 515   0.0000     202.722091      5516.3486 
 516   0.0000     202.728505      5516.5231 
 517   0.0000     202.767704      5517.5897 
 518   0.0000     202.767758      5517.5912 
 519   0.0000     202.768135      5517.6015 
 520   0.0000     202.791057      5518.2252 
 521   0.0000     202.791129      5518.2272 
 522   0.0000     202.795802      5518.3543 
 523   0.0000     202.811864      5518.7914 
 524   0.0000     202.813412      5518.8335 

                 SPIN DOWN ORBITALS
  NO   OCC          E(Eh)            E(eV) 
   0   1.0000    -217.748937     -5925.2498 
   1   1.0000     -25.364719      -690.2091 
   2   1.0000     -21.514576      -585.4414 
   3   1.0000     -21.514564      -585.4411 
   4   1.0000     -21.493705      -584.8735 
   5   1.0000      -4.399035      -119.7038 
   6   1.0000      -4.399018      -119.7034 
   7   1.0000      -4.398967      -119.7020 
   8   1.0000      -4.398966      -119.7019 
   9   1.0000      -4.390152      -119.4621 
  10   1.0000      -4.390108      -119.4609 
  11   1.0000      -4.389997      -119.4579 
  12   1.0000      -4.389956      -119.4568 
  13   1.0000      -4.389952      -119.4567 
  14   1.0000      -4.389929      -119.4561 
  15   1.0000      -4.389798      -119.4525 
  16   1.0000      -4.389773      -119.4518 
  17   1.0000      -3.010878       -81.9302 
  18   1.0000      -2.519115       -68.5486 
  19   1.0000      -2.519060       -68.5471 
  20   1.0000      -2.519035       -68.5464 
  21   1.0000      -2.518960       -68.5444 
  22   1.0000      -2.516842       -68.4867 
  23   1.0000      -2.516526       -68.4781 
  24   1.0000      -2.516512       -68.4778 
  25   1.0000      -2.516427       -68.4755 
  26   1.0000      -2.513844       -68.4052 
  27   1.0000      -2.513766       -68.4030 
  28   1.0000      -2.513755       -68.4027 
  29   1.0000      -2.513479       -68.3952 
  30   1.0000      -2.509364       -68.2833 
  31   1.0000      -2.509317       -68.2820 
  32   1.0000      -2.509258       -68.2804 
  33   1.0000      -2.508963       -68.2724 
  34   1.0000      -2.508958       -68.2722 
  35   1.0000      -2.508635       -68.2634 
  36   1.0000      -2.508626       -68.2632 
  37   1.0000      -2.508288       -68.2540 
  38   1.0000      -2.507318       -68.2276 
  39   1.0000      -2.507180       -68.2238 
  40   1.0000      -2.507164       -68.2234 
  41   1.0000      -2.506681       -68.2103 
  42   1.0000      -2.506669       -68.2099 
  43   1.0000      -2.506599       -68.2080 
  44   1.0000      -2.506580       -68.2075 
  45   1.0000      -2.506171       -68.1964 
  46   1.0000      -2.504838       -68.1601 
  47   1.0000      -2.504480       -68.1504 
  48   1.0000      -2.504466       -68.1500 
  49   1.0000      -2.504438       -68.1492 
  50   1.0000      -2.504195       -68.1426 
  51   1.0000      -2.504187       -68.1424 
  52   1.0000      -2.503872       -68.1338 
  53   1.0000      -2.503747       -68.1304 
  54   1.0000      -1.880092       -51.1599 
  55   1.0000      -1.880065       -51.1592 
  56   1.0000      -1.832252       -49.8581 
  57   1.0000      -0.488159       -13.2835 
  58   1.0000      -0.460394       -12.5280 
  59   1.0000      -0.456131       -12.4120 
  60   1.0000      -0.455399       -12.3920 
  61   1.0000      -0.455375       -12.3914 
  62   1.0000      -0.453510       -12.3406 
  63   1.0000      -0.452697       -12.3185 
  64   1.0000      -0.448336       -12.1998 
  65   1.0000      -0.448319       -12.1994 
  66   1.0000      -0.444559       -12.0971 
  67   1.0000      -0.442472       -12.0403 
  68   1.0000      -0.442401       -12.0383 
  69   1.0000      -0.437305       -11.8997 
  70   1.0000      -0.436320       -11.8729 
  71   1.0000      -0.436245       -11.8708 
  72   1.0000      -0.435544       -11.8518 
  73   1.0000      -0.435500       -11.8506 
  74   1.0000      -0.428592       -11.6626 
  75   1.0000      -0.424715       -11.5571 
  76   1.0000      -0.422676       -11.5016 
  77   1.0000      -0.421989       -11.4829 
  78   1.0000      -0.418196       -11.3797 
  79   1.0000      -0.418157       -11.3786 
  80   1.0000      -0.417444       -11.3592 
  81   1.0000      -0.410206       -11.1623 
  82   1.0000      -0.410163       -11.1611 
  83   1.0000      -0.409786       -11.1508 
  84   1.0000      -0.409755       -11.1500 
  85   1.0000      -0.401520       -10.9259 
  86   1.0000      -0.395261       -10.7556 
  87   1.0000      -0.394737       -10.7413 
  88   1.0000      -0.392685       -10.6855 
  89   1.0000      -0.392648       -10.6845 
  90   1.0000      -0.383977       -10.4485 
  91   1.0000      -0.383908       -10.4467 
  92   1.0000      -0.377406       -10.2697 
  93   1.0000      -0.375198       -10.2097 
  94   1.0000      -0.373443       -10.1619 
  95   1.0000      -0.373427       -10.1615 
  96   1.0000      -0.369001       -10.0410 
  97   1.0000      -0.368982       -10.0405 
  98   1.0000      -0.366477        -9.9724 
  99   1.0000      -0.364411        -9.9161 
 100   1.0000      -0.358631        -9.7588 
 101   1.0000      -0.355977        -9.6866 
 102   1.0000      -0.355925        -9.6852 
 103   1.0000      -0.352489        -9.5917 
 104   1.0000      -0.350555        -9.5391 
 105   1.0000      -0.348621        -9.4864 
 106   1.0000      -0.345958        -9.4140 
 107   1.0000      -0.343738        -9.3536 
 108   1.0000      -0.343727        -9.3533 
 109   1.0000      -0.342006        -9.3065 
 110   1.0000      -0.340789        -9.2733 
 111   1.0000      -0.340735        -9.2719 
 112   1.0000      -0.340168        -9.2564 
 113   1.0000      -0.338169        -9.2021 
 114   1.0000      -0.336417        -9.1544 
 115   1.0000      -0.336392        -9.1537 
 116   1.0000      -0.332102        -9.0370 
 117   1.0000      -0.305450        -8.3117 
 118   1.0000      -0.304159        -8.2766 
 119   1.0000      -0.299625        -8.1532 
 120   1.0000      -0.299577        -8.1519 
 121   1.0000      -0.225512        -6.1365 
 122   1.0000      -0.225510        -6.1364 
 123   1.0000      -0.224233        -6.1017 
 124   0.0000      -0.111638        -3.0378 
 125   0.0000      -0.106240        -2.8909 
 126   0.0000      -0.055588        -1.5126 
 127   0.0000      -0.040356        -1.0982 
 128   0.0000      -0.029784        -0.8105 
 129   0.0000      -0.029750        -0.8095 
 130   0.0000      -0.028590        -0.7780 
 131   0.0000      -0.000665        -0.0181 
 132   0.0000      -0.000635        -0.0173 
 133   0.0000       0.000350         0.0095 
 134   0.0000       0.008891         0.2419 
 135   0.0000       0.016270         0.4427 
 136   0.0000       0.019706         0.5362 
 137   0.0000       0.019754         0.5375 
 138   0.0000       0.029349         0.7986 
 139   0.0000       0.029359         0.7989 
 140   0.0000       0.041941         1.1413 
 141   0.0000       0.047534         1.2935 
 142   0.0000       0.088158         2.3989 
 143   0.0000       0.089220         2.4278 
 144   0.0000       0.090501         2.4627 
 145   0.0000       0.092729         2.5233 
 146   0.0000       0.094434         2.5697 
 147   0.0000       0.094466         2.5705 
 148   0.0000       0.097760         2.6602 
 149   0.0000       0.097787         2.6609 
 150   0.0000       0.098878         2.6906 
 151   0.0000       0.102544         2.7904 
 152   0.0000       0.112411         3.0589 
 153   0.0000       0.112707         3.0669 
 154   0.0000       0.112729         3.0675 
 155   0.0000       0.113559         3.0901 
 156   0.0000       0.113604         3.0913 
 157   0.0000       0.113850         3.0980 
 158   0.0000       0.121019         3.2931 
 159   0.0000       0.135632         3.6907 
 160   0.0000       0.135644         3.6911 
 161   0.0000       0.137054         3.7294 
 162   0.0000       0.159216         4.3325 
 163   0.0000       0.162354         4.4179 
 164   0.0000       0.162364         4.4181 
 165   0.0000       0.169022         4.5993 
 166   0.0000       0.169176         4.6035 
 167   0.0000       0.199584         5.4309 
 168   0.0000       0.202829         5.5193 
 169   0.0000       0.202844         5.5197 
 170   0.0000       0.210647         5.7320 
 171   0.0000       0.211454         5.7540 
 172   0.0000       0.211504         5.7553 
 173   0.0000       0.214317         5.8319 
 174   0.0000       0.214352         5.8328 
 175   0.0000       0.216454         5.8900 
 176   0.0000       0.216464         5.8903 
 177   0.0000       0.216962         5.9038 
 178   0.0000       0.218069         5.9340 
 179   0.0000       0.292439         7.9577 
 180   0.0000       0.297667         8.0999 
 181   0.0000       0.302266         8.2251 
 182   0.0000       0.302300         8.2260 
 183   0.0000       0.311798         8.4844 
 184   0.0000       0.311812         8.4848 
 185   0.0000       0.314874         8.5682 
 186   0.0000       0.315170         8.5762 
 187   0.0000       0.326542         8.8857 
 188   0.0000       0.326642         8.8884 
 189   0.0000       0.334426         9.1002 
 190   0.0000       0.340605         9.2683 
 191   0.0000       0.340670         9.2701 
 192   0.0000       0.346473         9.4280 
 193   0.0000       0.351669         9.5694 
 194   0.0000       0.352341         9.5877 
 195   0.0000       0.382489        10.4080 
 196   0.0000       0.389334        10.5943 
 197   0.0000       0.393592        10.7102 
 198   0.0000       0.395672        10.7668 
 199   0.0000       0.395717        10.7680 
 200   0.0000       0.401899        10.9362 
 201   0.0000       0.401912        10.9366 
 202   0.0000       0.403414        10.9774 
 203   0.0000       0.403602        10.9826 
 204   0.0000       0.433798        11.8042 
 205   0.0000       0.433822        11.8049 
 206   0.0000       0.439152        11.9499 
 207   0.0000       0.440097        11.9756 
 208   0.0000       0.440349        11.9825 
 209   0.0000       0.442886        12.0515 
 210   0.0000       0.452162        12.3040 
 211   0.0000       0.452232        12.3058 
 212   0.0000       0.463920        12.6239 
 213   0.0000       0.464766        12.6469 
 214   0.0000       0.465047        12.6546 
 215   0.0000       0.465071        12.6552 
 216   0.0000       0.471691        12.8354 
 217   0.0000       0.471710        12.8359 
 218   0.0000       0.475325        12.9343 
 219   0.0000       0.483361        13.1529 
 220   0.0000       0.490431        13.3453 
 221   0.0000       0.508843        13.8463 
 222   0.0000       0.508965        13.8496 
 223   0.0000       0.532682        14.4950 
 224   0.0000       0.541039        14.7224 
 225   0.0000       0.541093        14.7239 
 226   0.0000       0.558467        15.1967 
 227   0.0000       0.560158        15.2427 
 228   0.0000       0.563394        15.3307 
 229   0.0000       0.563663        15.3381 
 230   0.0000       0.570514        15.5245 
 231   0.0000       0.572307        15.5733 
 232   0.0000       0.572335        15.5740 
 233   0.0000       0.572461        15.5774 
 234   0.0000       0.572507        15.5787 
 235   0.0000       0.589196        16.0328 
 236   0.0000       0.604644        16.4532 
 237   0.0000       0.605344        16.4722 
 238   0.0000       0.609023        16.5723 
 239   0.0000       0.609130        16.5753 
[...]
      f-2     :     0.000017
      f+3     :     0.000041
      f-3     :    -0.000015
  1 Aus       :    -0.002199  s :    -0.002199
      pz      :    -0.045977  p :    -0.092607
      px      :    -0.014507
      py      :    -0.032123
      dz2     :     0.001280  d :     0.002343
      dxz     :    -0.005517
      dyz     :     0.003730
      dx2y2   :    -0.001519
      dxy     :     0.004370
      f0      :    -0.000002  f :     0.000135
      f+1     :     0.000018
      f-1     :    -0.000004
      f+2     :    -0.000010
      f-2     :    -0.000010
      f+3     :     0.000078
      f-3     :     0.000066
  2 Aus       :    -0.072948  s :    -0.072948
      pz      :    -0.000380  p :    -0.048905
      px      :    -0.006322
      py      :    -0.042203
      dz2     :     0.000944  d :    -0.007185
      dxz     :    -0.000799
      dyz     :     0.001729
      dx2y2   :    -0.005418
      dxy     :    -0.003642
      f0      :     0.000040  f :     0.000360
      f+1     :     0.000097
      f-1     :    -0.000006
      f+2     :     0.000120
      f-2     :    -0.000018
      f+3     :     0.000047
      f-3     :     0.000078
  3 Aus       :    -0.075017  s :    -0.075017
      pz      :    -0.004113  p :    -0.020821
      px      :    -0.000153
      py      :    -0.016555
      dz2     :     0.000866  d :    -0.009705
      dxz     :    -0.000776
      dyz     :     0.004484
      dx2y2   :    -0.005331
      dxy     :    -0.008948
      f0      :     0.000091  f :     0.000367
      f+1     :     0.000159
      f-1     :     0.000006
      f+2     :     0.000062
      f-2     :     0.000068
      f+3     :    -0.000007
      f-3     :    -0.000013
  4 Aus       :    -0.110849  s :    -0.110849
      pz      :    -0.008015  p :    -0.064458
      px      :    -0.014492
      py      :    -0.041951
      dz2     :    -0.000433  d :     0.005237
      dxz     :    -0.000077
      dyz     :     0.001869
      dx2y2   :     0.002425
      dxy     :     0.001452
      f0      :     0.000008  f :     0.000187
      f+1     :     0.000004
      f-1     :     0.000106
      f+2     :     0.000074
      f-2     :     0.000029
      f+3     :     0.000020
      f-3     :    -0.000055
  5 Aus       :    -0.002370  s :    -0.002370
      pz      :    -0.046057  p :    -0.092787
      px      :    -0.014525
      py      :    -0.032206
      dz2     :     0.001341  d :     0.002275
      dxz     :    -0.005615
      dyz     :     0.003724
      dx2y2   :    -0.001546
      dxy     :     0.004372
      f0      :    -0.000003  f :     0.000134
      f+1     :     0.000018
      f-1     :    -0.000004
      f+2     :    -0.000010
      f-2     :    -0.000011
      f+3     :     0.000078
      f-3     :     0.000066
  6 Aus       :    -0.002711  s :    -0.002711
      pz      :    -0.041479  p :    -0.092938
      px      :    -0.015458
      py      :    -0.036002
      dz2     :     0.000446  d :     0.002411
      dxz     :    -0.004213
      dyz     :     0.004424
      dx2y2   :    -0.001441
      dxy     :     0.003195
      f0      :     0.000043  f :     0.000136
      f+1     :    -0.000004
      f-1     :    -0.000037
      f+2     :    -0.000015
      f-2     :     0.000035
      f+3     :     0.000057
      f-3     :     0.000057
  7 Aus       :    -0.002685  s :    -0.002685
      pz      :    -0.041412  p :    -0.092749
      px      :    -0.015411
      py      :    -0.035925
      dz2     :     0.000448  d :     0.002495
      dxz     :    -0.004196
      dyz     :     0.004441
      dx2y2   :    -0.001402
      dxy     :     0.003203
      f0      :     0.000043  f :     0.000137
      f+1     :    -0.000004
      f-1     :    -0.000037
      f+2     :    -0.000015
      f-2     :     0.000034
      f+3     :     0.000058
      f-3     :     0.000058
  8 Aus       :    -0.110953  s :    -0.110953
      pz      :    -0.008077  p :    -0.064645
      px      :    -0.014520
      py      :    -0.042048
      dz2     :    -0.000515  d :     0.005042
      dxz     :    -0.000075
      dyz     :     0.001833
      dx2y2   :     0.002384
      dxy     :     0.001415
      f0      :     0.000007  f :     0.000181
      f+1     :     0.000004
      f-1     :     0.000104
      f+2     :     0.000073
      f-2     :     0.000028
      f+3     :     0.000019
      f-3     :    -0.000055
  9 Aus       :    -0.110967  s :    -0.110967
      pz      :    -0.016155  p :    -0.064691
      px      :    -0.014554
      py      :    -0.033982
      dz2     :    -0.002635  d :     0.005015
      dxz     :    -0.000511
      dyz     :     0.003701
      dx2y2   :     0.002653
      dxy     :     0.001807
      f0      :     0.000021  f :     0.000180
      f+1     :    -0.000012
      f-1     :     0.000044
      f+2     :     0.000088
      f-2     :     0.000016
      f+3     :     0.000039
      f-3     :    -0.000016
 10 Aus       :    -0.072932  s :    -0.072932
      pz      :    -0.000414  p :    -0.048913
      px      :    -0.006339
      py      :    -0.042159
      dz2     :     0.000986  d :    -0.007274
      dxz     :    -0.000940
      dyz     :     0.001745
      dx2y2   :    -0.005394
      dxy     :    -0.003671
      f0      :     0.000040  f :     0.000355
      f+1     :     0.000097
      f-1     :    -0.000006
      f+2     :     0.000120
      f-2     :    -0.000018
      f+3     :     0.000046
      f-3     :     0.000077
 11 Aus       :    -0.075009  s :    -0.075009
      pz      :    -0.004131  p :    -0.020777
      px      :    -0.000161
      py      :    -0.016484
      dz2     :     0.000748  d :    -0.009893
      dxz     :    -0.000701
      dyz     :     0.004491
      dx2y2   :    -0.005382
      dxy     :    -0.009049
      f0      :     0.000092  f :     0.000368
      f+1     :     0.000160
      f-1     :     0.000006
      f+2     :     0.000062
      f-2     :     0.000069
      f+3     :    -0.000007
      f-3     :    -0.000013
 12 Crs       :     0.017312  s :     0.017312
      pz      :     0.021815  p :     0.055591
      px      :     0.017261
      py      :     0.016515
      dz2     :     0.724965  d :     3.446335
      dxz     :     0.441384
      dyz     :     0.710202
      dx2y2   :     0.706074
      dxy     :     0.863710
      f0      :     0.000030  f :     0.000113
      f+1     :     0.000044
      f-1     :     0.000006
      f+2     :     0.000015
      f-2     :     0.000011
      f+3     :     0.000003
      f-3     :     0.000005


                      *****************************
                      * MAYER POPULATION ANALYSIS *
                      *****************************

  NA   - Mulliken gross atomic population
  ZA   - Total nuclear charge
  QA   - Mulliken gross atomic charge
  VA   - Mayer's total valence
  BVA  - Mayer's bonded valence
  FA   - Mayer's free valence

  ATOM       NA         ZA         QA         VA         BVA        FA
  0 Au    18.5144    19.0000     0.4856     1.3413     1.3112     0.0301
  1 Au    18.5389    19.0000     0.4611     1.4033     1.3985     0.0048
  2 Au    18.6126    19.0000     0.3874     1.5906     1.5786     0.0120
  3 Au    18.5883    19.0000     0.4117     1.5970     1.5854     0.0116
  4 Au    18.5137    19.0000     0.4863     1.3393     1.3089     0.0303
  5 Au    18.5386    19.0000     0.4614     1.4026     1.3978     0.0049
  6 Au    18.5380    19.0000     0.4620     1.4041     1.3992     0.0048
  7 Au    18.5391    19.0000     0.4609     1.4050     1.4002     0.0048
  8 Au    18.5115    19.0000     0.4885     1.3362     1.3056     0.0305
  9 Au    18.5103    19.0000     0.4897     1.3344     1.3039     0.0305
 10 Au    18.6120    19.0000     0.3880     1.5895     1.5775     0.0120
 11 Au    18.5920    19.0000     0.4080     1.6012     1.5896     0.0116
 12 Cr    29.3908    24.0000    -5.3908    10.2566     6.1570     4.0995

  Mayer bond orders larger than 0.100000
B(  0-Au,  1-Au) :   0.1968 B(  0-Au,  2-Au) :   0.1540 B(  0-Au,  3-Au) :   0.1565 
B(  0-Au,  6-Au) :   0.1858 B(  0-Au, 12-Cr) :   0.4246 B(  1-Au,  3-Au) :   0.1688 
B(  1-Au,  8-Au) :   0.1849 B(  1-Au, 10-Au) :   0.1641 B(  1-Au, 12-Cr) :   0.4926 
B(  2-Au,  4-Au) :   0.1532 B(  2-Au,  5-Au) :   0.1645 B(  2-Au,  6-Au) :   0.1650 
B(  2-Au, 10-Au) :   0.1178 B(  2-Au, 12-Cr) :   0.6235 B(  3-Au,  4-Au) :   0.1559 
B(  3-Au,  7-Au) :   0.1684 B(  3-Au, 11-Au) :   0.1198 B(  3-Au, 12-Cr) :   0.6198 
B(  4-Au,  5-Au) :   0.1862 B(  4-Au,  7-Au) :   0.1963 B(  4-Au, 12-Cr) :   0.4244 
B(  5-Au,  9-Au) :   0.1950 B(  5-Au, 11-Au) :   0.1684 B(  5-Au, 12-Cr) :   0.4930 
B(  6-Au,  8-Au) :   0.1954 B(  6-Au, 11-Au) :   0.1684 B(  6-Au, 12-Cr) :   0.4933 
B(  7-Au,  9-Au) :   0.1848 B(  7-Au, 10-Au) :   0.1647 B(  7-Au, 12-Cr) :   0.4937 
B(  8-Au, 10-Au) :   0.1537 B(  8-Au, 11-Au) :   0.1558 B(  8-Au, 12-Cr) :   0.4243 
B(  9-Au, 10-Au) :   0.1525 B(  9-Au, 11-Au) :   0.1572 B(  9-Au, 12-Cr) :   0.4241 
B( 10-Au, 12-Cr) :   0.6231 B( 11-Au, 12-Cr) :   0.6203 

-------
TIMINGS
-------

Total SCF time: 0 days 0 hours 19 min 35 sec 

Total time                  ....    1175.092 sec
Sum of individual times     ....    1149.381 sec  ( 97.8%)

Fock matrix formation       ....     850.859 sec  ( 72.4%)
  Split-RI-J                ....      86.543 sec  ( 10.2% of F)
  Chain of spheres X        ....     599.772 sec  ( 70.5% of F)
  XC integration            ....      92.420 sec  ( 10.9% of F)
    Basis function eval.    ....      11.411 sec  ( 12.3% of XC)
    Density eval.           ....      34.945 sec  ( 37.8% of XC)
    XC-Functional eval.     ....       1.883 sec  (  2.0% of XC)
    XC-Potential eval.      ....      25.309 sec  ( 27.4% of XC)
Diagonalization             ....     117.936 sec  ( 10.0%)
Density matrix formation    ....       4.757 sec  (  0.4%)
Population analysis         ....       2.583 sec  (  0.2%)
Initial guess               ....       0.492 sec  (  0.0%)
Orbital Transformation      ....       0.000 sec  (  0.0%)
Orbital Orthonormalization  ....       0.275 sec  (  0.0%)
DIIS solution               ....     161.573 sec  ( 13.7%)
Grid generation             ....      11.182 sec  (  1.0%)

Maximum memory used throughout the entire SCF-calculation: 128.6 MB


           ************************************************************
           *        Program running with 6 parallel MPI-processes     *
           *              working on a common directory               *
           ************************************************************

------------------------------------------------------------------------------
                                ORCA  MP2 
------------------------------------------------------------------------------

Freezing NCore=10 chemical core electrons

   <<< Use J-auxbasis for calculation of Separable RI-J derivative contributions (Dim=1157) >>> 


-------------
RI-MP2 ENERGY
-------------
Dimension of the basis                    ...  525
Memory devoted to MP2                     ...  256 MB   
Data format for buffers                   ... DOUBLE
Compression type for matrix containers    ... UNCOMPRESSED
Overall scaling of the MP2 energy         ...   2.700e-01
Calculating two index integrals           ... done (    0.079 sec)
Cholesky decomposition of V**-1           ... done (   19.498 sec)

-----------------
RI-TRANSFORMATION (AUX index driven)
-----------------

Dimension of the orbital-basis         ... 525
Dimension of the aux-basis             ... 1994
Transformation of internal/external MOs...    5- 126 to  127- 524
Number Format for Storage              ... Double (8 Byte)
Integral mode                          ... Direct

First Phase: integral generation and transformation of MO indices
  Aux angular momentum 0               ... done (    0.368 sec)
  Aux angular momentum 1               ... done (    0.676 sec)
  Aux angular momentum 2               ... done (    1.000 sec)
  Aux angular momentum 3               ... done (    0.901 sec)
  Aux angular momentum 4               ... done (    0.648 sec)
  Aux angular momentum 5               ... done (    0.684 sec)
Closing buffer VIA ( 0.72 GB; CompressionRatio= 1.00)
  Phase 1 completed in     5.003 sec
Second Phase: sorting and transformation of aux index

IA-Transformation
Memory available                       ... 176 MB 
Max. # MO pairs treated in a batch     ... 21    
# of internal orbitals                 ... 122
# batches for internal orbitals        ... 1
Closing buffer IAV ( 0.72 GB; CompressionRatio= 1.00)
(ia|v) transformation done in     3.832 sec

  Phase 2 completed in     4.095 sec
RI-Integral transformation completed in     9.214 sec

-----------------
RI-TRANSFORMATION (AUX index driven)
-----------------

Dimension of the orbital-basis         ... 525
Dimension of the aux-basis             ... 1994
Transformation of internal/external MOs...    5- 124 to  125- 524
Number Format for Storage              ... Double (8 Byte)
Integral mode                          ... Direct

First Phase: integral generation and transformation of MO indices
  Aux angular momentum 0               ... done (    0.278 sec)
  Aux angular momentum 1               ... done (    0.694 sec)
  Aux angular momentum 2               ... done (    1.080 sec)
  Aux angular momentum 3               ... done (    0.995 sec)
  Aux angular momentum 4               ... done (    0.710 sec)
  Aux angular momentum 5               ... done (    0.779 sec)
Closing buffer VIA ( 0.71 GB; CompressionRatio= 1.00)
  Phase 1 completed in     5.027 sec
Second Phase: sorting and transformation of aux index

IA-Transformation
Memory available                       ... 176 MB 
Max. # MO pairs treated in a batch     ... 20    
# of internal orbitals                 ... 120
# batches for internal orbitals        ... 1
Closing buffer IAV ( 0.71 GB; CompressionRatio= 1.00)
(ia|v) transformation done in     3.800 sec

  Phase 2 completed in     4.049 sec
RI-Integral transformation completed in     9.184 sec
Opening buffers                              ... done

Starting loop over batches of integrals:

Operator 0  - window                       ... (  5-126)x(127-524)
Operator 0  - Memory available             ...   256 MB
Operator 0  - Memory needed per MO         ...   6.1 MB
Operator 0  - Number of orbitals per batch ... 21
Operator 0  - Number of batches            ... 1

OPERATOR  0   PASS   0:  MOs     5 ...   25 +   26 ...   46 +   47 ...   67 +   68 ...   88
                            +   89 ...  109 +  110 ...  126
  Reading integrals       ... ok
  Internal MO   7
  Internal MO  10
  Internal MO  13
  Internal MO  16
  Internal MO  19
  Internal MO  22
  Internal MO  25

Operator 1  - window                       ... (  5-124)x(125-524)
Operator 1  - Memory available             ...   256 MB
Operator 1  - Memory needed per MO         ...   6.1 MB
Operator 1  - Number of orbitals per batch ... 20
Operator 1  - Number of batches            ... 1

OPERATOR  1   PASS   0:  MOs     5 ...   24 +   25 ...   44 +   45 ...   64 +   65 ...   84
                            +   85 ...  104 +  105 ...  124
  Reading integrals       ... ok
  Internal MO   7
  Internal MO  10
  Internal MO  13
  Internal MO  16
  Internal MO  19
  Internal MO  22
Time spent in pair loops =   253.725 sec
Deleting buffer (Ka|jb)[aa] ...done
Deleting buffer (Ka|jb)[ba] ...done
Deleting buffer (Ka|jb)[ab] ...done
Deleting buffer (Ka|jb)[bb] ...done

Correlation energy components}
 E2 and T2 for alpha/alpha pairs :     -0.372875581 Eh      0.000000000
 E2 and T2 for beta/beta   pairs :     -0.356416487 Eh      0.000000000
 E2 and T2 for alpha/beta  pairs :     -1.225174491 Eh      0.000000000


-----------------------------------------------
 RI-MP2 CORRELATION ENERGY:     -1.954466558 Eh
-----------------------------------------------


-------
TIMINGS
-------

Total time                :  356.230 sec
Integral trafo            :   18.427 sec (  5.2%)
I/O of integrals          :    0.242 sec (  0.1%)
K(i,j) Operators          :  174.708 sec ( 49.0%)
T(i,j) pair energies      :    4.003 sec (  1.1%)
V-calculation             :    0.079 sec (  0.0%)
V**(-1/2)                 :   19.498 sec (  5.5%)
Gamma(ia|P)               :    0.000 sec (  0.0%)
Gamma-Trafo               :    0.000 sec (  0.0%)
D(virtual)                :    0.000 sec (  0.0%)
D(internal)               :    0.000 sec (  0.0%)
W(virtual)                :    0.000 sec (  0.0%)
W(internal)               :    0.000 sec (  0.0%)
L(virtual)                :    0.000 sec (  0.0%)
L(internal)               :    0.000 sec (  0.0%)
G(D)                      :    0.000 sec (  0.0%)
G(Z)                      :    0.000 sec (  0.0%)
Z-Vector Solution         :    0.000 sec (  0.0%)
3-Index Derivative        :    0.000 sec (  0.0%)
2-Index Derivative        :    0.000 sec (  0.0%)
Separable Gradient (RIJ)  :    0.000 sec (  0.0%)
Separable Gradient (COSX) :    0.000 sec (  0.0%)


---------------------------------------
MP2 TOTAL ENERGY:    -2671.302256848 Eh
---------------------------------------

Maximum memory used throughout the entire MP2-calculation: 257.9 MB

-------------------------   --------------------
FINAL SINGLE POINT ENERGY     -2671.302256847988
-------------------------   --------------------


                            ***************************************
                            *     ORCA property calculations      *
                            ***************************************


  WARNING: The energy has been calculated at the MP2 level but the densities
           used in the property calculations are still SCF densities
           MP2 response densities have not been calculated 
           use %mp2 Density relaxed end
           or  %mp2 Density unrelaxed end

                                    ---------------------
                                    Active property flags
                                    ---------------------
   (+) Dipole Moment


------------------------------------------------------------------------------
                       ORCA ELECTRIC PROPERTIES CALCULATION
------------------------------------------------------------------------------

Dipole Moment Calculation                       ... on
Quadrupole Moment Calculation                   ... off
Polarizability Calculation                      ... off
GBWName                                         ... b2plyp_job2.gbw
Electron density                                ... b2plyp_job2.scfp
The origin for moment calculation is the CENTER OF MASS  = (13.374858, 16.860737 15.014498)

-------------
DIPOLE MOMENT
-------------
                                X             Y             Z
Electronic contribution:      0.02093      -0.03469      -0.09486
Nuclear contribution   :     -0.02163       0.03495       0.09549
                        -----------------------------------------
Total Dipole Moment    :     -0.00070       0.00027       0.00063
                        -----------------------------------------
Magnitude (a.u.)       :      0.00098
Magnitude (Debye)      :      0.00249



--------------------
Rotational spectrum 
--------------------
 
Rotational constants in cm-1:     0.001431     0.001327     0.001327 
Rotational constants in MHz :    42.892358    39.779472    39.770916 

 Dipole components along the rotational axes: 
x,y,z [a.u.] :     0.000187     0.000297     0.000915 
x,y,z [Debye]:     0.000475     0.000756     0.002327 

 

Timings for individual modules:

Sum of individual times         ...     1557.392 sec (=  25.957 min)
GTO integral calculation        ...       23.732 sec (=   0.396 min)   1.5 %
SCF iterations                  ...     1175.944 sec (=  19.599 min)  75.5 %
MP2 module                      ...      357.716 sec (=   5.962 min)  23.0 %



                             ****ORCA TERMINATED NORMALLY****
TOTAL RUN TIME: 0 days 1 hours 3 minutes 30 seconds 850 msec
