
                                 *****************
                                 * O   R   C   A *
                                 *****************

                                            #,                                       
                                            ###                                      
                                            ####                                     
                                            #####                                    
                                            ######                                   
                                           ########,                                 
                                     ,,################,,,,,                         
                               ,,#################################,,                 
                          ,,##########################################,,             
                       ,#########################################, ''#####,          
                    ,#############################################,,   '####,        
                  ,##################################################,,,,####,       
                ,###########''''           ''''###############################       
              ,#####''   ,,,,##########,,,,          '''####'''          '####       
            ,##' ,,,,###########################,,,                        '##       
           ' ,,###''''                  '''############,,,                           
         ,,##''                                '''############,,,,        ,,,,,,###''
      ,#''                                            '''#######################'''  
     '                                                          ''''####''''         
             ,#######,   #######,   ,#######,      ##                                
            ,#'     '#,  ##    ##  ,#'     '#,    #''#        ######   ,####,        
            ##       ##  ##   ,#'  ##            #'  '#       #        #'  '#        
            ##       ##  #######   ##           ,######,      #####,   #    #        
            '#,     ,#'  ##    ##  '#,     ,#' ,#      #,         ##   #,  ,#        
             '#######'   ##     ##  '#######'  #'      '#     #####' # '####'        



                  #######################################################
                  #                        -***-                        #
                  #          Department of theory and spectroscopy      #
                  #    Directorship and core code : Frank Neese         #
                  #        Max Planck Institute fuer Kohlenforschung    #
                  #                Kaiser Wilhelm Platz 1               #
                  #                 D-45470 Muelheim/Ruhr               #
                  #                      Germany                        #
                  #                                                     #
                  #                  All rights reserved                #
                  #                        -***-                        #
                  #######################################################


                         Program Version 5.0.3 -  RELEASE  -


 With contributions from (in alphabetic order):
   Daniel Aravena         : Magnetic Suceptibility
   Michael Atanasov       : Ab Initio Ligand Field Theory (pilot matlab implementation)
   Alexander A. Auer      : GIAO ZORA, VPT2 properties, NMR spectrum
   Ute Becker             : Parallelization
   Giovanni Bistoni       : ED, misc. LED, open-shell LED, HFLD
   Martin Brehm           : Molecular dynamics
   Dmytro Bykov           : SCF Hessian
   Vijay G. Chilkuri      : MRCI spin determinant printing, contributions to CSF-ICE
   Dipayan Datta          : RHF DLPNO-CCSD density
   Achintya Kumar Dutta   : EOM-CC, STEOM-CC
   Dmitry Ganyushin       : Spin-Orbit,Spin-Spin,Magnetic field MRCI
   Miquel Garcia          : C-PCM and meta-GGA Hessian, CC/C-PCM, Gaussian charge scheme
   Yang Guo               : DLPNO-NEVPT2, F12-NEVPT2, CIM, IAO-localization
   Andreas Hansen         : Spin unrestricted coupled pair/coupled cluster methods
   Benjamin Helmich-Paris : MC-RPA, TRAH-SCF, COSX integrals
   Lee Huntington         : MR-EOM, pCC
   Robert Izsak           : Overlap fitted RIJCOSX, COSX-SCS-MP3, EOM
   Marcus Kettner         : VPT2
   Christian Kollmar      : KDIIS, OOCD, Brueckner-CCSD(T), CCSD density, CASPT2, CASPT2-K
   Simone Kossmann        : Meta GGA functionals, TD-DFT gradient, OOMP2, MP2 Hessian
   Martin Krupicka        : Initial AUTO-CI
   Lucas Lang             : DCDCAS
   Marvin Lechner         : AUTO-CI (C++ implementation), FIC-MRCC
   Dagmar Lenk            : GEPOL surface, SMD
   Dimitrios Liakos       : Extrapolation schemes; Compound Job, initial MDCI parallelization
   Dimitrios Manganas     : Further ROCIS development; embedding schemes
   Dimitrios Pantazis     : SARC Basis sets
   Anastasios Papadopoulos: AUTO-CI, single reference methods and gradients
   Taras Petrenko         : DFT Hessian,TD-DFT gradient, ASA, ECA, R-Raman, ABS, FL, XAS/XES, NRVS
   Peter Pinski           : DLPNO-MP2, DLPNO-MP2 Gradient
   Christoph Reimann      : Effective Core Potentials
   Marius Retegan         : Local ZFS, SOC
   Christoph Riplinger    : Optimizer, TS searches, QM/MM, DLPNO-CCSD(T), (RO)-DLPNO pert. Triples
   Tobias Risthaus        : Range-separated hybrids, TD-DFT gradient, RPA, STAB
   Michael Roemelt        : Original ROCIS implementation
   Masaaki Saitow         : Open-shell DLPNO-CCSD energy and density
   Barbara Sandhoefer     : DKH picture change effects
   Avijit Sen             : IP-ROCIS
   Kantharuban Sivalingam : CASSCF convergence, NEVPT2, FIC-MRCI
   Bernardo de Souza      : ESD, SOC TD-DFT
   Georgi Stoychev        : AutoAux, RI-MP2 NMR, DLPNO-MP2 response
   Willem Van den Heuvel  : Paramagnetic NMR
   Boris Wezisla          : Elementary symmetry handling
   Frank Wennmohs         : Technical directorship


 We gratefully acknowledge several colleagues who have allowed us to
 interface, adapt or use parts of their codes:
   Stefan Grimme, W. Hujo, H. Kruse, P. Pracht,  : VdW corrections, initial TS optimization,
                  C. Bannwarth, S. Ehlert          DFT functionals, gCP, sTDA/sTD-DF
   Ed Valeev, F. Pavosevic, A. Kumar             : LibInt (2-el integral package), F12 methods
   Garnet Chan, S. Sharma, J. Yang, R. Olivares  : DMRG
   Ulf Ekstrom                                   : XCFun DFT Library
   Mihaly Kallay                                 : mrcc  (arbitrary order and MRCC methods)
   Jiri Pittner, Ondrej Demel                    : Mk-CCSD
   Frank Weinhold                                : gennbo (NPA and NBO analysis)
   Christopher J. Cramer and Donald G. Truhlar   : smd solvation model
   Lars Goerigk                                  : TD-DFT with DH, B97 family of functionals
   V. Asgeirsson, H. Jonsson                     : NEB implementation
   FAccTs GmbH                                   : IRC, NEB, NEB-TS, DLPNO-Multilevel, CI-OPT
                                                   MM, QMMM, 2- and 3-layer-ONIOM, Crystal-QMMM,
                                                   LR-CPCM, SF, NACMEs, symmetry and pop. for TD-DFT,
                                                   nearIR, NL-DFT gradient (VV10), updates on ESD,
                                                   ML-optimized integration grids
   S Lehtola, MJT Oliveira, MAL Marques          : LibXC Library
   Liviu Ungur et al                             : ANISO software


 Your calculation uses the libint2 library for the computation of 2-el integrals
 For citations please refer to: http://libint.valeyev.net

 Your ORCA version has been built with support for libXC version: 5.1.0
 For citations please refer to: https://tddft.org/programs/libxc/

 This ORCA versions uses:
   CBLAS   interface :  Fast vector & matrix operations
   LAPACKE interface :  Fast linear algebra routines
   SCALAPACK package :  Parallel linear algebra routines
   Shared memory     :  Shared parallel matrices
   BLAS/LAPACK       :  OpenBLAS 0.3.15  USE64BITINT DYNAMIC_ARCH NO_AFFINITY Haswell SINGLE_THREADED
        Core in use  :  Haswell
   Copyright (c) 2011-2014, The OpenBLAS Project




***************************************
The coordinates will be read from file: pbe.xyz
***************************************


================================================================================

cite the ECPs for Au [Def2-ECP] as follows:
Ce-Yb(ecp-28): M. Dolg, H. Stoll, H.Preuss, J. Chem. Phys., 1989, 90, 1730-1734.
Y-Cd(ecp-28), Hf-Hg(ecp-46): D. Andrae,U. Haeussermann, M. Dolg, H. Stoll, H. Preuss, Theor. Chim. Acta, 1990, 77, 123-141.
In-Sb(ecp-28), Tl-Bi(ecp-46): B. Metz, H. Stoll, M. Dolg, J. Chem. Phys., 2000, 113, 2563-2569.
Te-Xe(ecp-28), Po-Rn(ecp-46): K. A. Peterson, D. Figgen, E. Goll, H. Stoll, M. Dolg, J. Chem. Phys., 2003, 119, 11113-11123.
Rb(ecp-28), Cs(ecp-46): T. Leininger, A. Nicklass, W. Kuechle, H. Stoll, M. Dolg, A. Bergner, Chem. Phys. Lett., 1996, 255, 274-280.
Sr(ecp-28), Ba(ecp-46): M. Kaupp, P. V. Schleyer, H. Stoll and H. Preuss, J. Chem. Phys., 1991, 94, 1360-1366.
La(ecp-46): M. Dolg, H. Stoll, A. Savin, H. Preuss, Theor. Chim. Acta, 1989, 75, 173-194.
Lu(ecp-28): X. Cao, M. Dolg, J. Chem. Phys., 2001, 115, 7348-7355.

ECP parameters for Au [Def2-ECP] have been obtained from:
TURBOMOLE (7.0.2)

----- Orbital basis set information -----
Your calculation utilizes the basis: def2-TZVP
   F. Weigend and R. Ahlrichs, Phys. Chem. Chem. Phys. 7, 3297 (2005).

----- AuxJ basis set information -----
Your calculation utilizes the auxiliary basis: def2/J
   F. Weigend, Phys. Chem. Chem. Phys. 8, 1057 (2006).

----- AuxC basis set information -----
Your calculation utilizes the auxiliary basis: def2-TZVP/C
  H-La, Hf-Rn : A. Hellweg, C. Hattig, S. Hofener and W. Klopper, Theor. Chem. Acc. 117, 587 (2007).
        Ce-Lu : J. Chmela and M. E. Harding, Mol. Phys. (2018).

================================================================================
                                        WARNINGS
                       Please study these warnings very carefully!
================================================================================


IMPORTANT NOTE: CASSCF must signal convergence for a subsequent CASPT2/NEVPT2! 
                Set maxiter=1 to run CASPT2/NEVPT2 with arbitrary orbitals.


INFO   : the flag for use of the SHARK integral package has been found!

================================================================================
                                       INPUT FILE
================================================================================
NAME = nevpt2.inp
|  1> !SC-NEVPT2 def2-TZVP def2-TZVP/C
|  2> !MOREAD RIJCOSX def2/J
|  3> %maxcore 4000
|  4> %moinp "casscf.gbw"
|  5> %pal nprocs 8 end 
|  6> 
|  7> %casscf
|  8>  mult 5,3
|  9>  bweight 1,1
| 10>  nroots 5,45
| 11>  nel 6
| 12>  norb 5
| 13>  ptsettings
| 14>   d4tpre 1e-14 # default = 1e-10
| 15>   d3tpre 1e-14
| 16>  end
| 17>  rel           
| 18>    dosoc true   
| 19>    gtensor true 
| 20>  end           
| 21> end
| 22> 
| 23> 
| 24> *xyzfile 0 5 pbe.xyz
| 25> 
| 26> 
| 27>                          ****END OF INPUT****
================================================================================

                       ****************************
                       * Single Point Calculation *
                       ****************************

---------------------------------
CARTESIAN COORDINATES (ANGSTROEM)
---------------------------------
  Au     8.774593    5.312964   11.069863
  Au     6.391537    4.385235    9.894776
  Au     7.763016    3.379600    7.743069
  Au    10.224859    4.253261    8.791593
  Au    10.644535    6.729138    7.768871
  Au     8.311835    5.358054    5.973885
  Au     8.613205    7.958316    6.086615
  Au     9.149954    7.854868   10.202518
  Au    10.061246    9.396553    8.113532
  Au     8.276228   10.648704    6.432977
  Au     6.036970    7.059322    9.639675
  Au     7.223895    9.005093    8.348705
  Cr     8.203061    5.984823    8.549332

----------------------------
CARTESIAN COORDINATES (A.U.)
----------------------------
  NO LB      ZA    FRAG     MASS         X           Y           Z
   0 Au   19.0000*   0   196.966   16.581577   10.040046   20.919010
   1 Au   19.0000*   0   196.966   12.078254    8.286893   18.698417
   2 Au   19.0000*   0   196.966   14.669974    6.386519   14.632279
   3 Au   19.0000*   0   196.966   19.322183    8.037498   16.613702
   4 Au   19.0000*   0   196.966   20.115257   12.716229   14.681039
   5 Au   19.0000*   0   196.966   15.707091   10.125255   11.289007
   6 Au   19.0000*   0   196.966   16.276598   15.039038   11.502036
   7 Au   19.0000*   0   196.966   17.290907   14.843550   19.279964
   8 Au   19.0000*   0   196.966   19.013000   17.756912   15.332353
   9 Au   19.0000*   0   196.966   15.639804   20.123135   12.156565
  10 Au   19.0000*   0   196.966   11.408219   13.340186   18.216345
  11 Au   19.0000*   0   196.966   13.651182   17.017160   15.776766
  12 Cr   24.0000    0    52.000   15.501538   11.309677   16.155895
* core charge reduced due to ECP

--------------------------------
INTERNAL COORDINATES (ANGSTROEM)
--------------------------------
 Au     0   0   0     0.000000000000     0.00000000     0.00000000
 Au     1   0   0     2.814332162481     0.00000000     0.00000000
 Au     2   1   0     2.742645187966    91.43343435     0.00000000
 Au     3   2   1     2.814845455627    91.79384074   359.90554692
 Au     4   3   2     2.711467699154   106.15736176   268.22156174
 Au     3   2   1     2.710256736223   110.22597437   279.08976657
 Au     6   3   2     2.620094076425   136.02707495    25.31640740
 Au     1   2   3     2.711911255409   107.01611760    90.97273986
 Au     8   1   2     2.751564757239   144.47121694   279.32267905
 Au     7   6   3     2.733442754199   165.48243311   299.56515493
 Au     2   1   3     2.709527102147    79.90880060   249.22765241
 Au    11   2   1     2.619430782647   136.07197475    64.26450123
 Cr    11   2   1     2.652422787452    62.09768415    57.43540981

---------------------------
INTERNAL COORDINATES (A.U.)
---------------------------
 Au     0   0   0     0.000000000000     0.00000000     0.00000000
 Au     1   0   0     5.318317036975     0.00000000     0.00000000
 Au     2   1   0     5.182848287773    91.43343435     0.00000000
 Au     3   2   1     5.319287020447    91.79384074   359.90554692
 Au     4   3   2     5.123931372374   106.15736176   268.22156174
 Au     3   2   1     5.121642984076   110.22597437   279.08976657
 Au     6   3   2     4.951260249552   136.02707495    25.31640740
 Au     1   2   3     5.124769572221   107.01611760    90.97273986
 Au     8   1   2     5.199703830932   144.47121694   279.32267905
 Au     7   6   3     5.165458208188   165.48243311   299.56515493
 Au     2   1   3     5.120264175496    79.90880060   249.22765241
 Au    11   2   1     4.950006805966   136.07197475    64.26450123
 Cr    11   2   1     5.012352659657    62.09768415    57.43540981

---------------------
BASIS SET INFORMATION
---------------------
There are 2 groups of distinct atoms

 Group   1 Type Au  : 8s7p6d1f contracted to 6s4p3d1f pattern {311111/4111/411/1}
 Group   2 Type Cr  : 17s11p7d1f contracted to 6s4p4d1f pattern {842111/6311/4111/1}

Atom   0Au   basis set group =>   1
Atom   1Au   basis set group =>   1
Atom   2Au   basis set group =>   1
Atom   3Au   basis set group =>   1
Atom   4Au   basis set group =>   1
Atom   5Au   basis set group =>   1
Atom   6Au   basis set group =>   1
Atom   7Au   basis set group =>   1
Atom   8Au   basis set group =>   1
Atom   9Au   basis set group =>   1
Atom  10Au   basis set group =>   1
Atom  11Au   basis set group =>   1
Atom  12Cr   basis set group =>   2
---------------------------------
AUXILIARY/J BASIS SET INFORMATION
---------------------------------
There are 2 groups of distinct atoms

 Group   1 Type Au  : 11s5p5d3f3g contracted to 8s5p5d2f3g pattern {41111111/11111/11111/21/111}
 Group   2 Type Cr  : 19s5p5d3f3g contracted to 8s5p5d2f3g pattern {121111111/11111/11111/21/111}

Atom   0Au   basis set group =>   1
Atom   1Au   basis set group =>   1
Atom   2Au   basis set group =>   1
Atom   3Au   basis set group =>   1
Atom   4Au   basis set group =>   1
Atom   5Au   basis set group =>   1
Atom   6Au   basis set group =>   1
Atom   7Au   basis set group =>   1
Atom   8Au   basis set group =>   1
Atom   9Au   basis set group =>   1
Atom  10Au   basis set group =>   1
Atom  11Au   basis set group =>   1
Atom  12Cr   basis set group =>   2
---------------------------------
AUXILIARY/C BASIS SET INFORMATION
---------------------------------
There are 2 groups of distinct atoms

 Group   1 Type Au  : 8s8p7d5f3g2h contracted to 8s8p7d5f3g2h pattern {11111111/11111111/1111111/11111/111/11}
 Group   2 Type Cr  : 11s9p8d6f5g2h contracted to 9s8p8d6f5g2h pattern {311111111/21111111/11111111/111111/11111/11}

Atom   0Au   basis set group =>   1
Atom   1Au   basis set group =>   1
Atom   2Au   basis set group =>   1
Atom   3Au   basis set group =>   1
Atom   4Au   basis set group =>   1
Atom   5Au   basis set group =>   1
Atom   6Au   basis set group =>   1
Atom   7Au   basis set group =>   1
Atom   8Au   basis set group =>   1
Atom   9Au   basis set group =>   1
Atom  10Au   basis set group =>   1
Atom  11Au   basis set group =>   1
Atom  12Cr   basis set group =>   2
-------------------------
ECP PARAMETER INFORMATION
-------------------------

 Group 1, Type Au ECP Def2-ECP (replacing 60 core electrons, lmax=3)

Atom   0Au   ECP group =>   1
Atom   1Au   ECP group =>   1
Atom   2Au   ECP group =>   1
Atom   3Au   ECP group =>   1
Atom   4Au   ECP group =>   1
Atom   5Au   ECP group =>   1
Atom   6Au   ECP group =>   1
Atom   7Au   ECP group =>   1
Atom   8Au   ECP group =>   1
Atom   9Au   ECP group =>   1
Atom  10Au   ECP group =>   1
Atom  11Au   ECP group =>   1



           ************************************************************
           *        Program running with 8 parallel MPI-processes     *
           *              working on a common directory               *
           ************************************************************
------------------------------------------------------------------------------
                           ORCA GTO INTEGRAL CALCULATION
                           -- RI-GTO INTEGRALS CHOSEN --
------------------------------------------------------------------------------
------------------------------------------------------------------------------
                   ___                                                        
                  /   \      - P O W E R E D   B Y -                         
                 /     \                                                     
                 |  |  |   _    _      __       _____    __    __             
                 |  |  |  | |  | |    /  \     |  _  \  |  |  /  |          
                  \  \/   | |  | |   /    \    | | | |  |  | /  /          
                 / \  \   | |__| |  /  /\  \   | |_| |  |  |/  /          
                |  |  |   |  __  | /  /__\  \  |    /   |      \           
                |  |  |   | |  | | |   __   |  |    \   |  |\   \          
                \     /   | |  | | |  |  |  |  | |\  \  |  | \   \       
                 \___/    |_|  |_| |__|  |__|  |_| \__\ |__|  \__/        
                                                                              
                      - O R C A' S   B I G   F R I E N D -                    
                                      &                                       
                       - I N T E G R A L  F E E D E R -                       
                                                                              
 v1 FN, 2020, v2 2021                                                         
------------------------------------------------------------------------------


Reading SHARK input file nevpt2.SHARKINP.tmp ... ok
----------------------
SHARK INTEGRAL PACKAGE
----------------------

Number of atoms                             ...     13
Number of basis functions                   ...    525
Number of shells                            ...    183
Maximum angular momentum                    ...      3
Integral batch strategy                     ... SHARK/LIBINT Hybrid
RI-J (if used) integral strategy            ... SPLIT-RIJ (Revised 2003 algorithm where possible)
Printlevel                                  ...      1
Contraction scheme used                     ... SEGMENTED contraction
Coulomb Range Separation                    ... NOT USED
Exchange Range Separation                   ... NOT USED
Finite Nucleus Model                        ... NOT USED
Auxiliary Coulomb fitting basis             ... AVAILABLE
   # of basis functions in Aux-J            ...   1157
   # of shells in Aux-J                     ...    299
   Maximum angular momentum in Aux-J        ...      4
Auxiliary J/K fitting basis                 ... NOT available
Auxiliary Correlation fitting basis         ... AVAILABLE
   # of basis functions in Aux-C            ...   1994
   # of shells in Aux-C                     ...    434
   Maximum angular momentum in Aux-C        ...      5
Auxiliary 'external' fitting basis          ... NOT available
Integral threshold                          ...     1.000000e-10
Primitive cut-off                           ...     1.000000e-11
Primitive pair pre-selection threshold      ...     1.000000e-11

Calculating pre-screening integrals         ... done (  0.1 sec) Dimension = 183
Organizing shell pair data                  ... done (  0.2 sec)
Shell pair information
Total number of shell pairs                 ...     16836
Shell pairs after pre-screening             ...     13418
Total number of primitive shell pairs       ...     45389
Primitive shell pairs kept                  ...     26399
          la=0 lb=0:   2103 shell pairs
          la=1 lb=0:   3058 shell pairs
          la=1 lb=1:   1159 shell pairs
          la=2 lb=0:   2654 shell pairs
          la=2 lb=1:   1880 shell pairs
          la=2 lb=2:    777 shell pairs
          la=3 lb=0:    717 shell pairs
          la=3 lb=1:    536 shell pairs
          la=3 lb=2:    460 shell pairs
          la=3 lb=3:     74 shell pairs

Calculating one electron integrals          ... done (  0.0 sec)
Calculating ECP integrals                   ... done (  6.0 sec)
Calculating RI/J V-Matrix + Cholesky decomp.... done (  0.0 sec)
Calculating RI/C V-Matrix + Cholesky decomp.... done (  0.1 sec)
Calculating Nuclear repulsion               ... done (  0.0 sec) ENN=   4206.855843954926 Eh

SHARK setup successfully completed in   6.7 seconds

Maximum memory used throughout the entire GTOINT-calculation: 35.1 MB


           ************************************************************
           *        Program running with 8 parallel MPI-processes     *
           *              working on a common directory               *
           ************************************************************
-------------------------------------------------------------------------------
                                 ORCA SCF
-------------------------------------------------------------------------------

------------
SCF SETTINGS
------------
Hamiltonian:
 Ab initio Hamiltonian  Method          .... Hartree-Fock(GTOs)
 RI-approximation to the Coulomb term is turned on
   Number of AuxJ basis functions       .... 1157
   RIJ-COSX (HFX calculated with COS-X)).... on


General Settings:
 Integral files         IntName         .... nevpt2
 Hartree-Fock type      HFTyp           .... CASSCF
 Total Charge           Charge          ....    0
 Multiplicity           Mult            ....    5
 Number of Electrons    NEL             ....  252
 Basis Dimension        Dim             ....  525
 Nuclear Repulsion      ENuc            ....   4206.8558439549 Eh


Diagonalization of the overlap matrix:
Smallest eigenvalue                        ... 2.915e-04
Time for diagonalization                   ...    0.053 sec
Threshold for overlap eigenvalues          ... 1.000e-08
Number of eigenvalues below threshold      ... 0
Time for construction of square roots      ...    0.033 sec
Total time needed                          ...    0.087 sec

---------------------
INITIAL GUESS: MOREAD
---------------------
Guess MOs are being read from file: casscf.gbw
Input Geometry matches current geometry (good)
Input basis set matches current basis set (good)
MOs were renormalized
Gram-Schmidt orthogonalization of all MOs with pivot on actives
                      ------------------
                      INITIAL GUESS DONE (   1.3 sec)
                      ------------------
--------------------
COSX GRID GENERATION
--------------------

GRIDX 1
-------
General Integration Accuracy     IntAcc      ... 3.816
Radial Grid Type                 RadialGrid  ... OptM3 with GC (2021)
Angular Grid (max. ang.)         AngularGrid ... 1 (Lebedev-50)
Angular grid pruning method      GridPruning ... 4 (adaptive)
Weight generation scheme         WeightScheme... Becke
Basis function cutoff            BFCut       ... 1.0000e-10
Integration weight cutoff        WCut        ... 1.0000e-14
Angular grids for H and He will be reduced by one unit
Partially contracted basis set               ... on
Rotationally invariant grid construction     ... off

Total number of grid points                  ...    15243
Total number of batches                      ...      244
Average number of points per batch           ...       62
Average number of grid points per atom       ...     1173
UseSFitting                                  ... on

GRIDX 2
-------
General Integration Accuracy     IntAcc      ... 4.020
Radial Grid Type                 RadialGrid  ... OptM3 with GC (2021)
Angular Grid (max. ang.)         AngularGrid ... 2 (Lebedev-110)
Angular grid pruning method      GridPruning ... 4 (adaptive)
Weight generation scheme         WeightScheme... Becke
Basis function cutoff            BFCut       ... 1.0000e-10
Integration weight cutoff        WCut        ... 1.0000e-14
Angular grids for H and He will be reduced by one unit
Partially contracted basis set               ... on
Rotationally invariant grid construction     ... off

Total number of grid points                  ...    46125
Total number of batches                      ...      728
Average number of points per batch           ...       63
Average number of grid points per atom       ...     3548
UseSFitting                                  ... on

GRIDX 3
-------
General Integration Accuracy     IntAcc      ... 4.338
Radial Grid Type                 RadialGrid  ... OptM3 with GC (2021)
Angular Grid (max. ang.)         AngularGrid ... 3 (Lebedev-194)
Angular grid pruning method      GridPruning ... 4 (adaptive)
Weight generation scheme         WeightScheme... Becke
Basis function cutoff            BFCut       ... 1.0000e-10
Integration weight cutoff        WCut        ... 1.0000e-14
Angular grids for H and He will be reduced by one unit
Partially contracted basis set               ... on
Rotationally invariant grid construction     ... off

Total number of grid points                  ...    84513
Total number of batches                      ...     1327
Average number of points per batch           ...       63
Average number of grid points per atom       ...     6501
UseSFitting                                  ... on

Time for X-Grid setup             =    0.951 sec



 ... the calculation is a CASSCF calculation -I'm leaving here GOOD LUCK!!!



           ************************************************************
           *        Program running with 8 parallel MPI-processes     *
           *              working on a common directory               *
           ************************************************************
-------------------------------------------------------------------------------
                              ORCA-CASSCF
-------------------------------------------------------------------------------

Setting up the integral package       ... done
Setting up the integral package (RI)  ... done
Building the CAS space                ... done (5 configurations for Mult=5)
Building the CAS space                ... done (35 configurations for Mult=3)

 CASSCF (estimated) memory needed     ... 113.4 MB
 NEVPT2 (estimated) memory needed     ... 373.7 MB


SYSTEM-SPECIFIC SETTINGS:
Number of active electrons          ...    6
Number of active orbitals           ...    5
Total number of electrons           ...  252
Total number of orbitals            ...  525
Total number aux. functions         ... 1994

Determined orbital ranges:
   Internal       0 -  122 ( 123 orbitals)
   Active       123 -  127 (   5 orbitals)
   External     128 -  524 ( 397 orbitals)
Number of rotation parameters      ...  51431

CI-STEP:
CI strategy                         ... General CI
Number of multiplicity blocks       ...    2
BLOCK  1 WEIGHT=   0.5000
  Multiplicity                      ...    5
  #(Configurations)                 ...    5
  #(CSFs)                           ...    5
  #(Roots)                          ...    5
    ROOT=0 WEIGHT=    0.100000
    ROOT=1 WEIGHT=    0.100000
    ROOT=2 WEIGHT=    0.100000
    ROOT=3 WEIGHT=    0.100000
    ROOT=4 WEIGHT=    0.100000

BLOCK  2 WEIGHT=   0.5000
  Multiplicity                      ...    3
  #(Configurations)                 ...   35
  #(CSFs)                           ...   45
  #(Roots)                          ...   45
    ROOT=0 WEIGHT=    0.011111
    ROOT=1 WEIGHT=    0.011111
    ROOT=2 WEIGHT=    0.011111
    ROOT=3 WEIGHT=    0.011111
    ROOT=4 WEIGHT=    0.011111
    ROOT=5 WEIGHT=    0.011111
    ROOT=6 WEIGHT=    0.011111
    ROOT=7 WEIGHT=    0.011111
    ROOT=8 WEIGHT=    0.011111
    ROOT=9 WEIGHT=    0.011111
    ROOT=10 WEIGHT=    0.011111
    ROOT=11 WEIGHT=    0.011111
    ROOT=12 WEIGHT=    0.011111
    ROOT=13 WEIGHT=    0.011111
    ROOT=14 WEIGHT=    0.011111
    ROOT=15 WEIGHT=    0.011111
    ROOT=16 WEIGHT=    0.011111
    ROOT=17 WEIGHT=    0.011111
    ROOT=18 WEIGHT=    0.011111
    ROOT=19 WEIGHT=    0.011111
    ROOT=20 WEIGHT=    0.011111
    ROOT=21 WEIGHT=    0.011111
    ROOT=22 WEIGHT=    0.011111
    ROOT=23 WEIGHT=    0.011111
    ROOT=24 WEIGHT=    0.011111
    ROOT=25 WEIGHT=    0.011111
    ROOT=26 WEIGHT=    0.011111
    ROOT=27 WEIGHT=    0.011111
    ROOT=28 WEIGHT=    0.011111
    ROOT=29 WEIGHT=    0.011111
    ROOT=30 WEIGHT=    0.011111
    ROOT=31 WEIGHT=    0.011111
    ROOT=32 WEIGHT=    0.011111
    ROOT=33 WEIGHT=    0.011111
    ROOT=34 WEIGHT=    0.011111
    ROOT=35 WEIGHT=    0.011111
    ROOT=36 WEIGHT=    0.011111
    ROOT=37 WEIGHT=    0.011111
    ROOT=38 WEIGHT=    0.011111
    ROOT=39 WEIGHT=    0.011111
    ROOT=40 WEIGHT=    0.011111
    ROOT=41 WEIGHT=    0.011111
    ROOT=42 WEIGHT=    0.011111
    ROOT=43 WEIGHT=    0.011111
    ROOT=44 WEIGHT=    0.011111

  PrintLevel                        ...    1
  N(GuessMat)                       ...       512
  MaxDim(CI)                        ...        10
  MaxIter(CI)                       ...        64
  Energy Tolerance CI               ...  1.00e-08
  Residual Tolerance CI             ...  1.00e-08
  Shift(CI)                         ...  1.00e-04

INTEGRAL-TRANSFORMATION-STEP:
  Algorithm                         ... RI-MO

ORBITAL-IMPROVEMENT-STEP:
  Algorithm                         ... SuperCI(PT)
  Default Parametrization           ... CAYLEY
  Act-Act rotations                 ... depends on algorithm used

  Note: SuperCI(PT) will ignore FreezeIE, FreezeAct and FreezeGrad. In general Default settings are encouraged.
        In conjunction with ShiftUp, ShiftDn or GradScaling the performance of SuperCI(PT) is less optimal.  

  MaxRot                            ... 2.00e-01 
  Max. no of vectors (DIIS)         ... 15
  DThresh (cut-off) metric          ... 1.00e-06
  Switch step at gradient           ...  3.00e-02 
  Switch step at iteration          ...        50   
  Switch step to                    ... SuperCI(PT)    

SCF-SETTINGS:
  Incremental                       ... off
  RIJCOSX approximation             ... on
  UseFinalGrid                      ... on
  RI-JK approximation               ... off
  AO integral handling              ... DIRECT
  Integral Neglect Thresh           ...  1.00e-10
  Primitive cutoff TCut             ...  1.00e-11
  Energy convergence tolerance      ...  1.00e-07
  Orbital gradient convergence      ...  1.00e-03
  Max. number of iterations         ...        75  

PT2-SETTINGS:
  A PT2 calculation will be performed on top of the CASSCF wave function (PT2 = SC-NEVPT2)   
 CI step strategy                   ... General CI
  D4C handling                      ... on the fly 
  CI truncation for D4C at          ...  1.00e-14
  CI truncation for D3  at          ...  1.00e-14
  Orbitals                          ... canonical for each state 
  Last  frozen  orbital             ... 4
  First deleted orbital             ... 525
  RI Step                           ... store IJV(array) (MC_ONDISK during integral transformation) 

PROPERTIES-SETTINGS:
  Spin orbit coupling               ... true
  GTensor                           ... true
  QDPT diagonal energies            ... NEVPT2 energies 

FINAL ORBITALS:
  Active   Orbitals                 ... natural 
  Internal Orbitals                 ... canonical 
  External Orbitals                 ... canonical 

------------------
CAS-SCF ITERATIONS
------------------


MACRO-ITERATION   1: 
   --- Inactive Energy E0 = -2652.56817791 Eh
CI-ITERATION   0: 
 -2660.946261133   0.000000000000 (    0.00)
 -2660.932879307   0.000000000000
 -2660.908616209   0.000000000000
 -2660.886806909   0.000000000000
 -2660.858597269   0.000000000000
   CI-PROBLEM SOLVED
   DENSITIES MADE
CI-ITERATION   0: 
 -2660.954657247   0.000000000000 (    0.00)
 -2660.923492837   0.000000000000
 -2660.907385441   0.000000000000
 -2660.903965086   0.000000000000
 -2660.897256814   0.000000000000
 -2660.895970950   0.000000000000
 -2660.895617844   0.000000000000
 -2660.889870908   0.000000000000
 -2660.880929005   0.000000000000
 -2660.875562937   0.000000000000
 -2660.871486649   0.000000000000
 -2660.868920095   0.000000000000
 -2660.866599848   0.000000000000
 -2660.865723083   0.000000000000
 -2660.863013878   0.000000000000
 -2660.861269947   0.000000000000
 -2660.855129415   0.000000000000
 -2660.843894711   0.000000000000
 -2660.842150084   0.000000000000
 -2660.832687402   0.000000000000
 -2660.824479244   0.000000000000
 -2660.813772455   0.000000000000
 -2660.807498100   0.000000000000
 -2660.806217822   0.000000000000
 -2660.800112065   0.000000000000
 -2660.796511267   0.000000000000
 -2660.794525741   0.000000000000
 -2660.790671577   0.000000000000
 -2660.770890009   0.000000000000
 -2660.769223548   0.000000000000
 -2660.752702417   0.000000000000
 -2660.748498685   0.000000000000
 -2660.747487903   0.000000000000
 -2660.727076184   0.000000000000
 -2660.710861521   0.000000000000
 -2660.691033586   0.000000000000
 -2660.685047294   0.000000000000
 -2660.677313640   0.000000000000
 -2660.655909237   0.000000000000
 -2660.622007501   0.000000000000
 -2660.592404325   0.000000000000
 -2660.575506992   0.000000000000
 -2660.436842877   0.000000000000
 -2660.423932507   0.000000000000
 -2660.369907966   0.000000000000
   CI-PROBLEM SOLVED
   DENSITIES MADE

                 <<<<<<<<<<<<<<<<<<INITIAL CI STATE CHECK>>>>>>>>>>>>>>>>>>

BLOCK  1 MULT= 5 NROOTS= 5 
ROOT   0:  E=   -2660.9462611325 Eh
      0.76731 [     2]: 11211
      0.22631 [     0]: 11112
      0.00455 [     4]: 21111
ROOT   1:  E=   -2660.9328793068 Eh  0.364 eV   2937.0 cm**-1
      0.57138 [     4]: 21111
      0.29090 [     0]: 11112
      0.12670 [     2]: 11211
      0.00611 [     3]: 12111
      0.00491 [     1]: 11121
ROOT   2:  E=   -2660.9086162089 Eh  1.024 eV   8262.1 cm**-1
      0.83653 [     1]: 11121
      0.10641 [     0]: 11112
      0.04002 [     4]: 21111
      0.01469 [     2]: 11211
ROOT   3:  E=   -2660.8868069089 Eh  1.618 eV  13048.7 cm**-1
      0.38328 [     4]: 21111
      0.37025 [     0]: 11112
      0.15107 [     1]: 11121
      0.09065 [     2]: 11211
      0.00475 [     3]: 12111
ROOT   4:  E=   -2660.8585972686 Eh  2.385 eV  19240.0 cm**-1
      0.98639 [     3]: 12111
      0.00614 [     0]: 11112
      0.00607 [     1]: 11121

BLOCK  2 MULT= 3 NROOTS=45 
ROOT   0:  E=   -2660.9546572466 Eh
      0.23496 [    24]: 20211
      0.20774 [     7]: 10212
      0.11239 [     1]: 01212
      0.07583 [     5]: 02211
      0.07365 [    13]: 11211
      0.07041 [    31]: 21210
      0.05437 [    22]: 20112
      0.04488 [    21]: 12210
      0.03844 [    28]: 21111
      0.02569 [    18]: 12111
      0.02371 [     3]: 02112
      0.02018 [    10]: 11112
      0.00774 [    15]: 12012
      0.00508 [    25]: 21012
ROOT   1:  E=   -2660.9234928374 Eh  0.848 eV   6839.8 cm**-1
      0.31236 [    23]: 20121
      0.18701 [     6]: 10122
      0.10757 [    22]: 20112
      0.07268 [     8]: 10221
      0.06712 [     4]: 02121
      0.03934 [    19]: 12120
      0.03642 [    29]: 21120
      0.03094 [     0]: 01122
      0.02528 [    28]: 21111
      0.02111 [    24]: 20211
      0.02003 [    11]: 11121
      0.01112 [    16]: 12021
      0.01030 [     2]: 01221
      0.00937 [    18]: 12111
      0.00807 [    34]: 22110
      0.00677 [    14]: 11220
      0.00610 [    10]: 11112
      0.00581 [    26]: 21021
      0.00409 [     3]: 02112
      0.00270 [     9]: 11022
      0.00266 [    31]: 21210
      0.00264 [    25]: 21012
ROOT   2:  E=   -2660.9073854415 Eh  1.286 eV  10375.0 cm**-1
      0.37969 [    26]: 21021
      0.20323 [     9]: 11022
      0.15553 [    11]: 11121
      0.09752 [    29]: 21120
      0.07324 [    16]: 12021
      0.02066 [    19]: 12120
      0.01673 [    14]: 11220
      0.00981 [    22]: 20112
      0.00629 [    32]: 22011
      0.00584 [    18]: 12111
      0.00476 [    15]: 12012
      0.00323 [    28]: 21111
      0.00322 [    31]: 21210
      0.00290 [     8]: 10221
      0.00253 [     0]: 01122
ROOT   3:  E=   -2660.9039650864 Eh  1.379 eV  11125.6 cm**-1
      0.43159 [    22]: 20112
      0.12620 [    24]: 20211
      0.08143 [    10]: 11112
      0.07745 [    23]: 20121
      0.05940 [     3]: 02112
      0.03129 [    28]: 21111
      0.02900 [    13]: 11211
      0.02395 [     6]: 10122
      0.01802 [    18]: 12111
      0.01645 [     5]: 02211
      0.01385 [     4]: 02121
      0.01085 [    26]: 21021
      0.00943 [     8]: 10221
      0.00920 [    31]: 21210
      0.00896 [    34]: 22110
      0.00817 [     9]: 11022
      0.00673 [    15]: 12012
      0.00642 [    16]: 12021
      0.00557 [    21]: 12210
      0.00472 [    25]: 21012
      0.00460 [    19]: 12120
      0.00372 [     0]: 01122
      0.00293 [    11]: 11121
ROOT   4:  E=   -2660.8972568141 Eh  1.562 eV  12597.9 cm**-1
      0.40197 [    28]: 21111
      0.20008 [    10]: 11112
      0.08081 [    34]: 22110
      0.07795 [    13]: 11211
      0.07196 [    18]: 12111
      0.04630 [     3]: 02112
      0.01947 [    23]: 20121
      0.01738 [    32]: 22011
      0.01711 [    22]: 20112
      0.01606 [     5]: 02211
      0.01317 [    21]: 12210
      0.00811 [     6]: 10122
      0.00609 [    24]: 20211
      0.00529 [    15]: 12012
      0.00278 [     4]: 02121
ROOT   5:  E=   -2660.8959709504 Eh  1.597 eV  12880.2 cm**-1
      0.26423 [     7]: 10212
      0.17324 [    13]: 11211
      0.09216 [    24]: 20211
      0.07733 [     8]: 10221
      0.06630 [    10]: 11112
      0.05276 [    21]: 12210
      0.03685 [    22]: 20112
      0.03573 [     5]: 02211
      0.03054 [    31]: 21210
      0.02844 [     6]: 10122
      0.02690 [     1]: 01212
      0.02454 [    18]: 12111
      0.01650 [    12]: 11202
      0.01483 [    28]: 21111
      0.01364 [     2]: 01221
      0.00867 [     3]: 02112
      0.00707 [    30]: 21201
      0.00686 [    15]: 12012
      0.00536 [     9]: 11022
      0.00420 [    14]: 11220
      0.00405 [     0]: 01122
      0.00349 [    27]: 21102
ROOT   6:  E=   -2660.8956178437 Eh  1.607 eV  12957.7 cm**-1
      0.24539 [    13]: 11211
      0.18925 [     1]: 01212
      0.11348 [    31]: 21210
      0.09725 [    28]: 21111
      0.09674 [    24]: 20211
      0.06715 [    10]: 11112
      0.03752 [    14]: 11220
      0.02790 [     2]: 01221
      0.02704 [    11]: 11121
      0.02395 [    22]: 20112
      0.02037 [     5]: 02211
      0.01736 [    25]: 21012
      0.01100 [     0]: 01122
      0.00870 [    12]: 11202
      0.00319 [     9]: 11022
      0.00291 [     3]: 02112
      0.00251 [     8]: 10221
ROOT   7:  E=   -2660.8898709079 Eh  1.763 eV  14219.0 cm**-1
      0.16547 [    28]: 21111
      0.11365 [     8]: 10221
      0.09189 [    13]: 11211
      0.08039 [    21]: 12210
      0.06009 [     1]: 01212
      0.05747 [    20]: 12201
      0.05304 [     5]: 02211
      0.04386 [    12]: 11202
      0.03742 [     2]: 01221
      0.03588 [    31]: 21210
      0.03496 [     6]: 10122
      0.03419 [    25]: 21012
      0.02777 [    18]: 12111
      0.02625 [    24]: 20211
      0.02397 [    30]: 21201
      0.01753 [    10]: 11112
      0.01721 [    15]: 12012
      0.01452 [    17]: 12102
      0.01388 [     3]: 02112
      0.01334 [     0]: 01122
      0.01319 [    22]: 20112
      0.01083 [     7]: 10212
      0.00693 [    27]: 21102
ROOT   8:  E=   -2660.8809290046 Eh  2.006 eV  16181.5 cm**-1
      0.18410 [    28]: 21111
      0.17142 [    11]: 11121
      0.16619 [    10]: 11112
      0.07109 [    25]: 21012
      0.06611 [    29]: 21120
      0.05880 [    31]: 21210
      0.03865 [    13]: 11211
      0.03648 [     0]: 01122
      0.02832 [    18]: 12111
      0.02798 [     4]: 02121
      0.02647 [    19]: 12120
      0.01866 [    26]: 21021
      0.01850 [    14]: 11220
      0.01539 [    27]: 21102
      0.01518 [     9]: 11022
      0.01312 [     2]: 01221
      0.01068 [    30]: 21201
      0.00840 [    16]: 12021
      0.00791 [     6]: 10122
      0.00304 [    34]: 22110
      0.00299 [    23]: 20121
      0.00289 [     8]: 10221
ROOT   9:  E=   -2660.8755629373 Eh  2.152 eV  17359.2 cm**-1
      0.47875 [    25]: 21012
      0.16991 [    28]: 21111
      0.04841 [    18]: 12111
      0.04738 [    32]: 22011
      0.03220 [    31]: 21210
      0.02844 [    13]: 11211
      0.02518 [    15]: 12012
      0.02517 [     2]: 01221
      0.02121 [    30]: 21201
      0.01831 [    10]: 11112
      0.01762 [     8]: 10221
      0.01325 [    20]: 12201
      0.01101 [     6]: 10122
      0.00759 [    12]: 11202
      0.00746 [     9]: 11022
      0.00716 [     7]: 10212
      0.00701 [    34]: 22110
      0.00528 [    11]: 11121
      0.00463 [    17]: 12102
      0.00452 [     5]: 02211
      0.00412 [    21]: 12210
      0.00312 [    14]: 11220
      0.00262 [    24]: 20211
ROOT  10:  E=   -2660.8714866492 Eh  2.263 eV  18253.8 cm**-1
      0.35181 [    13]: 11211
      0.09797 [    14]: 11220
      0.09364 [    10]: 11112
      0.05015 [    11]: 11121
      0.04434 [    15]: 12012
      0.04275 [     2]: 01221
      0.03634 [     8]: 10221
      0.03587 [    32]: 22011
      0.03228 [    24]: 20211
      0.02888 [     7]: 10212
      0.02316 [    18]: 12111
      0.02281 [    20]: 12201
      0.01911 [    30]: 21201
      0.01671 [     5]: 02211
      0.01605 [    28]: 21111
      0.01356 [     6]: 10122
      0.01045 [     1]: 01212
      0.00941 [    34]: 22110
      0.00911 [    17]: 12102
      0.00750 [    22]: 20112
      0.00700 [     0]: 01122
      0.00591 [     9]: 11022
      0.00553 [    27]: 21102
      0.00520 [    12]: 11202
      0.00414 [    26]: 21021
      0.00378 [    25]: 21012
ROOT  11:  E=   -2660.8689200949 Eh  2.333 eV  18817.1 cm**-1
      0.17010 [    28]: 21111
      0.15251 [    11]: 11121
      0.12802 [    31]: 21210
      0.07348 [    14]: 11220
      0.07211 [    10]: 11112
      0.05606 [    25]: 21012
      0.04623 [     0]: 01122
      0.04560 [     9]: 11022
      0.03261 [    23]: 20121
      0.03248 [    19]: 12120
      0.03200 [    32]: 22011
      0.02909 [     4]: 02121
      0.02817 [     6]: 10122
      0.01670 [    18]: 12111
      0.01594 [     8]: 10221
      0.01472 [     2]: 01221
      0.01129 [    29]: 21120
      0.01117 [    13]: 11211
      0.00826 [    16]: 12021
      0.00774 [    21]: 12210
      0.00363 [    27]: 21102
      0.00252 [     1]: 01212
ROOT  12:  E=   -2660.8665998475 Eh  2.396 eV  19326.4 cm**-1
      0.24421 [    29]: 21120
      0.21481 [     0]: 01122
      0.16805 [    11]: 11121
      0.08639 [    10]: 11112
      0.06934 [    26]: 21021
      0.06755 [     2]: 01221
      0.04864 [     6]: 10122
      0.02852 [     8]: 10221
      0.01938 [    13]: 11211
      0.01473 [    23]: 20121
      0.01065 [    18]: 12111
      0.00493 [    22]: 20112
      0.00303 [    15]: 12012
      0.00300 [    32]: 22011
      0.00295 [    27]: 21102
      0.00277 [    34]: 22110
ROOT  13:  E=   -2660.8657230825 Eh  2.420 eV  19518.8 cm**-1
      0.35652 [    32]: 22011
      0.19014 [    15]: 12012
      0.12669 [    18]: 12111
      0.08346 [    34]: 22110
      0.06732 [    11]: 11121
      0.03946 [    13]: 11211
      0.02340 [     2]: 01221
      0.01260 [     6]: 10122
      0.01226 [    10]: 11112
      0.00873 [    12]: 11202
      0.00850 [    31]: 21210
      0.00828 [    25]: 21012
      0.00798 [    21]: 12210
      0.00753 [    29]: 21120
      0.00656 [    14]: 11220
      0.00624 [    24]: 20211
      0.00606 [     5]: 02211
      0.00556 [     3]: 02112
      0.00457 [    28]: 21111
      0.00352 [    30]: 21201
ROOT  14:  E=   -2660.8630138784 Eh  2.494 eV  20113.4 cm**-1
      0.21834 [    12]: 11202
      0.15141 [    30]: 21201
      0.12567 [    13]: 11211
      0.11327 [     2]: 01221
      0.08671 [    14]: 11220
      0.07407 [    11]: 11121
      0.06733 [    27]: 21102
      0.04578 [     0]: 01122
      0.02471 [    10]: 11112
      0.01993 [     7]: 10212
      0.01795 [    18]: 12111
      0.01179 [    32]: 22011
      0.01062 [     9]: 11022
      0.00746 [    15]: 12012
      0.00392 [    34]: 22110
      0.00320 [    28]: 21111
      0.00315 [     6]: 10122
      0.00275 [    26]: 21021
      0.00271 [     1]: 01212
      0.00251 [    21]: 12210
ROOT  15:  E=   -2660.8612699474 Eh  2.541 eV  20496.1 cm**-1
      0.32724 [    11]: 11121
      0.23761 [    10]: 11112
      0.13622 [    14]: 11220
      0.11834 [     9]: 11022
      0.06266 [    13]: 11211
      0.04914 [    28]: 21111
      0.02343 [    23]: 20121
      0.01282 [    25]: 21012
      0.00498 [    31]: 21210
      0.00494 [    29]: 21120
      0.00374 [     4]: 02121
      0.00260 [     8]: 10221
ROOT  16:  E=   -2660.8551294147 Eh  2.708 eV  21843.8 cm**-1
      0.22545 [    23]: 20121
      0.20370 [     6]: 10122
      0.13190 [    29]: 21120
      0.08852 [    28]: 21111
      0.07567 [     0]: 01122
      0.06432 [    27]: 21102
      0.05137 [     8]: 10221
      0.03707 [    26]: 21021
      0.03039 [    10]: 11112
      0.02143 [     2]: 01221
      0.01638 [    30]: 21201
      0.00813 [    13]: 11211
      0.00775 [    17]: 12102
      0.00728 [    33]: 22101
      0.00528 [    18]: 12111
      0.00371 [    11]: 11121
      0.00370 [    22]: 20112
      0.00295 [     4]: 02121
ROOT  17:  E=   -2660.8438947106 Eh  3.014 eV  24309.6 cm**-1
      0.17052 [     7]: 10212
      0.13242 [     8]: 10221
      0.08401 [     1]: 01212
      0.05350 [     5]: 02211
      0.05024 [     6]: 10122
      0.04606 [    30]: 21201
      0.04357 [    24]: 20211
      0.04354 [    20]: 12201
      0.04078 [    11]: 11121
      0.04030 [    25]: 21012
      0.04028 [    13]: 11211
      0.03620 [    31]: 21210
      0.03523 [    18]: 12111
      0.02983 [    22]: 20112
      0.02570 [    21]: 12210
      0.01984 [    10]: 11112
      0.01957 [    28]: 21111
      0.01650 [    27]: 21102
      0.01287 [    32]: 22011
      0.01272 [    17]: 12102
      0.01083 [     2]: 01221
      0.00968 [     3]: 02112
      0.00693 [    14]: 11220
      0.00447 [    15]: 12012
      0.00350 [    12]: 11202
      0.00332 [     9]: 11022
ROOT  18:  E=   -2660.8421500836 Eh  3.061 eV  24692.5 cm**-1
      0.33268 [    28]: 21111
      0.27447 [    10]: 11112
      0.10358 [    13]: 11211
      0.04868 [    23]: 20121
      0.04360 [    11]: 11121
      0.04170 [    18]: 12111
      0.04073 [    31]: 21210
      0.02213 [    27]: 21102
      0.01836 [    25]: 21012
      0.00907 [    29]: 21120
      0.00871 [    34]: 22110
      0.00870 [    26]: 21021
      0.00777 [     0]: 01122
      0.00767 [     4]: 02121
      0.00651 [    21]: 12210
      0.00368 [     6]: 10122
      0.00363 [     2]: 01221
      0.00297 [    14]: 11220
      0.00264 [     3]: 02112
ROOT  19:  E=   -2660.8326874025 Eh  3.319 eV  26769.3 cm**-1
      0.21124 [    10]: 11112
      0.10830 [    31]: 21210
      0.08999 [    11]: 11121
      0.08967 [    25]: 21012
      0.08758 [    28]: 21111
      0.06941 [    13]: 11211
      0.06607 [    14]: 11220
      0.05321 [     9]: 11022
      0.04626 [    22]: 20112
      0.04476 [    18]: 12111
      0.03153 [    24]: 20211
      0.01410 [     8]: 10221
      0.01108 [    29]: 21120
      0.01054 [     6]: 10122
      0.00862 [     3]: 02112
      0.00830 [     1]: 01212
      0.00769 [     7]: 10212
      0.00752 [    27]: 21102
      0.00644 [    30]: 21201
      0.00488 [    34]: 22110
      0.00443 [    20]: 12201
      0.00404 [    23]: 20121
      0.00379 [    32]: 22011
      0.00254 [    21]: 12210
ROOT  20:  E=   -2660.8244792443 Eh  3.542 eV  28570.8 cm**-1
      0.27073 [    28]: 21111
      0.24927 [    10]: 11112
      0.10254 [    18]: 12111
      0.07803 [    11]: 11121
      0.04741 [    13]: 11211
      0.03635 [    14]: 11220
      0.03368 [    22]: 20112
      0.02749 [    34]: 22110
      0.02398 [     0]: 01122
      0.02270 [     9]: 11022
      0.01775 [    29]: 21120
      0.01278 [    27]: 21102
      0.00991 [    21]: 12210
      0.00989 [    23]: 20121
      0.00861 [    15]: 12012
      0.00831 [     6]: 10122
      0.00786 [    30]: 21201
      0.00645 [    24]: 20211
      0.00508 [    17]: 12102
      0.00457 [     3]: 02112
      0.00321 [    32]: 22011
      0.00315 [     5]: 02211
      0.00277 [    19]: 12120
ROOT  21:  E=   -2660.8137724548 Eh  3.834 eV  30920.6 cm**-1
      0.24677 [    34]: 22110
      0.21331 [    18]: 12111
      0.10489 [    21]: 12210
      0.10453 [    10]: 11112
      0.07518 [    15]: 12012
      0.05422 [    32]: 22011
      0.02975 [    28]: 21111
      0.02750 [    13]: 11211
      0.02311 [    11]: 11121
      0.02078 [    27]: 21102
      0.01821 [    22]: 20112
      0.01771 [    19]: 12120
      0.01256 [    33]: 22101
      0.01042 [     3]: 02112
      0.00994 [    30]: 21201
      0.00611 [    24]: 20211
      0.00606 [    16]: 12021
      0.00460 [     5]: 02211
      0.00294 [    17]: 12102
ROOT  22:  E=   -2660.8074980997 Eh  4.004 eV  32297.7 cm**-1
      0.46818 [    18]: 12111
      0.07271 [    15]: 12012
      0.06135 [    21]: 12210
      0.05882 [     4]: 02121
      0.04843 [    16]: 12021
      0.04277 [    28]: 21111
      0.03115 [    20]: 12201
      0.02984 [    19]: 12120
      0.02550 [     5]: 02211
      0.02495 [    33]: 22101
      0.02281 [     3]: 02112
      0.02204 [    11]: 11121
      0.01538 [    10]: 11112
      0.01284 [     6]: 10122
      0.00858 [    12]: 11202
      0.00750 [    27]: 21102
      0.00690 [    22]: 20112
      0.00591 [     8]: 10221
      0.00533 [    29]: 21120
      0.00503 [    13]: 11211
      0.00464 [    30]: 21201
      0.00444 [     2]: 01221
      0.00436 [    31]: 21210
      0.00315 [    25]: 21012
ROOT  23:  E=   -2660.8062178216 Eh  4.039 eV  32578.7 cm**-1
      0.17289 [    20]: 12201
      0.15346 [     8]: 10221
      0.14647 [    12]: 11202
      0.11610 [    30]: 21201
      0.07870 [    16]: 12021
      0.04977 [    17]: 12102
      0.04641 [    18]: 12111
      0.04342 [    19]: 12120
      0.04062 [     6]: 10122
      0.02523 [    21]: 12210
      0.02206 [    27]: 21102
      0.01583 [     2]: 01221
      0.01316 [    11]: 11121
      0.01228 [    24]: 20211
      0.01215 [    13]: 11211
      0.01111 [     0]: 01122
      0.01025 [    15]: 12012
      0.00624 [    14]: 11220
      0.00521 [     7]: 10212
      0.00348 [     3]: 02112
ROOT  24:  E=   -2660.8001120652 Eh  4.205 eV  33918.7 cm**-1
      0.24453 [     3]: 02112
      0.19380 [    34]: 22110
      0.17893 [    28]: 21111
      0.10714 [    18]: 12111
      0.06903 [     5]: 02211
      0.05262 [    32]: 22011
      0.03170 [    10]: 11112
      0.01554 [    19]: 12120
      0.01439 [    17]: 12102
      0.01346 [    15]: 12012
      0.01286 [    21]: 12210
      0.01197 [    13]: 11211
      0.01133 [    20]: 12201
      0.01007 [    16]: 12021
      0.00968 [     4]: 02121
      0.00570 [    33]: 22101
      0.00532 [    29]: 21120
      0.00332 [    23]: 20121
      0.00296 [    26]: 21021
      0.00282 [    11]: 11121
ROOT  25:  E=   -2660.7965112675 Eh  4.303 eV  34709.0 cm**-1
      0.33901 [    11]: 11121
      0.11618 [     4]: 02121
      0.08346 [    17]: 12102
      0.07717 [    33]: 22101
      0.06445 [    18]: 12111
      0.05518 [    28]: 21111
      0.05232 [    19]: 12120
      0.03289 [     0]: 01122
      0.02561 [    10]: 11112
      0.02381 [    29]: 21120
      0.02362 [     6]: 10122
      0.01904 [    23]: 20121
      0.01821 [    20]: 12201
      0.01710 [    16]: 12021
      0.01196 [     2]: 01221
      0.01079 [     8]: 10221
      0.00635 [    26]: 21021
      0.00425 [    27]: 21102
      0.00394 [     9]: 11022
      0.00369 [    14]: 11220
      0.00363 [     3]: 02112
ROOT  26:  E=   -2660.7945257411 Eh  4.357 eV  35144.8 cm**-1
      0.16408 [    11]: 11121
      0.15341 [    12]: 11202
      0.15051 [    26]: 21021
      0.13706 [     9]: 11022
      0.09367 [    13]: 11211
      0.08262 [    30]: 21201
      0.04928 [     2]: 01221
      0.03847 [    27]: 21102
      0.03449 [    29]: 21120
      0.01852 [     1]: 01212
      0.01446 [    10]: 11112
      0.00693 [     8]: 10221
      0.00653 [    14]: 11220
      0.00628 [    24]: 20211
      0.00604 [     0]: 01122
      0.00568 [    18]: 12111
      0.00567 [    32]: 22011
      0.00542 [    15]: 12012
      0.00500 [    28]: 21111
      0.00445 [    31]: 21210
      0.00375 [     7]: 10212
      0.00268 [    22]: 20112
ROOT  27:  E=   -2660.7906715773 Eh  4.462 eV  35990.7 cm**-1
      0.26547 [    19]: 12120
      0.22284 [     4]: 02121
      0.13257 [    18]: 12111
      0.06087 [    15]: 12012
      0.05036 [    21]: 12210
      0.04836 [    16]: 12021
      0.03687 [    11]: 11121
      0.03094 [    27]: 21102
      0.02727 [    17]: 12102
      0.02638 [    33]: 22101
      0.01203 [    34]: 22110
      0.01201 [    29]: 21120
      0.01077 [    10]: 11112
      0.00938 [    30]: 21201
      0.00827 [     3]: 02112
      0.00710 [     0]: 01122
      0.00674 [     9]: 11022
      0.00570 [    14]: 11220
      0.00531 [     6]: 10122
      0.00518 [    28]: 21111
      0.00352 [    23]: 20121
ROOT  28:  E=   -2660.7708900091 Eh  5.001 eV  40332.2 cm**-1
      0.37741 [    18]: 12111
      0.13787 [     3]: 02112
      0.09101 [    33]: 22101
      0.08757 [    28]: 21111
      0.08590 [    27]: 21102
      0.05462 [    10]: 11112
      0.03236 [     5]: 02211
      0.03144 [    11]: 11121
      0.02140 [    30]: 21201
      0.01814 [    21]: 12210
      0.01365 [    13]: 11211
      0.01128 [    15]: 12012
      0.00669 [     4]: 02121
      0.00545 [    23]: 20121
      0.00436 [    29]: 21120
      0.00310 [     0]: 01122
      0.00303 [    16]: 12021
ROOT  29:  E=   -2660.7692235480 Eh  5.046 eV  40698.0 cm**-1
      0.26662 [    18]: 12111
      0.24396 [    10]: 11112
      0.11526 [    34]: 22110
      0.09804 [    28]: 21111
      0.06041 [    13]: 11211
      0.04889 [     3]: 02112
      0.03069 [    32]: 22011
      0.02890 [    15]: 12012
      0.02103 [    22]: 20112
      0.01717 [     5]: 02211
      0.01283 [    21]: 12210
      0.01169 [    19]: 12120
      0.00701 [    25]: 21012
      0.00646 [    11]: 11121
      0.00544 [    31]: 21210
      0.00489 [    24]: 20211
      0.00475 [    23]: 20121
      0.00421 [    29]: 21120
      0.00337 [    27]: 21102
      0.00322 [    16]: 12021
ROOT  30:  E=   -2660.7527024168 Eh  5.495 eV  44324.0 cm**-1
      0.23159 [     9]: 11022
      0.19641 [    16]: 12021
      0.16236 [    12]: 11202
      0.11620 [    14]: 11220
      0.05215 [    19]: 12120
      0.04183 [    13]: 11211
      0.03971 [    26]: 21021
      0.02734 [    11]: 11121
      0.01956 [     2]: 01221
      0.01822 [    29]: 21120
      0.01555 [    10]: 11112
      0.01416 [     0]: 01122
      0.01086 [     1]: 01212
      0.01014 [    27]: 21102
      0.01011 [     8]: 10221
      0.00998 [    30]: 21201
      0.00868 [    20]: 12201
      0.00390 [    15]: 12012
ROOT  31:  E=   -2660.7484986852 Eh  5.610 eV  45246.6 cm**-1
      0.36387 [    16]: 12021
      0.14026 [    26]: 21021
      0.10405 [    27]: 21102
      0.09341 [    19]: 12120
      0.07723 [    29]: 21120
      0.02510 [     8]: 10221
      0.02254 [    30]: 21201
      0.02251 [     0]: 01122
      0.02188 [     9]: 11022
      0.02128 [     2]: 01221
      0.01795 [     6]: 10122
      0.01327 [    10]: 11112
      0.00900 [    14]: 11220
      0.00841 [    18]: 12111
      0.00798 [    32]: 22011
      0.00775 [    13]: 11211
      0.00630 [     1]: 01212
      0.00533 [    15]: 12012
      0.00451 [    22]: 20112
      0.00415 [     4]: 02121
      0.00405 [    34]: 22110
      0.00336 [    28]: 21111
      0.00290 [    20]: 12201
      0.00257 [    33]: 22101
      0.00254 [     7]: 10212
ROOT  32:  E=   -2660.7474879033 Eh  5.637 eV  45468.4 cm**-1
      0.39403 [    27]: 21102
      0.19586 [    30]: 21201
      0.04011 [    18]: 12111
      0.03816 [    26]: 21021
      0.03763 [    10]: 11112
      0.03285 [    19]: 12120
      0.03227 [    11]: 11121
      0.02499 [     2]: 01221
      0.02290 [     0]: 01122
      0.02209 [    13]: 11211
      0.01739 [    33]: 22101
      0.01531 [    16]: 12021
      0.01462 [     4]: 02121
      0.01384 [     3]: 02112
      0.01357 [    29]: 21120
      0.01356 [    22]: 20112
      0.01241 [     8]: 10221
      0.01057 [     6]: 10122
      0.01000 [    14]: 11220
      0.00776 [    23]: 20121
      0.00629 [    24]: 20211
      0.00571 [    12]: 11202
      0.00530 [    28]: 21111
      0.00353 [     5]: 02211
      0.00346 [    21]: 12210
ROOT  33:  E=   -2660.7270761843 Eh  6.193 eV  49948.3 cm**-1
      0.37871 [    33]: 22101
      0.25185 [    17]: 12102
      0.11990 [    11]: 11121
      0.07421 [    20]: 12201
      0.03627 [     4]: 02121
      0.02958 [    23]: 20121
      0.01964 [     6]: 10122
      0.01492 [     0]: 01122
      0.01328 [    18]: 12111
      0.01221 [    19]: 12120
      0.01169 [    28]: 21111
      0.00721 [    29]: 21120
      0.00499 [     8]: 10221
      0.00470 [     2]: 01221
      0.00469 [    26]: 21021
      0.00320 [    16]: 12021
      0.00320 [    10]: 11112
ROOT  34:  E=   -2660.7108615209 Eh  6.634 eV  53507.0 cm**-1
      0.16740 [    13]: 11211
      0.13753 [    21]: 12210
      0.13027 [    31]: 21210
      0.11569 [    18]: 12111
      0.08696 [     5]: 02211
      0.07802 [    20]: 12201
      0.04580 [    10]: 11112
      0.04329 [     1]: 01212
      0.03356 [    25]: 21012
      0.03234 [    12]: 11202
      0.02465 [    30]: 21201
      0.02328 [     3]: 02112
      0.01815 [    17]: 12102
      0.01765 [    28]: 21111
      0.01256 [    32]: 22011
      0.00829 [    24]: 20211
      0.00670 [     7]: 10212
      0.00376 [    16]: 12021
      0.00352 [    27]: 21102
ROOT  35:  E=   -2660.6910335862 Eh  7.174 eV  57858.7 cm**-1
      0.34332 [    13]: 11211
      0.10782 [     7]: 10212
      0.10703 [    24]: 20211
      0.09235 [    10]: 11112
      0.08841 [     1]: 01212
      0.06985 [     5]: 02211
      0.03365 [    20]: 12201
      0.02228 [    22]: 20112
      0.02140 [    31]: 21210
      0.02077 [    21]: 12210
      0.01954 [    28]: 21111
      0.01875 [     3]: 02112
      0.01276 [    30]: 21201
      0.01265 [    15]: 12012
      0.01166 [    12]: 11202
      0.00793 [    17]: 12102
      0.00274 [    27]: 21102
ROOT  36:  E=   -2660.6850472944 Eh  7.336 eV  59172.5 cm**-1
      0.28923 [    15]: 12012
      0.24299 [    32]: 22011
      0.09372 [    18]: 12111
      0.07731 [    34]: 22110
      0.07171 [    25]: 21012
      0.04524 [    21]: 12210
      0.04490 [    28]: 21111
      0.02614 [    20]: 12201
      0.02222 [    30]: 21201
      0.01598 [    12]: 11202
      0.01339 [    26]: 21021
      0.00798 [     7]: 10212
      0.00776 [    31]: 21210
      0.00738 [     9]: 11022
      0.00664 [     3]: 02112
      0.00638 [    27]: 21102
      0.00421 [    29]: 21120
      0.00331 [     5]: 02211
ROOT  37:  E=   -2660.6773136401 Eh  7.547 eV  60869.9 cm**-1
      0.40068 [    17]: 12102
      0.33988 [    33]: 22101
      0.08276 [    20]: 12201
      0.03857 [     4]: 02121
      0.03801 [    19]: 12120
      0.01829 [    18]: 12111
      0.01420 [    28]: 21111
      0.01206 [    23]: 20121
      0.01170 [     6]: 10122
      0.00993 [    10]: 11112
      0.00715 [     3]: 02112
      0.00695 [    16]: 12021
      0.00695 [    11]: 11121
      0.00274 [    13]: 11211
      0.00250 [     8]: 10221
ROOT  38:  E=   -2660.6559092366 Eh  8.129 eV  65567.6 cm**-1
      0.30114 [    20]: 12201
      0.14446 [    30]: 21201
      0.13666 [    12]: 11202
      0.07614 [    17]: 12102
      0.06315 [    13]: 11211
      0.05242 [    21]: 12210
      0.05149 [     5]: 02211
      0.03371 [     1]: 01212
      0.02810 [    27]: 21102
      0.01970 [    15]: 12012
      0.01675 [     3]: 02112
      0.01473 [    31]: 21210
      0.01185 [    32]: 22011
      0.01126 [    10]: 11112
      0.00616 [    28]: 21111
      0.00615 [    24]: 20211
      0.00604 [    34]: 22110
      0.00559 [    16]: 12021
      0.00335 [    18]: 12111
      0.00270 [     7]: 10212
ROOT  39:  E=   -2660.6220075006 Eh  9.052 eV  73008.2 cm**-1
      0.15476 [     2]: 01221
      0.15383 [    13]: 11211
      0.14595 [     1]: 01212
      0.08807 [    14]: 11220
      0.06288 [     7]: 10212
      0.06186 [     8]: 10221
      0.06029 [    11]: 11121
      0.05906 [    10]: 11112
      0.05083 [     0]: 01122
      0.04501 [    31]: 21210
      0.03175 [    24]: 20211
      0.02931 [    28]: 21111
      0.02041 [     6]: 10122
      0.01299 [    22]: 20112
      0.01192 [     9]: 11022
      0.00914 [    25]: 21012
ROOT  40:  E=   -2660.5924043250 Eh  9.857 eV  79505.3 cm**-1
      0.29099 [     5]: 02211
      0.16139 [    21]: 12210
      0.15891 [    13]: 11211
      0.10306 [    18]: 12111
      0.08068 [     3]: 02112
      0.04317 [    10]: 11112
      0.03521 [    24]: 20211
      0.02646 [    31]: 21210
      0.02610 [     1]: 01212
      0.02278 [     7]: 10212
      0.01846 [    15]: 12012
      0.01648 [    28]: 21111
      0.00785 [    22]: 20112
ROOT  41:  E=   -2660.5755069922 Eh 10.317 eV  83213.9 cm**-1
      0.20275 [     2]: 01221
      0.12462 [    13]: 11211
      0.11942 [     1]: 01212
      0.11274 [    14]: 11220
      0.08236 [     8]: 10221
      0.06960 [    11]: 11121
      0.05130 [     7]: 10212
      0.04837 [     0]: 01122
      0.04834 [    10]: 11112
      0.03569 [    31]: 21210
      0.02497 [    24]: 20211
      0.02487 [    28]: 21111
      0.01934 [     6]: 10122
      0.01097 [     9]: 11022
      0.01043 [    22]: 20112
      0.00668 [    25]: 21012
ROOT  42:  E=   -2660.4368428769 Eh 14.090 eV 113647.1 cm**-1
      0.24970 [    11]: 11121
      0.22284 [     0]: 01122
      0.12030 [     6]: 10122
      0.05213 [     2]: 01221
      0.05196 [     4]: 02121
      0.05052 [    29]: 21120
      0.04745 [     9]: 11022
      0.04481 [    23]: 20121
      0.02934 [    14]: 11220
      0.02904 [    19]: 12120
      0.02846 [     8]: 10221
      0.01902 [    26]: 21021
      0.01104 [    16]: 12021
      0.01068 [    18]: 12111
      0.00840 [     3]: 02112
      0.00638 [    10]: 11112
      0.00417 [    28]: 21111
      0.00329 [    34]: 22110
ROOT  43:  E=   -2660.4239325071 Eh 14.442 eV 116480.6 cm**-1
      0.29722 [    11]: 11121
      0.27210 [     4]: 02121
      0.15624 [    19]: 12120
      0.08849 [    29]: 21120
      0.08804 [    23]: 20121
      0.05907 [    16]: 12021
      0.03346 [    26]: 21021
ROOT  44:  E=   -2660.3699079662 Eh 15.912 eV 128337.6 cm**-1
      0.22339 [    18]: 12111
      0.15275 [    10]: 11112
      0.14194 [     3]: 02112
      0.12210 [    28]: 21111
      0.07911 [    34]: 22110
      0.04554 [    22]: 20112
      0.04046 [    13]: 11211
      0.03124 [     5]: 02211
      0.03027 [    15]: 12012
      0.02978 [    32]: 22011
      0.01761 [    21]: 12210
      0.01651 [    25]: 21012
      0.01380 [    24]: 20211
      0.01342 [    31]: 21210
      0.00990 [    11]: 11121
      0.00899 [     0]: 01122
      0.00489 [     6]: 10122
      0.00368 [     4]: 02121

                 <<<<<<<<<<<<<<<<<<INITIAL CI STATE CHECK>>>>>>>>>>>>>>>>>>

   E(CAS)= -2660.842049623 Eh DE=    0.000000e+00
   --- Energy gap subspaces: Ext-Act = 0.095   Act-Int = 0.065
   N(occ)=  1.20000 1.20000 1.20000 1.20000 1.20000
   ||g|| =     1.123529e-03 Max(G)=   -1.732346e-04 Rot=178,126
   --- Orbital Update [SuperCI(PT)]
   --- Canonicalize Internal Space
   --- Canonicalize External Space
   --- SX_PT (Skipped TA=0 IT=0): ||X|| =      0.000554740 Max(X)(159,126) =      0.000118902 
   --- SFit(Active Orbitals)

MACRO-ITERATION   2: 
   --- Inactive Energy E0 = -2652.56778328 Eh
CI-ITERATION   0: 
 -2660.946272792   0.000000000000 (    0.00)
 -2660.932826575   0.000000000000
 -2660.908655749   0.000000000000
 -2660.886836168   0.000000000000
 -2660.858573368   0.000000000000
   CI-PROBLEM SOLVED
   DENSITIES MADE
CI-ITERATION   0: 
 -2660.954666876   0.000000000000 (    0.00)
 -2660.923513323   0.000000000000
 -2660.907333857   0.000000000000
 -2660.903972979   0.000000000000
 -2660.897261716   0.000000000000
 -2660.895982841   0.000000000000
 -2660.895630835   0.000000000000
 -2660.889870178   0.000000000000
 -2660.880912557   0.000000000000
 -2660.875512861   0.000000000000
 -2660.871487042   0.000000000000
 -2660.868910839   0.000000000000
 -2660.866630005   0.000000000000
 -2660.865674466   0.000000000000
 -2660.863019919   0.000000000000
 -2660.861308481   0.000000000000
 -2660.855155447   0.000000000000
 -2660.843900533   0.000000000000
 -2660.842120817   0.000000000000
 -2660.832702279   0.000000000000
 -2660.824476766   0.000000000000
 -2660.813702620   0.000000000000
 -2660.807453823   0.000000000000
 -2660.806219149   0.000000000000
 -2660.800045432   0.000000000000
 -2660.796444334   0.000000000000
 -2660.794548716   0.000000000000
 -2660.790622700   0.000000000000
 -2660.770831502   0.000000000000
 -2660.769165958   0.000000000000
 -2660.752730539   0.000000000000
 -2660.748526933   0.000000000000
 -2660.747428685   0.000000000000
 -2660.726967629   0.000000000000
 -2660.710724051   0.000000000000
 -2660.690893006   0.000000000000
 -2660.685063945   0.000000000000
 -2660.677287956   0.000000000000
 -2660.655765434   0.000000000000
 -2660.622172115   0.000000000000
 -2660.592556085   0.000000000000
 -2660.575668504   0.000000000000
 -2660.437001198   0.000000000000
 -2660.424091592   0.000000000000
 -2660.370053828   0.000000000000
   CI-PROBLEM SOLVED
   DENSITIES MADE
   E(CAS)= -2660.842049913 Eh DE=   -2.902480e-07
   --- Energy gap subspaces: Ext-Act = 0.095   Act-Int = 0.065
   N(occ)=  1.20000 1.20000 1.20000 1.20000 1.20000
   ||g|| =     1.167424e-03 Max(G)=   -1.701419e-04 Rot=178,126
   --- Orbital Update [SuperCI(PT)]
   --- Canonicalize Internal Space
   --- Canonicalize External Space
   --- SX_PT (Skipped TA=0 IT=0): ||X|| =      0.000532953 Max(X)(159,126) =      0.000117738 
   --- SFit(Active Orbitals)

MACRO-ITERATION   3: 
   --- Inactive Energy E0 = -2652.56817338 Eh
CI-ITERATION   0: 
 -2660.946274837   0.000000000000 (    0.00)
 -2660.932867235   0.000000000000
 -2660.908629538   0.000000000000
 -2660.886810634   0.000000000000
 -2660.858592245   0.000000000000
   CI-PROBLEM SOLVED
   DENSITIES MADE
CI-ITERATION   0: 
 -2660.954668936   0.000000000000 (    0.00)
 -2660.923500015   0.000000000000
 -2660.907375888   0.000000000000
 -2660.903964753   0.000000000000
 -2660.897255710   0.000000000000
 -2660.895982867   0.000000000000
 -2660.895631489   0.000000000000
 -2660.889877580   0.000000000000
 -2660.880925084   0.000000000000
 -2660.875552324   0.000000000000
 -2660.871493922   0.000000000000
 -2660.868916989   0.000000000000
 -2660.866609194   0.000000000000
 -2660.865717653   0.000000000000
 -2660.863021424   0.000000000000
 -2660.861287121   0.000000000000
 -2660.855139110   0.000000000000
 -2660.843897710   0.000000000000
 -2660.842142850   0.000000000000
 -2660.832698115   0.000000000000
 -2660.824477979   0.000000000000
 -2660.813755492   0.000000000000
 -2660.807487702   0.000000000000
 -2660.806220679   0.000000000000
 -2660.800098272   0.000000000000
 -2660.796501995   0.000000000000
 -2660.794525012   0.000000000000
 -2660.790663578   0.000000000000
 -2660.770874011   0.000000000000
 -2660.769213523   0.000000000000
 -2660.752698741   0.000000000000
 -2660.748496208   0.000000000000
 -2660.747470432   0.000000000000
 -2660.727048568   0.000000000000
 -2660.710824665   0.000000000000
 -2660.690999118   0.000000000000
 -2660.685030249   0.000000000000
 -2660.677298298   0.000000000000
 -2660.655870640   0.000000000000
 -2660.622049232   0.000000000000
 -2660.592435375   0.000000000000
 -2660.575541776   0.000000000000
 -2660.436850822   0.000000000000
 -2660.423942950   0.000000000000
 -2660.369903303   0.000000000000
   CI-PROBLEM SOLVED
   DENSITIES MADE
   E(CAS)= -2660.842050086 Eh DE=   -1.729509e-07
   --- Energy gap subspaces: Ext-Act = 0.095   Act-Int = 0.065
   N(occ)=  1.20000 1.20000 1.20000 1.20000 1.20000
   ||g|| =     6.838085e-04 Max(G)=   -1.687055e-04 Rot=178,126
                     ---- THE CAS-SCF GRADIENT HAS CONVERGED ----
                            --- FINALIZING ORBITALS ---
                    ---- DOING ONE FINAL ITERATION FOR PRINTING ----
   --- Forming Natural Orbitals
   --- Canonicalize Internal Space
   --- Canonicalize External Space

MACRO-ITERATION   4: 
   --- Inactive Energy E0 = -2652.56817338 Eh
   --- All densities will be recomputed
CI-ITERATION   0: 
 -2660.946274838   0.000000000000 (    0.00)
 -2660.932867235   0.000000000000
 -2660.908629538   0.000000000000
 -2660.886810634   0.000000000000
 -2660.858592245   0.000000000000
   CI-PROBLEM SOLVED
   DENSITIES MADE
CI-ITERATION   0: 
 -2660.954668936   0.000000000000 (    0.00)
 -2660.923500016   0.000000000000
 -2660.907375889   0.000000000000
 -2660.903964753   0.000000000000
 -2660.897255710   0.000000000000
 -2660.895982867   0.000000000000
 -2660.895631490   0.000000000000
 -2660.889877580   0.000000000000
 -2660.880925084   0.000000000000
 -2660.875552324   0.000000000000
 -2660.871493922   0.000000000000
 -2660.868916989   0.000000000000
 -2660.866609194   0.000000000000
 -2660.865717654   0.000000000000
 -2660.863021424   0.000000000000
 -2660.861287122   0.000000000000
 -2660.855139110   0.000000000000
 -2660.843897710   0.000000000000
 -2660.842142850   0.000000000000
 -2660.832698115   0.000000000000
 -2660.824477979   0.000000000000
 -2660.813755492   0.000000000000
 -2660.807487702   0.000000000000
 -2660.806220679   0.000000000000
 -2660.800098272   0.000000000000
 -2660.796501995   0.000000000000
 -2660.794525012   0.000000000000
 -2660.790663578   0.000000000000
 -2660.770874012   0.000000000000
 -2660.769213523   0.000000000000
 -2660.752698741   0.000000000000
 -2660.748496208   0.000000000000
 -2660.747470432   0.000000000000
 -2660.727048569   0.000000000000
 -2660.710824665   0.000000000000
 -2660.690999118   0.000000000000
 -2660.685030249   0.000000000000
 -2660.677298298   0.000000000000
 -2660.655870641   0.000000000000
 -2660.622049232   0.000000000000
 -2660.592435375   0.000000000000
 -2660.575541776   0.000000000000
 -2660.436850822   0.000000000000
 -2660.423942950   0.000000000000
 -2660.369903304   0.000000000000
   CI-PROBLEM SOLVED
   DENSITIES MADE
   E(CAS)= -2660.842050086 Eh DE=   -1.564331e-10
   --- Energy gap subspaces: Ext-Act = 0.101   Act-Int = 0.066
   N(occ)=  1.20000 1.20000 1.20000 1.20000 1.20000
   ||g|| =     6.838085e-04 Max(G)=   -2.032977e-04 Rot=178,126
--------------
CASSCF RESULTS
--------------

Final CASSCF energy       : -2660.842050086 Eh  -72405.1932 eV

----------------
ORBITAL ENERGIES
----------------

  NO   OCC          E(Eh)            E(eV) 
   0   2.0000    -220.548637     -6001.4335 
   1   2.0000     -26.396315      -718.2803 
   2   2.0000     -22.331806      -607.6793 
   3   2.0000     -22.326265      -607.5285 
   4   2.0000     -22.316454      -607.2616 
   5   2.0000      -4.715936      -128.3271 
   6   2.0000      -4.715340      -128.3109 
   7   2.0000      -4.712371      -128.2301 
   8   2.0000      -4.711405      -128.2039 
   9   2.0000      -4.705860      -128.0530 
  10   2.0000      -4.704818      -128.0246 
  11   2.0000      -4.704346      -128.0118 
  12   2.0000      -4.704075      -128.0044 
  13   2.0000      -4.703348      -127.9846 
  14   2.0000      -4.699964      -127.8925 
  15   2.0000      -4.698946      -127.8648 
  16   2.0000      -4.698129      -127.8426 
  17   2.0000      -3.443496       -93.7023 
  18   2.0000      -2.756745       -75.0148 
  19   2.0000      -2.755857       -74.9907 
  20   2.0000      -2.754876       -74.9640 
  21   2.0000      -2.753397       -74.9238 
  22   2.0000      -2.751257       -74.8655 
  23   2.0000      -2.750379       -74.8416 
  24   2.0000      -2.749724       -74.8238 
  25   2.0000      -2.749074       -74.8061 
  26   2.0000      -2.747588       -74.7657 
  27   2.0000      -2.747285       -74.7574 
  28   2.0000      -2.747100       -74.7524 
  29   2.0000      -2.746425       -74.7340 
  30   2.0000      -2.745885       -74.7193 
  31   2.0000      -2.744468       -74.6808 
  32   2.0000      -2.744224       -74.6741 
  33   2.0000      -2.743591       -74.6569 
  34   2.0000      -2.743176       -74.6456 
  35   2.0000      -2.742650       -74.6313 
  36   2.0000      -2.742159       -74.6180 
  37   2.0000      -2.740928       -74.5844 
  38   2.0000      -2.740023       -74.5598 
  39   2.0000      -2.739317       -74.5406 
  40   2.0000      -2.738326       -74.5136 
  41   2.0000      -2.737700       -74.4966 
  42   2.0000      -2.736758       -74.4710 
  43   2.0000      -2.736393       -74.4610 
  44   2.0000      -2.736073       -74.4523 
  45   2.0000      -2.735548       -74.4380 
  46   2.0000      -2.734882       -74.4199 
  47   2.0000      -2.734194       -74.4012 
  48   2.0000      -2.733594       -74.3849 
  49   2.0000      -2.732510       -74.3554 
  50   2.0000      -2.731737       -74.3344 
  51   2.0000      -2.731457       -74.3267 
  52   2.0000      -2.730851       -74.3102 
  53   2.0000      -2.729706       -74.2791 
  54   2.0000      -2.207141       -60.0593 
  55   2.0000      -2.201546       -59.9071 
  56   2.0000      -2.193963       -59.7008 
  57   2.0000      -0.558037       -15.1850 
  58   2.0000      -0.547151       -14.8887 
  59   2.0000      -0.545806       -14.8521 
  60   2.0000      -0.543947       -14.8016 
  61   2.0000      -0.539782       -14.6882 
  62   2.0000      -0.534213       -14.5367 
  63   2.0000      -0.533416       -14.5150 
  64   2.0000      -0.532990       -14.5034 
  65   2.0000      -0.529446       -14.4070 
  66   2.0000      -0.527409       -14.3515 
  67   2.0000      -0.525435       -14.2978 
  68   2.0000      -0.525099       -14.2887 
  69   2.0000      -0.521413       -14.1884 
  70   2.0000      -0.517153       -14.0724 
  71   2.0000      -0.515306       -14.0222 
  72   2.0000      -0.514619       -14.0035 
  73   2.0000      -0.510339       -13.8870 
  74   2.0000      -0.508366       -13.8333 
  75   2.0000      -0.501460       -13.6454 
  76   2.0000      -0.498881       -13.5753 
  77   2.0000      -0.497666       -13.5422 
  78   2.0000      -0.496676       -13.5153 
  79   2.0000      -0.495188       -13.4747 
  80   2.0000      -0.487097       -13.2546 
  81   2.0000      -0.486022       -13.2253 
  82   2.0000      -0.482149       -13.1200 
  83   2.0000      -0.477425       -12.9914 
  84   2.0000      -0.476666       -12.9707 
  85   2.0000      -0.475942       -12.9511 
  86   2.0000      -0.473019       -12.8715 
  87   2.0000      -0.472029       -12.8446 
  88   2.0000      -0.468422       -12.7464 
  89   2.0000      -0.466137       -12.6842 
  90   2.0000      -0.463621       -12.6158 
  91   2.0000      -0.461405       -12.5555 
  92   2.0000      -0.457880       -12.4595 
  93   2.0000      -0.456660       -12.4263 
  94   2.0000      -0.455694       -12.4001 
  95   2.0000      -0.453345       -12.3361 
  96   2.0000      -0.451402       -12.2833 
  97   2.0000      -0.450730       -12.2650 
  98   2.0000      -0.447987       -12.1903 
  99   2.0000      -0.444510       -12.0957 
 100   2.0000      -0.441093       -12.0028 
 101   2.0000      -0.438135       -11.9223 
 102   2.0000      -0.437478       -11.9044 
 103   2.0000      -0.436674       -11.8825 
 104   2.0000      -0.434580       -11.8255 
 105   2.0000      -0.432494       -11.7688 
 106   2.0000      -0.429776       -11.6948 
 107   2.0000      -0.429031       -11.6745 
 108   2.0000      -0.427330       -11.6282 
 109   2.0000      -0.417466       -11.3598 
 110   2.0000      -0.417286       -11.3549 
 111   2.0000      -0.411127       -11.1873 
 112   2.0000      -0.409895       -11.1538 
 113   2.0000      -0.407866       -11.0986 
 114   2.0000      -0.402999       -10.9662 
 115   2.0000      -0.401228       -10.9180 
 116   2.0000      -0.400909       -10.9093 
 117   2.0000      -0.386972       -10.5300 
 118   2.0000      -0.370057       -10.0698 
 119   2.0000      -0.323735        -8.8093 
 120   2.0000      -0.283213        -7.7066 
 121   2.0000      -0.254912        -6.9365 
 122   2.0000      -0.221213        -6.0195 
 123   1.2000      -0.154734        -4.2105 
 124   1.2000      -0.141330        -3.8458 
 125   1.2000      -0.138217        -3.7611 
 126   1.2000      -0.142350        -3.8735 
 127   1.2000      -0.107232        -2.9179 
 128   0.0000      -0.006408        -0.1744 
 129   0.0000       0.001079         0.0294 
 130   0.0000       0.007410         0.2016 
 131   0.0000       0.015371         0.4183 
 132   0.0000       0.018556         0.5049 
 133   0.0000       0.027726         0.7545 
 134   0.0000       0.030769         0.8373 
 135   0.0000       0.047851         1.3021 
 136   0.0000       0.058651         1.5960 
 137   0.0000       0.064526         1.7558 
 138   0.0000       0.064927         1.7667 
 139   0.0000       0.069907         1.9023 
 140   0.0000       0.077890         2.1195 
 141   0.0000       0.089830         2.4444 
 142   0.0000       0.097222         2.6455 
 143   0.0000       0.114161         3.1065 
 144   0.0000       0.118313         3.2195 
 145   0.0000       0.121297         3.3006 
 146   0.0000       0.124302         3.3824 
 147   0.0000       0.125851         3.4246 
[...]
 1 120  409762.1     24.4   0.000048341   0.00075   0.00421   0.02452   0.01151
 1 121  410071.0     24.4   0.000003402   0.00005   0.00007   0.00607   0.00400
 1 122  410100.5     24.4   0.002358416   0.03664   0.06628   0.11207   0.14029
 1 123  410100.9     24.4   0.003382572   0.05254   0.09633   0.11490   0.17339
 1 124  410819.1     24.3   0.001356556   0.02104   0.07329   0.05769   0.11107
 1 125  410819.7     24.3   0.000098875   0.00153   0.02334   0.00995   0.02982
 1 126  410820.3     24.3   0.007132266   0.11060   0.16229   0.14017   0.25419
 1 127  412863.4     24.2   0.000034926   0.00054   0.01155   0.02005   0.00191
 1 128  412865.3     24.2   0.000950991   0.01467   0.06974   0.09896   0.00403
 1 129  412865.6     24.2   0.030462555   0.47003   0.37870   0.57150   0.00245
 1 130  416338.8     24.0   0.000067513   0.00103   0.02146   0.02314   0.00608
 1 131  416339.4     24.0   0.000249960   0.00382   0.04686   0.02823   0.02884
 1 132  416342.7     24.0   0.000005180   0.00008   0.00585   0.00649   0.00169
 1 133  418088.8     23.9   0.002298782   0.03503   0.10692   0.15318   0.01135
 1 134  418089.2     23.9   0.003737948   0.05696   0.14336   0.18994   0.01803
 1 135  418196.6     23.9   0.000005252   0.00008   0.00299   0.00810   0.00234
 1 136  418235.0     23.9   0.000001939   0.00003   0.00413   0.00219   0.00278
 1 137  418351.2     23.9   0.002201619   0.03353   0.10457   0.14987   0.01140
 1 138  418351.3     23.9   0.002106581   0.03208   0.10632   0.14372   0.01091
 1 139  420539.3     23.8   0.000726883   0.01101   0.05439   0.08971   0.00232
 1 140  420539.4     23.8   0.000415424   0.00629   0.03979   0.06863   0.00018
 1 141  420543.1     23.8   0.000048713   0.00074   0.01418   0.02316   0.00061
 1 142  423579.5     23.6   0.000001868   0.00003   0.00289   0.00171   0.00410
 1 143  423583.9     23.6   0.000050693   0.00076   0.01428   0.01009   0.02137
 1 144  423584.0     23.6   0.000005875   0.00009   0.00067   0.00755   0.00556
 1 145  487675.3     20.5   0.001623139   0.02120   0.07426   0.04993   0.11487
 1 146  487675.3     20.5   0.000000002   0.00000   0.00001   0.00011   0.00013
 1 147  487675.4     20.5   0.000068007   0.00089   0.01519   0.01022   0.02352
 1 148  500638.3     20.0   0.001666529   0.02121   0.07494   0.04972   0.11454
 1 149  500638.4     20.0   0.000004809   0.00006   0.00400   0.00263   0.00619
 1 150  500639.2     20.0   0.000001392   0.00002   0.00204   0.00154   0.00334
 1 151  546473.1     18.3   0.000000063   0.00000   0.00019   0.00004   0.00084
 1 152  546474.0     18.3   0.000068681   0.00080   0.00768   0.00085   0.02722
 1 153  546474.1     18.3   0.000008084   0.00009   0.00283   0.00053   0.00927
 1 154  640188.7     15.6   0.000059853   0.00060   0.01852   0.01466   0.00611
 1 155  640188.8     15.6   0.002576667   0.02564   0.12138   0.09651   0.03990
 1 156  640188.9     15.6   0.000000032   0.00000   0.00022   0.00039   0.00035
 1 157  976131.9     10.2   0.000001393   0.00001   0.00038   0.00267   0.00135
 1 158  976131.9     10.2   0.000045893   0.00030   0.00214   0.01537   0.00767
 1 159  976132.0     10.2   0.000795397   0.00519   0.00911   0.06401   0.03178
 2  3  103929.7     96.2   0.000000005   0.00000   0.00046   0.00031   0.00007
 2  4  103929.8     96.2   0.000000745   0.00005   0.00547   0.00381   0.00112
 2  5  103929.8     96.2   0.000009612   0.00059   0.01970   0.01363   0.00391
 2  6  224179.0     44.6   0.000002985   0.00008   0.00527   0.00755   0.00023
 2  7  224179.1     44.6   0.000000273   0.00001   0.00156   0.00231   0.00002
 2  8  224179.2     44.6   0.002497884   0.07099   0.14770   0.22175   0.00016
 2  9  299033.5     33.4   0.000173811   0.00370   0.03979   0.04603   0.00105
 2 10  299033.9     33.4   0.000000257   0.00001   0.00158   0.00172   0.00012
 2 11  299034.1     33.4   0.000000004   0.00000   0.00012   0.00026   0.00008
 2 12  375676.8     26.6   0.000000003   0.00000   0.00012   0.00006   0.00018
 2 13  375677.3     26.6   0.000000064   0.00000   0.00064   0.00075   0.00031
 2 14  375678.4     26.6   0.000000224   0.00000   0.00102   0.00166   0.00007
 2 15  375680.7     26.6   0.000000001   0.00000   0.00008   0.00011   0.00001
 2 16  375680.8     26.6   0.000000000   0.00000   0.00003   0.00003   0.00004
 2 17  381141.8     26.2   0.000000243   0.00000   0.00095   0.00088   0.00154
 2 18  381142.2     26.2   0.000000048   0.00000   0.00008   0.00078   0.00043
 2 19  381144.3     26.2   0.001927624   0.03222   0.10702   0.04400   0.13723
 2 20  386515.3     25.9   0.000232008   0.00382   0.03227   0.05271   0.00210
 2 21  386516.8     25.9   0.000001423   0.00002   0.00075   0.00361   0.00313
 2 22  386517.8     25.9   0.001925298   0.03173   0.08155   0.08036   0.13648
 2 23  386877.9     25.8   0.000106094   0.00175   0.02306   0.03486   0.00036
 2 24  386878.5     25.8   0.000011335   0.00019   0.00650   0.01194   0.00134
 2 25  386879.6     25.8   0.053508701   0.88115   0.51589   0.78421   0.00536
 2 26  389271.5     25.7   0.000001020   0.00002   0.00252   0.00318   0.00049
 2 27  389271.8     25.7   0.000004801   0.00008   0.00529   0.00709   0.00065
 2 28  389302.1     25.7   0.000204253   0.00334   0.04404   0.02722   0.02574
 2 29  389531.7     25.7   0.000048468   0.00079   0.01288   0.01230   0.02181
 2 30  389558.0     25.7   0.000000155   0.00000   0.00102   0.00118   0.00032
 2 31  389558.4     25.7   0.000000310   0.00001   0.00062   0.00206   0.00066
 2 32  390587.5     25.6   0.000011565   0.00019   0.00823   0.01093   0.00117
 2 33  390589.6     25.6   0.000009298   0.00015   0.00656   0.00433   0.00948
 2 34  390589.8     25.6   0.000000294   0.00000   0.00090   0.00112   0.00166
 2 35  390596.2     25.6   0.000000000   0.00000   0.00001   0.00007   0.00004
 2 36  390596.2     25.6   0.000000019   0.00000   0.00022   0.00030   0.00042
 2 37  394942.4     25.3   0.001493156   0.02409   0.08772   0.04616   0.11942
 2 38  394962.7     25.3   0.000009915   0.00016   0.00362   0.00832   0.00881
 2 39  394963.4     25.3   0.000004468   0.00007   0.00641   0.00401   0.00386
 2 40  395101.6     25.3   0.000000037   0.00000   0.00050   0.00013   0.00058
 2 41  395101.6     25.3   0.000000076   0.00000   0.00034   0.00070   0.00079
 2 42  395292.7     25.3   0.000004574   0.00007   0.00387   0.00385   0.00663
 2 43  395293.8     25.3   0.000000617   0.00001   0.00124   0.00170   0.00235
 2 44  395325.7     25.3   0.001851228   0.02983   0.09658   0.05314   0.13297
 2 45  395650.7     25.3   0.000007872   0.00013   0.00476   0.00593   0.00830
 2 46  395657.1     25.3   0.000000376   0.00001   0.00092   0.00225   0.00038
 2 47  395659.3     25.3   0.000000647   0.00001   0.00196   0.00255   0.00032
 2 48  396961.9     25.2   0.000000705   0.00001   0.00259   0.00110   0.00184
 2 49  396962.3     25.2   0.000031948   0.00051   0.01537   0.01587   0.00498
 2 50  396970.7     25.2   0.002326760   0.03734   0.12974   0.13818   0.03761
 2 51  397667.6     25.1   0.001582704   0.02536   0.09047   0.04670   0.12244
 2 52  397680.8     25.1   0.000001763   0.00003   0.00261   0.00203   0.00416
 2 53  397682.4     25.1   0.000000532   0.00001   0.00164   0.00106   0.00218
 2 54  397817.2     25.1   0.000002791   0.00004   0.00488   0.00218   0.00401
 2 55  397818.3     25.1   0.000000120   0.00000   0.00099   0.00057   0.00078
 2 56  397820.6     25.1   0.000037676   0.00060   0.01785   0.01408   0.00932
 2 57  398869.2     25.1   0.000371266   0.00593   0.04445   0.02093   0.05929
 2 58  398870.7     25.1   0.000044280   0.00071   0.01149   0.01297   0.02017
 2 59  398873.2     25.1   0.012556743   0.20056   0.25886   0.12279   0.34420
 2 60  399650.3     25.0   0.002776316   0.04426   0.14069   0.01843   0.15532
 2 61  399651.3     25.0   0.000271140   0.00432   0.04650   0.03819   0.02649
 2 62  399671.7     25.0   0.000008347   0.00013   0.00560   0.00450   0.00902
 2 63  399798.8     25.0   0.000055091   0.00088   0.01891   0.00387   0.02248
 2 64  399810.6     25.0   0.000306281   0.00488   0.04182   0.01777   0.05307
 2 65  399812.7     25.0   0.001413135   0.02252   0.08472   0.12194   0.02170
 2 66  400600.4     25.0   0.000014955   0.00024   0.00509   0.00937   0.01114
 2 67  400603.1     25.0   0.000060523   0.00096   0.02267   0.00892   0.01921
 2 68  400621.6     25.0   0.001922719   0.03058   0.09907   0.14166   0.02637
 2 69  400937.5     24.9   0.000558837   0.00888   0.04972   0.08004   0.00133
 2 70  400941.2     24.9   0.002368638   0.03764   0.08967   0.08582   0.14911
 2 71  400941.4     24.9   0.057589707   0.91510   0.51391   0.32927   0.73659
 2 72  401039.6     24.9   0.000467867   0.00743   0.06404   0.01526   0.05567
 2 73  401044.1     24.9   0.000148390   0.00236   0.02342   0.01674   0.03910
 2 74  401050.8     24.9   0.003049512   0.04844   0.11718   0.07675   0.16977
 2 75  401113.5     24.9   0.012896466   0.20484   0.26115   0.36867   0.02682
 2 76  401122.8     24.9   0.000023439   0.00037   0.00602   0.01753   0.00535
 2 77  401125.8     24.9   0.001630538   0.02590   0.08898   0.05104   0.12399
 2 78  401713.2     24.9   0.000048313   0.00077   0.01852   0.01957   0.00635
 2 79  401725.3     24.9   0.000550284   0.00873   0.06958   0.04241   0.04568
 2 80  401728.5     24.9   0.000178435   0.00283   0.03446   0.03874   0.01190
 2 81  402302.4     24.9   0.002380653   0.03770   0.11605   0.04644   0.14858
 2 82  402312.4     24.9   0.000000007   0.00000   0.00010   0.00032   0.00003
 2 83  402313.0     24.9   0.000003473   0.00005   0.00564   0.00315   0.00365
 2 84  403633.3     24.8   0.000045761   0.00072   0.00330   0.02051   0.01705
 2 85  403637.9     24.8   0.000056205   0.00089   0.01698   0.02433   0.00268
 2 86  403697.0     24.8   0.000556808   0.00879   0.01233   0.08784   0.03032
 2 87  403813.1     24.8   0.026340507   0.41557   0.34451   0.54486   0.00255
 2 88  403865.6     24.8   0.000262024   0.00413   0.04072   0.04859   0.01069
 2 89  403871.2     24.8   0.000002670   0.00004   0.00017   0.00514   0.00396
 2 90  404368.5     24.7   0.000017725   0.00028   0.01261   0.00787   0.00764
 2 91  404377.4     24.7   0.000704475   0.01110   0.01870   0.07765   0.06870
 2 92  404380.4     24.7   0.000020971   0.00033   0.01315   0.00607   0.01098
 2 93  405314.0     24.7   0.000006901   0.00011   0.00715   0.00707   0.00272
 2 94  405315.1     24.7   0.000000364   0.00001   0.00170   0.00010   0.00168
 2 95  405317.7     24.7   0.000125539   0.00197   0.02422   0.03724   0.00018
 2 96  405322.7     24.7   0.000002423   0.00004   0.00300   0.00537   0.00048
 2 97  405323.0     24.7   0.000007383   0.00012   0.00587   0.00903   0.00009
 2 98  405667.8     24.7   0.007951722   0.12488   0.21642   0.27633   0.04109
 2 99  405680.3     24.6   0.000000547   0.00001   0.00204   0.00201   0.00060
 2 100  405680.8     24.6   0.000039609   0.00062   0.01622   0.01839   0.00457
 2 101  406085.4     24.6   0.000077059   0.00121   0.02646   0.01389   0.01777
 2 102  406089.1     24.6   0.011730801   0.18404   0.24872   0.34889   0.02134
 2 103  406090.2     24.6   0.010871690   0.17056   0.23951   0.33581   0.02060
 2 104  407651.6     24.5   0.039637920   0.61948   0.48615   0.60923   0.10941
 2 105  407651.9     24.5   0.031812650   0.49718   0.47091   0.49831   0.16465
 2 106  407657.5     24.5   0.001051975   0.01644   0.07639   0.10216   0.01299
 2 107  407880.3     24.5   0.000039693   0.00062   0.00784   0.01529   0.01802
 2 108  407881.9     24.5   0.001774975   0.02772   0.11462   0.11155   0.04631
 2 109  407890.0     24.5   0.009658394   0.15086   0.18947   0.16203   0.29783
 2 110  408792.3     24.5   0.000039759   0.00062   0.01792   0.00206   0.01715
 2 111  408794.6     24.5   0.000123739   0.00193   0.03173   0.00246   0.03025
 2 112  408801.1     24.5   0.089316245   1.39194   0.55735   0.51813   0.90158
 2 113  408835.0     24.5   0.000648718   0.01011   0.04298   0.04989   0.07597
 2 114  408840.1     24.5   0.001642876   0.02560   0.05597   0.09380   0.11692
 2 115  408840.9     24.5   0.000126172   0.00197   0.01261   0.04030   0.01354
 2 116  408852.8     24.5   0.000015428   0.00024   0.00668   0.00761   0.01174
 2 117  408852.8     24.5   0.000036807   0.00057   0.01376   0.00676   0.01840
 2 118  409739.0     24.4   0.000020291   0.00032   0.01090   0.00356   0.01357
 2 119  409742.6     24.4   0.000055179   0.00086   0.00717   0.02661   0.00992
 2 120  409762.0     24.4   0.002247966   0.03495   0.11783   0.03197   0.14158
 2 121  410071.0     24.4   0.004952114   0.07694   0.10248   0.15529   0.20572
 2 122  410100.5     24.4   0.000033179   0.00052   0.00895   0.01206   0.01703
 2 123  410100.9     24.4   0.000010795   0.00017   0.00875   0.00089   0.00951
 2 124  410819.1     24.3   0.000800935   0.01242   0.05574   0.04521   0.08527
 2 125  410819.6     24.3   0.007838368   0.12156   0.17138   0.14524   0.26663
 2 126  410820.3     24.3   0.000007005   0.00011   0.00079   0.00832   0.00622
 2 127  412863.3     24.2   0.031339842   0.48361   0.38459   0.57939   0.00181
 2 128  412865.3     24.2   0.000036787   0.00057   0.01239   0.02032   0.00118
 2 129  412865.6     24.2   0.000049900   0.00077   0.01408   0.02383   0.00190
 2 130  416338.8     24.0   0.000000537   0.00001   0.00213   0.00149   0.00120
 2 131  416339.4     24.0   0.000005283   0.00008   0.00606   0.00635   0.00197
 2 132  416342.6     24.0   0.000298858   0.00457   0.05095   0.03308   0.02971
 2 133  418088.8     23.9   0.000004161   0.00006   0.00335   0.00709   0.00139
 2 134  418089.2     23.9   0.000017299   0.00026   0.00442   0.01477   0.00509
 2 135  418196.6     23.9   0.008330518   0.12691   0.21118   0.28587   0.02430
 2 136  418235.0     23.9   0.001961048   0.02987   0.09684   0.14278   0.01036
 2 137  418351.2     23.9   0.000012182   0.00019   0.00843   0.01060   0.00149
 2 138  418351.3     23.9   0.000001593   0.00002   0.00157   0.00453   0.00114
 2 139  420539.3     23.8   0.000432703   0.00656   0.04104   0.06979   0.00040
 2 140  420539.3     23.8   0.000757501   0.01148   0.05527   0.09174   0.00199
 2 141  420543.1     23.8   0.000001406   0.00002   0.00250   0.00155   0.00356
 2 142  423579.5     23.6   0.000000064   0.00000   0.00068   0.00068   0.00022
 2 143  423583.9     23.6   0.000006015   0.00009   0.00080   0.00757   0.00570
 2 144  423584.0     23.6   0.000052458   0.00079   0.01456   0.01020   0.02175
 2 145  487675.3     20.5   0.000000480   0.00001   0.00120   0.00092   0.00200
 2 146  487675.3     20.5   0.001680334   0.02195   0.07556   0.05081   0.11688
 2 147  487675.4     20.5   0.000010178   0.00013   0.00590   0.00393   0.00909
 2 148  500638.3     20.0   0.000001243   0.00002   0.00192   0.00146   0.00316
 2 149  500638.4     20.0   0.000001507   0.00002   0.00222   0.00154   0.00345
 2 150  500639.2     20.0   0.001669931   0.02125   0.07501   0.04977   0.11466
 2 151  546473.1     18.3   0.000076658   0.00089   0.00817   0.00097   0.02874
 2 152  546474.0     18.3   0.000000025   0.00000   0.00010   0.00002   0.00053
 2 153  546474.1     18.3   0.000000099   0.00000   0.00027   0.00006   0.00104
 2 154  640188.6     15.6   0.000001484   0.00001   0.00288   0.00233   0.00100
 2 155  640188.8     15.6   0.000000009   0.00000   0.00022   0.00004   0.00020
 2 156  640188.9     15.6   0.002634869   0.02622   0.12275   0.09759   0.04036
 2 157  976131.9     10.2   0.000814849   0.00532   0.00921   0.06479   0.03218
 2 158  976131.9     10.2   0.000027768   0.00018   0.00170   0.01196   0.00594
 2 159  976132.0     10.2   0.000000005   0.00000   0.00002   0.00017   0.00007

------------------------------------------------------------------------------
                           SOC CORRECTED DIPOLE MOMENTS
------------------------------------------------------------------------------
      TX        TY        TZ           |T|
   (Debye)   (Debye)   (Debye)      (Debye)
------------------------------------------------------------------------------
 -22.56693 -70.80725  18.78060     76.65275

--------------
CASSCF TIMINGS
--------------

Total time                       ...     2750.5 sec
Sum of individual times          ...     2754.6 sec (100.1%)

Calculation of AO operators
   F(Core) operator              ...       44.4 sec (  1.6%)
   G(Act) operator               ...       42.8 sec (  1.6%)
   J(AO) operators               ...        0.0 sec (  0.0%)
Calculation of MO transformed quantities
   J(MO) operators               ...        4.9 sec (  0.2%)
   (pq|rs) integrals             ...        0.0 sec (  0.0%)
   AO->MO one electron integrals ...        0.2 sec (  0.0%)
Configuration interaction steps
   CI-setup phase                ...        0.0 sec (  0.0%)
   CI-solution phase             ...        0.1 sec (  0.0%)
   Generation of densities       ...        0.0 sec (  0.0%)
Orbital improvement steps
   Orbital gradient              ...        0.0 sec (  0.0%)
   O(1) converger                ...        0.5 sec (  0.0%)
PT2 
   NEVPT2 time                   ...     2641.9 sec ( 96.1%)
Properties                       ...       10.4 sec (  0.4%)
   SOC integral calculation      ...        9.2 sec (  0.3%)
   SSC RMEs (incl. integrals)    ...        0.0 sec (  0.0%)
   SOC RMEs                      ...        0.0 sec (  0.0%)

Maximum memory used throughout the entire CASSCF-calculation: 1129.5 MB

-------------------------   --------------------
FINAL SINGLE POINT ENERGY     -2666.940571451353
-------------------------   --------------------


                            ***************************************
                            *     ORCA property calculations      *
                            ***************************************

                                    ---------------------
                                    Active property flags
                                    ---------------------
   (+) Dipole Moment


------------------------------------------------------------------------------
                       ORCA ELECTRIC PROPERTIES CALCULATION
------------------------------------------------------------------------------

Dipole Moment Calculation                       ... on
Quadrupole Moment Calculation                   ... off
Polarizability Calculation                      ... off
GBWName                                         ... nevpt2.gbw
Electron density                                ... nevpt2.scfp
The origin for moment calculation is the CENTER OF MASS  = (15.969215, 12.777085 15.766686)

-------------
DIPOLE MOMENT
-------------
                                X             Y             Z
Electronic contribution:      9.22490      27.58290      -7.03086
Nuclear contribution   :     -8.87833     -27.85715       7.38871
                        -----------------------------------------
Total Dipole Moment    :      0.34657      -0.27425       0.35785
                        -----------------------------------------
Magnitude (a.u.)       :      0.56866
Magnitude (Debye)      :      1.44543



--------------------
Rotational spectrum 
--------------------
 
Rotational constants in cm-1:     0.001761     0.001025     0.000952 
Rotational constants in MHz :    52.782073    30.737114    28.548189 

 Dipole components along the rotational axes: 
x,y,z [a.u.] :     0.338775     0.010262     0.456622 
x,y,z [Debye]:     0.861098     0.026085     1.160640 

 

Timings for individual modules:

Sum of individual times         ...     2763.078 sec (=  46.051 min)
GTO integral calculation        ...        6.791 sec (=   0.113 min)   0.2 %
SCF iterations                  ...        2.812 sec (=   0.047 min)   0.1 %
CASSCF iterations               ...     2753.476 sec (=  45.891 min)  99.7 %
                             ****ORCA TERMINATED NORMALLY****
TOTAL RUN TIME: 0 days 0 hours 46 minutes 3 seconds 572 msec
