
                                 *****************
                                 * O   R   C   A *
                                 *****************

                                            #,                                       
                                            ###                                      
                                            ####                                     
                                            #####                                    
                                            ######                                   
                                           ########,                                 
                                     ,,################,,,,,                         
                               ,,#################################,,                 
                          ,,##########################################,,             
                       ,#########################################, ''#####,          
                    ,#############################################,,   '####,        
                  ,##################################################,,,,####,       
                ,###########''''           ''''###############################       
              ,#####''   ,,,,##########,,,,          '''####'''          '####       
            ,##' ,,,,###########################,,,                        '##       
           ' ,,###''''                  '''############,,,                           
         ,,##''                                '''############,,,,        ,,,,,,###''
      ,#''                                            '''#######################'''  
     '                                                          ''''####''''         
             ,#######,   #######,   ,#######,      ##                                
            ,#'     '#,  ##    ##  ,#'     '#,    #''#        ######   ,####,        
            ##       ##  ##   ,#'  ##            #'  '#       #        #'  '#        
            ##       ##  #######   ##           ,######,      #####,   #    #        
            '#,     ,#'  ##    ##  '#,     ,#' ,#      #,         ##   #,  ,#        
             '#######'   ##     ##  '#######'  #'      '#     #####' # '####'        



                  #######################################################
                  #                        -***-                        #
                  #          Department of theory and spectroscopy      #
                  #    Directorship and core code : Frank Neese         #
                  #        Max Planck Institute fuer Kohlenforschung    #
                  #                Kaiser Wilhelm Platz 1               #
                  #                 D-45470 Muelheim/Ruhr               #
                  #                      Germany                        #
                  #                                                     #
                  #                  All rights reserved                #
                  #                        -***-                        #
                  #######################################################


                         Program Version 5.0.3 -  RELEASE  -


 With contributions from (in alphabetic order):
   Daniel Aravena         : Magnetic Suceptibility
   Michael Atanasov       : Ab Initio Ligand Field Theory (pilot matlab implementation)
   Alexander A. Auer      : GIAO ZORA, VPT2 properties, NMR spectrum
   Ute Becker             : Parallelization
   Giovanni Bistoni       : ED, misc. LED, open-shell LED, HFLD
   Martin Brehm           : Molecular dynamics
   Dmytro Bykov           : SCF Hessian
   Vijay G. Chilkuri      : MRCI spin determinant printing, contributions to CSF-ICE
   Dipayan Datta          : RHF DLPNO-CCSD density
   Achintya Kumar Dutta   : EOM-CC, STEOM-CC
   Dmitry Ganyushin       : Spin-Orbit,Spin-Spin,Magnetic field MRCI
   Miquel Garcia          : C-PCM and meta-GGA Hessian, CC/C-PCM, Gaussian charge scheme
   Yang Guo               : DLPNO-NEVPT2, F12-NEVPT2, CIM, IAO-localization
   Andreas Hansen         : Spin unrestricted coupled pair/coupled cluster methods
   Benjamin Helmich-Paris : MC-RPA, TRAH-SCF, COSX integrals
   Lee Huntington         : MR-EOM, pCC
   Robert Izsak           : Overlap fitted RIJCOSX, COSX-SCS-MP3, EOM
   Marcus Kettner         : VPT2
   Christian Kollmar      : KDIIS, OOCD, Brueckner-CCSD(T), CCSD density, CASPT2, CASPT2-K
   Simone Kossmann        : Meta GGA functionals, TD-DFT gradient, OOMP2, MP2 Hessian
   Martin Krupicka        : Initial AUTO-CI
   Lucas Lang             : DCDCAS
   Marvin Lechner         : AUTO-CI (C++ implementation), FIC-MRCC
   Dagmar Lenk            : GEPOL surface, SMD
   Dimitrios Liakos       : Extrapolation schemes; Compound Job, initial MDCI parallelization
   Dimitrios Manganas     : Further ROCIS development; embedding schemes
   Dimitrios Pantazis     : SARC Basis sets
   Anastasios Papadopoulos: AUTO-CI, single reference methods and gradients
   Taras Petrenko         : DFT Hessian,TD-DFT gradient, ASA, ECA, R-Raman, ABS, FL, XAS/XES, NRVS
   Peter Pinski           : DLPNO-MP2, DLPNO-MP2 Gradient
   Christoph Reimann      : Effective Core Potentials
   Marius Retegan         : Local ZFS, SOC
   Christoph Riplinger    : Optimizer, TS searches, QM/MM, DLPNO-CCSD(T), (RO)-DLPNO pert. Triples
   Tobias Risthaus        : Range-separated hybrids, TD-DFT gradient, RPA, STAB
   Michael Roemelt        : Original ROCIS implementation
   Masaaki Saitow         : Open-shell DLPNO-CCSD energy and density
   Barbara Sandhoefer     : DKH picture change effects
   Avijit Sen             : IP-ROCIS
   Kantharuban Sivalingam : CASSCF convergence, NEVPT2, FIC-MRCI
   Bernardo de Souza      : ESD, SOC TD-DFT
   Georgi Stoychev        : AutoAux, RI-MP2 NMR, DLPNO-MP2 response
   Willem Van den Heuvel  : Paramagnetic NMR
   Boris Wezisla          : Elementary symmetry handling
   Frank Wennmohs         : Technical directorship


 We gratefully acknowledge several colleagues who have allowed us to
 interface, adapt or use parts of their codes:
   Stefan Grimme, W. Hujo, H. Kruse, P. Pracht,  : VdW corrections, initial TS optimization,
                  C. Bannwarth, S. Ehlert          DFT functionals, gCP, sTDA/sTD-DF
   Ed Valeev, F. Pavosevic, A. Kumar             : LibInt (2-el integral package), F12 methods
   Garnet Chan, S. Sharma, J. Yang, R. Olivares  : DMRG
   Ulf Ekstrom                                   : XCFun DFT Library
   Mihaly Kallay                                 : mrcc  (arbitrary order and MRCC methods)
   Jiri Pittner, Ondrej Demel                    : Mk-CCSD
   Frank Weinhold                                : gennbo (NPA and NBO analysis)
   Christopher J. Cramer and Donald G. Truhlar   : smd solvation model
   Lars Goerigk                                  : TD-DFT with DH, B97 family of functionals
   V. Asgeirsson, H. Jonsson                     : NEB implementation
   FAccTs GmbH                                   : IRC, NEB, NEB-TS, DLPNO-Multilevel, CI-OPT
                                                   MM, QMMM, 2- and 3-layer-ONIOM, Crystal-QMMM,
                                                   LR-CPCM, SF, NACMEs, symmetry and pop. for TD-DFT,
                                                   nearIR, NL-DFT gradient (VV10), updates on ESD,
                                                   ML-optimized integration grids
   S Lehtola, MJT Oliveira, MAL Marques          : LibXC Library
   Liviu Ungur et al                             : ANISO software


 Your calculation uses the libint2 library for the computation of 2-el integrals
 For citations please refer to: http://libint.valeyev.net

 Your ORCA version has been built with support for libXC version: 5.1.0
 For citations please refer to: https://tddft.org/programs/libxc/

 This ORCA versions uses:
   CBLAS   interface :  Fast vector & matrix operations
   LAPACKE interface :  Fast linear algebra routines
   SCALAPACK package :  Parallel linear algebra routines
   Shared memory     :  Shared parallel matrices
   BLAS/LAPACK       :  OpenBLAS 0.3.15  USE64BITINT DYNAMIC_ARCH NO_AFFINITY Haswell SINGLE_THREADED
        Core in use  :  Haswell
   Copyright (c) 2011-2014, The OpenBLAS Project




***************************************
The coordinates will be read from file: pbe.xyz
***************************************


================================================================================

cite the ECPs for Au [Def2-ECP] as follows:
Ce-Yb(ecp-28): M. Dolg, H. Stoll, H.Preuss, J. Chem. Phys., 1989, 90, 1730-1734.
Y-Cd(ecp-28), Hf-Hg(ecp-46): D. Andrae,U. Haeussermann, M. Dolg, H. Stoll, H. Preuss, Theor. Chim. Acta, 1990, 77, 123-141.
In-Sb(ecp-28), Tl-Bi(ecp-46): B. Metz, H. Stoll, M. Dolg, J. Chem. Phys., 2000, 113, 2563-2569.
Te-Xe(ecp-28), Po-Rn(ecp-46): K. A. Peterson, D. Figgen, E. Goll, H. Stoll, M. Dolg, J. Chem. Phys., 2003, 119, 11113-11123.
Rb(ecp-28), Cs(ecp-46): T. Leininger, A. Nicklass, W. Kuechle, H. Stoll, M. Dolg, A. Bergner, Chem. Phys. Lett., 1996, 255, 274-280.
Sr(ecp-28), Ba(ecp-46): M. Kaupp, P. V. Schleyer, H. Stoll and H. Preuss, J. Chem. Phys., 1991, 94, 1360-1366.
La(ecp-46): M. Dolg, H. Stoll, A. Savin, H. Preuss, Theor. Chim. Acta, 1989, 75, 173-194.
Lu(ecp-28): X. Cao, M. Dolg, J. Chem. Phys., 2001, 115, 7348-7355.

ECP parameters for Au [Def2-ECP] have been obtained from:
TURBOMOLE (7.0.2)

----- Orbital basis set information -----
Your calculation utilizes the basis: def2-TZVP
   F. Weigend and R. Ahlrichs, Phys. Chem. Chem. Phys. 7, 3297 (2005).

----- AuxJ basis set information -----
Your calculation utilizes the auxiliary basis: def2/J
   F. Weigend, Phys. Chem. Chem. Phys. 8, 1057 (2006).

----- AuxC basis set information -----
Your calculation utilizes the auxiliary basis: def2-TZVP/C
  H-La, Hf-Rn : A. Hellweg, C. Hattig, S. Hofener and W. Klopper, Theor. Chem. Acc. 117, 587 (2007).
        Ce-Lu : J. Chmela and M. E. Harding, Mol. Phys. (2018).

================================================================================
                                        WARNINGS
                       Please study these warnings very carefully!
================================================================================


IMPORTANT NOTE: CASSCF must signal convergence for a subsequent CASPT2/NEVPT2! 
                Set maxiter=1 to run CASPT2/NEVPT2 with arbitrary orbitals.


INFO   : the flag for use of the SHARK integral package has been found!

================================================================================
                                       INPUT FILE
================================================================================
NAME = nevpt2.inp
|  1> !SC-NEVPT2 def2-TZVP def2-TZVP/C
|  2> !MOREAD RIJCOSX def2/J
|  3> %maxcore 4000
|  4> %moinp "casscf.gbw"
|  5> %pal nprocs 6 end 
|  6> 
|  7> %casscf
|  8>  mult 5,3
|  9>  bweight 1,1
| 10>  nroots 5,45
| 11>  nel 6
| 12>  norb 5
| 13>  ptsettings
| 14>   d4tpre 1e-14 # default = 1e-10
| 15>   d3tpre 1e-14
| 16>  end
| 17>  rel           
| 18>    dosoc true   
| 19>    gtensor true 
| 20>  end           
| 21> end
| 22> 
| 23> 
| 24> *xyzfile 0 5 pbe.xyz
| 25> 
| 26> 
| 27>                          ****END OF INPUT****
================================================================================

                       ****************************
                       * Single Point Calculation *
                       ****************************

---------------------------------
CARTESIAN COORDINATES (ANGSTROEM)
---------------------------------
  Au     8.529058    6.915375    9.671709
  Au     8.465609    5.098995    7.410940
  Au     7.916520    6.529139    5.045373
  Au     7.635500    9.873369    6.091442
  Au     9.694720    8.628198    4.565777
  Au     9.738556    7.513219    7.137666
  Au    10.321804   10.203529    6.823403
  Au     8.351454    9.563151    8.754315
  Au     6.087105    8.350551    9.837938
  Au     4.326100    7.087755    8.006004
  Au     5.272994    9.688841    7.532837
  Au     5.208635   10.411787    4.795093
  Au     7.095101    8.727271    3.536736
  Au     5.789799    5.210814    6.346584
  Au     5.220906    7.697898    5.346475
  Au     6.228730    5.367573    9.169870
  Fe     6.978626    7.408132    7.488571

----------------------------
CARTESIAN COORDINATES (A.U.)
----------------------------
  NO LB      ZA    FRAG     MASS         X           Y           Z
   0 Au   19.0000*   0   196.966   16.117584   13.068166   18.276881
   1 Au   19.0000*   0   196.966   15.997683    9.635705   14.004647
   2 Au   19.0000*   0   196.966   14.960054   12.338284    9.534374
   3 Au   19.0000*   0   196.966   14.429004   18.657963   11.511157
   4 Au   19.0000*   0   196.966   18.320366   16.304932    8.628068
   5 Au   19.0000*   0   196.966   18.403204   14.197926   13.488233
   6 Au   19.0000*   0   196.966   19.505382   19.281875   12.894364
   7 Au   19.0000*   0   196.966   15.781960   18.071737   16.543259
   8 Au   19.0000*   0   196.966   11.502961   15.780254   18.591009
   9 Au   19.0000*   0   196.966    8.175145   13.393917   15.129155
  10 Au   19.0000*   0   196.966    9.964514   18.309256   14.234999
  11 Au   19.0000*   0   196.966    9.842894   19.675427    9.061412
  12 Au   19.0000*   0   196.966   13.407797   16.492151    6.683462
  13 Au   19.0000*   0   196.966   10.941134    9.847012   11.993306
  14 Au   19.0000*   0   196.966    9.866082   14.546919   10.103374
  15 Au   19.0000*   0   196.966   11.770595   10.143244   17.328543
  16 Fe   26.0000    0    55.850   13.187691   13.999340   14.151348
* core charge reduced due to ECP

--------------------------------
INTERNAL COORDINATES (ANGSTROEM)
--------------------------------
 Au     0   0   0     0.000000000000     0.00000000     0.00000000
 Au     1   0   0     2.900747618570     0.00000000     0.00000000
 Au     2   1   0     2.818282406517   109.91869649     0.00000000
 Au     3   2   1     3.515267218895   104.39231716     0.86517694
 Au     3   2   1     2.792500557772   113.67401795    55.51236830
 Au     2   1   3     2.742908682744    61.07635467    42.71465080
 Au     6   2   1     2.770686819817   164.49973700   284.39804251
 Au     4   3   2     2.774836655965    99.12494895     5.52443865
 Au     8   4   3     2.787815481848   102.24394286   286.05401637
 Au     9   8   4     2.837564019956   116.53217933    19.40631204
 Au     4   3   2     2.773644796552    99.17468329   291.06146121
 Au     4   3   2     2.803585239764    96.56357540   229.43223219
 Au     3   2   1     2.789713364700   155.66151253   345.95211023
 Au     3   2   1     2.820296481247    61.47465120   262.18606879
 Au    14   3   2     2.740336516633    64.14605349   139.26187604
 Au    10   9   8     2.816666721745    65.53148009    94.41022698
 Fe     9   8   4     2.683745438383    62.78403234    44.66294126

---------------------------
INTERNAL COORDINATES (A.U.)
---------------------------
 Au     0   0   0     0.000000000000     0.00000000     0.00000000
 Au     1   0   0     5.481618582721     0.00000000     0.00000000
 Au     2   1   0     5.325781916365   109.91869649     0.00000000
 Au     3   2   1     6.642892331263   104.39231716     0.86517694
 Au     3   2   1     5.277061283011   113.67401795    55.51236830
 Au     2   1   3     5.183346220742    61.07635467    42.71465080
 Au     6   2   1     5.235839292319   164.49973700   284.39804251
 Au     4   3   2     5.243681346140    99.12494895     5.52443865
 Au     8   4   3     5.268207772598   102.24394286   286.05401637
 Au     9   8   4     5.362218885186   116.53217933    19.40631204
 Au     4   3   2     5.241429058260    99.17468329   291.06146121
 Au     4   3   2     5.298008296258    96.56357540   229.43223219
 Au     3   2   1     5.271794251424   155.66151253   345.95211023
 Au     3   2   1     5.329587966018    61.47465120   262.18606879
 Au    14   3   2     5.178485531221    64.14605349   139.26187604
 Au    10   9   8     5.322728714628    65.53148009    94.41022698
 Fe     9   8   4     5.071543891705    62.78403234    44.66294126

---------------------
BASIS SET INFORMATION
---------------------
There are 2 groups of distinct atoms

 Group   1 Type Au  : 8s7p6d1f contracted to 6s4p3d1f pattern {311111/4111/411/1}
 Group   2 Type Fe  : 17s11p7d1f contracted to 6s4p4d1f pattern {842111/6311/4111/1}

Atom   0Au   basis set group =>   1
Atom   1Au   basis set group =>   1
Atom   2Au   basis set group =>   1
Atom   3Au   basis set group =>   1
Atom   4Au   basis set group =>   1
Atom   5Au   basis set group =>   1
Atom   6Au   basis set group =>   1
Atom   7Au   basis set group =>   1
Atom   8Au   basis set group =>   1
Atom   9Au   basis set group =>   1
Atom  10Au   basis set group =>   1
Atom  11Au   basis set group =>   1
Atom  12Au   basis set group =>   1
Atom  13Au   basis set group =>   1
Atom  14Au   basis set group =>   1
Atom  15Au   basis set group =>   1
Atom  16Fe   basis set group =>   2
---------------------------------
AUXILIARY/J BASIS SET INFORMATION
---------------------------------
There are 2 groups of distinct atoms

 Group   1 Type Au  : 11s5p5d3f3g contracted to 8s5p5d2f3g pattern {41111111/11111/11111/21/111}
 Group   2 Type Fe  : 19s5p5d3f3g contracted to 8s5p5d2f3g pattern {121111111/11111/11111/21/111}

Atom   0Au   basis set group =>   1
Atom   1Au   basis set group =>   1
Atom   2Au   basis set group =>   1
Atom   3Au   basis set group =>   1
Atom   4Au   basis set group =>   1
Atom   5Au   basis set group =>   1
Atom   6Au   basis set group =>   1
Atom   7Au   basis set group =>   1
Atom   8Au   basis set group =>   1
Atom   9Au   basis set group =>   1
Atom  10Au   basis set group =>   1
Atom  11Au   basis set group =>   1
Atom  12Au   basis set group =>   1
Atom  13Au   basis set group =>   1
Atom  14Au   basis set group =>   1
Atom  15Au   basis set group =>   1
Atom  16Fe   basis set group =>   2
---------------------------------
AUXILIARY/C BASIS SET INFORMATION
---------------------------------
There are 2 groups of distinct atoms

 Group   1 Type Au  : 8s8p7d5f3g2h contracted to 8s8p7d5f3g2h pattern {11111111/11111111/1111111/11111/111/11}
 Group   2 Type Fe  : 11s9p8d6f5g2h contracted to 9s8p8d6f5g2h pattern {311111111/21111111/11111111/111111/11111/11}

Atom   0Au   basis set group =>   1
Atom   1Au   basis set group =>   1
Atom   2Au   basis set group =>   1
Atom   3Au   basis set group =>   1
Atom   4Au   basis set group =>   1
Atom   5Au   basis set group =>   1
Atom   6Au   basis set group =>   1
Atom   7Au   basis set group =>   1
Atom   8Au   basis set group =>   1
Atom   9Au   basis set group =>   1
Atom  10Au   basis set group =>   1
Atom  11Au   basis set group =>   1
Atom  12Au   basis set group =>   1
Atom  13Au   basis set group =>   1
Atom  14Au   basis set group =>   1
Atom  15Au   basis set group =>   1
Atom  16Fe   basis set group =>   2
-------------------------
ECP PARAMETER INFORMATION
-------------------------

 Group 1, Type Au ECP Def2-ECP (replacing 60 core electrons, lmax=3)

Atom   0Au   ECP group =>   1
Atom   1Au   ECP group =>   1
Atom   2Au   ECP group =>   1
Atom   3Au   ECP group =>   1
Atom   4Au   ECP group =>   1
Atom   5Au   ECP group =>   1
Atom   6Au   ECP group =>   1
Atom   7Au   ECP group =>   1
Atom   8Au   ECP group =>   1
Atom   9Au   ECP group =>   1
Atom  10Au   ECP group =>   1
Atom  11Au   ECP group =>   1
Atom  12Au   ECP group =>   1
Atom  13Au   ECP group =>   1
Atom  14Au   ECP group =>   1
Atom  15Au   ECP group =>   1



           ************************************************************
           *        Program running with 6 parallel MPI-processes     *
           *              working on a common directory               *
           ************************************************************
------------------------------------------------------------------------------
                           ORCA GTO INTEGRAL CALCULATION
                           -- RI-GTO INTEGRALS CHOSEN --
------------------------------------------------------------------------------
------------------------------------------------------------------------------
                   ___                                                        
                  /   \      - P O W E R E D   B Y -                         
                 /     \                                                     
                 |  |  |   _    _      __       _____    __    __             
                 |  |  |  | |  | |    /  \     |  _  \  |  |  /  |          
                  \  \/   | |  | |   /    \    | | | |  |  | /  /          
                 / \  \   | |__| |  /  /\  \   | |_| |  |  |/  /          
                |  |  |   |  __  | /  /__\  \  |    /   |      \           
                |  |  |   | |  | | |   __   |  |    \   |  |\   \          
                \     /   | |  | | |  |  |  |  | |\  \  |  | \   \       
                 \___/    |_|  |_| |__|  |__|  |_| \__\ |__|  \__/        
                                                                              
                      - O R C A' S   B I G   F R I E N D -                    
                                      &                                       
                       - I N T E G R A L  F E E D E R -                       
                                                                              
 v1 FN, 2020, v2 2021                                                         
------------------------------------------------------------------------------


Reading SHARK input file nevpt2.SHARKINP.tmp ... ok
----------------------
SHARK INTEGRAL PACKAGE
----------------------

Number of atoms                             ...     17
Number of basis functions                   ...    685
Number of shells                            ...    239
Maximum angular momentum                    ...      3
Integral batch strategy                     ... SHARK/LIBINT Hybrid
RI-J (if used) integral strategy            ... SPLIT-RIJ (Revised 2003 algorithm where possible)
Printlevel                                  ...      1
Contraction scheme used                     ... SEGMENTED contraction
Coulomb Range Separation                    ... NOT USED
Exchange Range Separation                   ... NOT USED
Finite Nucleus Model                        ... NOT USED
Auxiliary Coulomb fitting basis             ... AVAILABLE
   # of basis functions in Aux-J            ...   1513
   # of shells in Aux-J                     ...    391
   Maximum angular momentum in Aux-J        ...      4
Auxiliary J/K fitting basis                 ... NOT available
Auxiliary Correlation fitting basis         ... AVAILABLE
   # of basis functions in Aux-C            ...   2598
   # of shells in Aux-C                     ...    566
   Maximum angular momentum in Aux-C        ...      5
Auxiliary 'external' fitting basis          ... NOT available
Integral threshold                          ...     1.000000e-10
Primitive cut-off                           ...     1.000000e-11
Primitive pair pre-selection threshold      ...     1.000000e-11

Calculating pre-screening integrals         ... done (  0.1 sec) Dimension = 239
Organizing shell pair data                  ... done (  0.4 sec)
Shell pair information
Total number of shell pairs                 ...     28680
Shell pairs after pre-screening             ...     22419
Total number of primitive shell pairs       ...     75765
Primitive shell pairs kept                  ...     42699
          la=0 lb=0:   3560 shell pairs
          la=1 lb=0:   5102 shell pairs
          la=1 lb=1:   1921 shell pairs
          la=2 lb=0:   4458 shell pairs
          la=2 lb=1:   3140 shell pairs
          la=2 lb=2:   1292 shell pairs
          la=3 lb=0:   1158 shell pairs
          la=3 lb=1:    890 shell pairs
          la=3 lb=2:    778 shell pairs
          la=3 lb=3:    120 shell pairs

Calculating one electron integrals          ... done (  0.0 sec)
Calculating ECP integrals                   ... done ( 11.5 sec)
Calculating RI/J V-Matrix + Cholesky decomp.... done (  0.1 sec)
Calculating RI/C V-Matrix + Cholesky decomp.... done (  0.3 sec)
Calculating Nuclear repulsion               ... done (  0.0 sec) ENN=   7143.374045434628 Eh

SHARK setup successfully completed in  12.7 seconds

Maximum memory used throughout the entire GTOINT-calculation: 61.1 MB


           ************************************************************
           *        Program running with 6 parallel MPI-processes     *
           *              working on a common directory               *
           ************************************************************
-------------------------------------------------------------------------------
                                 ORCA SCF
-------------------------------------------------------------------------------

------------
SCF SETTINGS
------------
Hamiltonian:
 Ab initio Hamiltonian  Method          .... Hartree-Fock(GTOs)
 RI-approximation to the Coulomb term is turned on
   Number of AuxJ basis functions       .... 1513
   RIJ-COSX (HFX calculated with COS-X)).... on


General Settings:
 Integral files         IntName         .... nevpt2
 Hartree-Fock type      HFTyp           .... CASSCF
 Total Charge           Charge          ....    0
 Multiplicity           Mult            ....    5
 Number of Electrons    NEL             ....  330
 Basis Dimension        Dim             ....  685
 Nuclear Repulsion      ENuc            ....   7143.3740454346 Eh


Diagonalization of the overlap matrix:
Smallest eigenvalue                        ... 2.575e-04
Time for diagonalization                   ...    0.054 sec
Threshold for overlap eigenvalues          ... 1.000e-08
Number of eigenvalues below threshold      ... 0
Time for construction of square roots      ...    0.041 sec
Total time needed                          ...    0.097 sec

---------------------
INITIAL GUESS: MOREAD
---------------------
Guess MOs are being read from file: casscf.gbw
Input Geometry matches current geometry (good)
Input basis set matches current basis set (good)
MOs were renormalized
Gram-Schmidt orthogonalization of all MOs with pivot on actives
                      ------------------
                      INITIAL GUESS DONE (   2.8 sec)
                      ------------------
--------------------
COSX GRID GENERATION
--------------------

GRIDX 1
-------
General Integration Accuracy     IntAcc      ... 3.816
Radial Grid Type                 RadialGrid  ... OptM3 with GC (2021)
Angular Grid (max. ang.)         AngularGrid ... 1 (Lebedev-50)
Angular grid pruning method      GridPruning ... 4 (adaptive)
Weight generation scheme         WeightScheme... Becke
Basis function cutoff            BFCut       ... 1.0000e-10
Integration weight cutoff        WCut        ... 1.0000e-14
Angular grids for H and He will be reduced by one unit
Partially contracted basis set               ... on
Rotationally invariant grid construction     ... off

Total number of grid points                  ...    19515
Total number of batches                      ...      314
Average number of points per batch           ...       62
Average number of grid points per atom       ...     1148
UseSFitting                                  ... on

GRIDX 2
-------
General Integration Accuracy     IntAcc      ... 4.020
Radial Grid Type                 RadialGrid  ... OptM3 with GC (2021)
Angular Grid (max. ang.)         AngularGrid ... 2 (Lebedev-110)
Angular grid pruning method      GridPruning ... 4 (adaptive)
Weight generation scheme         WeightScheme... Becke
Basis function cutoff            BFCut       ... 1.0000e-10
Integration weight cutoff        WCut        ... 1.0000e-14
Angular grids for H and He will be reduced by one unit
Partially contracted basis set               ... on
Rotationally invariant grid construction     ... off

Total number of grid points                  ...    59170
Total number of batches                      ...      935
Average number of points per batch           ...       63
Average number of grid points per atom       ...     3481
UseSFitting                                  ... on

GRIDX 3
-------
General Integration Accuracy     IntAcc      ... 4.338
Radial Grid Type                 RadialGrid  ... OptM3 with GC (2021)
Angular Grid (max. ang.)         AngularGrid ... 3 (Lebedev-194)
Angular grid pruning method      GridPruning ... 4 (adaptive)
Weight generation scheme         WeightScheme... Becke
Basis function cutoff            BFCut       ... 1.0000e-10
Integration weight cutoff        WCut        ... 1.0000e-14
Angular grids for H and He will be reduced by one unit
Partially contracted basis set               ... on
Rotationally invariant grid construction     ... off

Total number of grid points                  ...   107218
Total number of batches                      ...     1684
Average number of points per batch           ...       63
Average number of grid points per atom       ...     6307
UseSFitting                                  ... on

Time for X-Grid setup             =    1.533 sec



 ... the calculation is a CASSCF calculation -I'm leaving here GOOD LUCK!!!



           ************************************************************
           *        Program running with 6 parallel MPI-processes     *
           *              working on a common directory               *
           ************************************************************
-------------------------------------------------------------------------------
                              ORCA-CASSCF
-------------------------------------------------------------------------------

Setting up the integral package       ... done
Setting up the integral package (RI)  ... done
Building the CAS space                ... done (5 configurations for Mult=5)
Building the CAS space                ... done (35 configurations for Mult=3)

 CASSCF (estimated) memory needed     ... 192.6 MB
 NEVPT2 (estimated) memory needed     ... 763.8 MB


SYSTEM-SPECIFIC SETTINGS:
Number of active electrons          ...    6
Number of active orbitals           ...    5
Total number of electrons           ...  330
Total number of orbitals            ...  685
Total number aux. functions         ... 2598

Determined orbital ranges:
   Internal       0 -  161 ( 162 orbitals)
   Active       162 -  166 (   5 orbitals)
   External     167 -  684 ( 518 orbitals)
Number of rotation parameters      ...  87316

CI-STEP:
CI strategy                         ... General CI
Number of multiplicity blocks       ...    2
BLOCK  1 WEIGHT=   0.5000
  Multiplicity                      ...    5
  #(Configurations)                 ...    5
  #(CSFs)                           ...    5
  #(Roots)                          ...    5
    ROOT=0 WEIGHT=    0.100000
    ROOT=1 WEIGHT=    0.100000
    ROOT=2 WEIGHT=    0.100000
    ROOT=3 WEIGHT=    0.100000
    ROOT=4 WEIGHT=    0.100000

BLOCK  2 WEIGHT=   0.5000
  Multiplicity                      ...    3
  #(Configurations)                 ...   35
  #(CSFs)                           ...   45
  #(Roots)                          ...   45
    ROOT=0 WEIGHT=    0.011111
    ROOT=1 WEIGHT=    0.011111
    ROOT=2 WEIGHT=    0.011111
    ROOT=3 WEIGHT=    0.011111
    ROOT=4 WEIGHT=    0.011111
    ROOT=5 WEIGHT=    0.011111
    ROOT=6 WEIGHT=    0.011111
    ROOT=7 WEIGHT=    0.011111
    ROOT=8 WEIGHT=    0.011111
    ROOT=9 WEIGHT=    0.011111
    ROOT=10 WEIGHT=    0.011111
    ROOT=11 WEIGHT=    0.011111
    ROOT=12 WEIGHT=    0.011111
    ROOT=13 WEIGHT=    0.011111
    ROOT=14 WEIGHT=    0.011111
    ROOT=15 WEIGHT=    0.011111
    ROOT=16 WEIGHT=    0.011111
    ROOT=17 WEIGHT=    0.011111
    ROOT=18 WEIGHT=    0.011111
    ROOT=19 WEIGHT=    0.011111
    ROOT=20 WEIGHT=    0.011111
    ROOT=21 WEIGHT=    0.011111
    ROOT=22 WEIGHT=    0.011111
    ROOT=23 WEIGHT=    0.011111
    ROOT=24 WEIGHT=    0.011111
    ROOT=25 WEIGHT=    0.011111
    ROOT=26 WEIGHT=    0.011111
    ROOT=27 WEIGHT=    0.011111
    ROOT=28 WEIGHT=    0.011111
    ROOT=29 WEIGHT=    0.011111
    ROOT=30 WEIGHT=    0.011111
    ROOT=31 WEIGHT=    0.011111
    ROOT=32 WEIGHT=    0.011111
    ROOT=33 WEIGHT=    0.011111
    ROOT=34 WEIGHT=    0.011111
    ROOT=35 WEIGHT=    0.011111
    ROOT=36 WEIGHT=    0.011111
    ROOT=37 WEIGHT=    0.011111
    ROOT=38 WEIGHT=    0.011111
    ROOT=39 WEIGHT=    0.011111
    ROOT=40 WEIGHT=    0.011111
    ROOT=41 WEIGHT=    0.011111
    ROOT=42 WEIGHT=    0.011111
    ROOT=43 WEIGHT=    0.011111
    ROOT=44 WEIGHT=    0.011111

  PrintLevel                        ...    1
  N(GuessMat)                       ...       512
  MaxDim(CI)                        ...        10
  MaxIter(CI)                       ...        64
  Energy Tolerance CI               ...  1.00e-08
  Residual Tolerance CI             ...  1.00e-08
  Shift(CI)                         ...  1.00e-04

INTEGRAL-TRANSFORMATION-STEP:
  Algorithm                         ... RI-MO

ORBITAL-IMPROVEMENT-STEP:
  Algorithm                         ... SuperCI(PT)
  Default Parametrization           ... CAYLEY
  Act-Act rotations                 ... depends on algorithm used

  Note: SuperCI(PT) will ignore FreezeIE, FreezeAct and FreezeGrad. In general Default settings are encouraged.
        In conjunction with ShiftUp, ShiftDn or GradScaling the performance of SuperCI(PT) is less optimal.  

  MaxRot                            ... 2.00e-01 
  Max. no of vectors (DIIS)         ... 15
  DThresh (cut-off) metric          ... 1.00e-06
  Switch step at gradient           ...  3.00e-02 
  Switch step at iteration          ...        50   
  Switch step to                    ... SuperCI(PT)    

SCF-SETTINGS:
  Incremental                       ... off
  RIJCOSX approximation             ... on
  UseFinalGrid                      ... on
  RI-JK approximation               ... off
  AO integral handling              ... DIRECT
  Integral Neglect Thresh           ...  1.00e-10
  Primitive cutoff TCut             ...  1.00e-11
  Energy convergence tolerance      ...  1.00e-07
  Orbital gradient convergence      ...  1.00e-03
  Max. number of iterations         ...        75  

PT2-SETTINGS:
  A PT2 calculation will be performed on top of the CASSCF wave function (PT2 = SC-NEVPT2)   
 CI step strategy                   ... General CI
  D4C handling                      ... on the fly 
  CI truncation for D4C at          ...  1.00e-14
  CI truncation for D3  at          ...  1.00e-14
  Orbitals                          ... canonical for each state 
  Last  frozen  orbital             ... 4
  First deleted orbital             ... 685
  RI Step                           ... store IJV(array) (MC_ONDISK during integral transformation) 

PROPERTIES-SETTINGS:
  Spin orbit coupling               ... true
  GTensor                           ... true
  QDPT diagonal energies            ... NEVPT2 energies 

FINAL ORBITALS:
  Active   Orbitals                 ... natural 
  Internal Orbitals                 ... canonical 
  External Orbitals                 ... canonical 

------------------
CAS-SCF ITERATIONS
------------------


MACRO-ITERATION   1: 
   --- Inactive Energy E0 = -3403.58787905 Eh
CI-ITERATION   0: 
 -3419.466243947   0.000000000000 (    0.00)
 -3419.465813284   0.000000000000
 -3419.463776938   0.000000000000
 -3419.459077346   0.000000000000
 -3419.458791122   0.000000000000
   CI-PROBLEM SOLVED
   DENSITIES MADE
CI-ITERATION   0: 
 -3419.370878460   0.000000000000 (    0.00)
 -3419.370805086   0.000000000000
 -3419.369905463   0.000000000000
 -3419.369527886   0.000000000000
 -3419.369214931   0.000000000000
 -3419.368187401   0.000000000000
 -3419.367566416   0.000000000000
 -3419.366912652   0.000000000000
 -3419.366366128   0.000000000000
 -3419.366055847   0.000000000000
 -3419.365866606   0.000000000000
 -3419.358599557   0.000000000000
 -3419.357964045   0.000000000000
 -3419.357221838   0.000000000000
 -3419.354344523   0.000000000000
 -3419.353629853   0.000000000000
 -3419.353297810   0.000000000000
 -3419.353012973   0.000000000000
 -3419.352685016   0.000000000000
 -3419.351963515   0.000000000000
 -3419.351816297   0.000000000000
 -3419.344091553   0.000000000000
 -3419.343920066   0.000000000000
 -3419.343675233   0.000000000000
 -3419.342542755   0.000000000000
 -3419.341432639   0.000000000000
 -3419.340919409   0.000000000000
 -3419.340381722   0.000000000000
 -3419.339964184   0.000000000000
 -3419.339835643   0.000000000000
 -3419.307925938   0.000000000000
 -3419.307291538   0.000000000000
 -3419.306438172   0.000000000000
 -3419.305944257   0.000000000000
 -3419.304934667   0.000000000000
 -3419.208506710   0.000000000000
 -3419.208392331   0.000000000000
 -3419.206268037   0.000000000000
 -3419.205232620   0.000000000000
 -3419.204665782   0.000000000000
 -3419.203298952   0.000000000000
 -3419.202698239   0.000000000000
 -3419.198519929   0.000000000000
 -3419.196768809   0.000000000000
 -3419.193863011   0.000000000000
   CI-PROBLEM SOLVED
   DENSITIES MADE

                 <<<<<<<<<<<<<<<<<<INITIAL CI STATE CHECK>>>>>>>>>>>>>>>>>>

BLOCK  1 MULT= 5 NROOTS= 5 
ROOT   0:  E=   -3419.4662439468 Eh
      0.88327 [     1]: 11121
      0.09477 [     2]: 11211
      0.01409 [     3]: 12111
      0.00530 [     4]: 21111
      0.00257 [     0]: 11112
ROOT   1:  E=   -3419.4658132840 Eh  0.012 eV     94.5 cm**-1
      0.87557 [     0]: 11112
      0.11316 [     4]: 21111
      0.00869 [     1]: 11121
      0.00259 [     2]: 11211
ROOT   2:  E=   -3419.4637769376 Eh  0.067 eV    541.4 cm**-1
      0.72127 [     2]: 11211
      0.10203 [     1]: 11121
      0.09333 [     4]: 21111
      0.04807 [     3]: 12111
      0.03530 [     0]: 11112
ROOT   3:  E=   -3419.4590773456 Eh  0.195 eV   1572.9 cm**-1
      0.93766 [     3]: 12111
      0.05064 [     2]: 11211
      0.00818 [     4]: 21111
ROOT   4:  E=   -3419.4587911223 Eh  0.203 eV   1635.7 cm**-1
      0.78003 [     4]: 21111
      0.13073 [     2]: 11211
      0.08496 [     0]: 11112
      0.00410 [     1]: 11121

BLOCK  2 MULT= 3 NROOTS=45 
ROOT   0:  E=   -3419.3708784599 Eh
      0.18867 [    11]: 11121
      0.12473 [    10]: 11112
      0.10523 [    22]: 20112
      0.09017 [    13]: 11211
      0.08204 [     3]: 02112
      0.04995 [     1]: 01212
      0.04949 [    28]: 21111
      0.04328 [    26]: 21021
      0.03479 [     8]: 10221
      0.03366 [    18]: 12111
      0.03144 [     2]: 01221
      0.02826 [    25]: 21012
      0.02433 [    15]: 12012
      0.01947 [     7]: 10212
      0.01742 [    29]: 21120
      0.01330 [    27]: 21102
      0.01209 [    23]: 20121
      0.01064 [    14]: 11220
      0.00844 [    12]: 11202
      0.00674 [    16]: 12021
      0.00490 [     4]: 02121
      0.00392 [    20]: 12201
      0.00386 [     5]: 02211
      0.00319 [    34]: 22110
      0.00291 [    24]: 20211
ROOT   1:  E=   -3419.3708050865 Eh  0.002 eV     16.1 cm**-1
      0.22371 [    10]: 11112
      0.09357 [    23]: 20121
      0.07444 [    25]: 21012
      0.06755 [     7]: 10212
      0.06210 [    28]: 21111
      0.05967 [     4]: 02121
      0.05546 [    11]: 11121
      0.05160 [     1]: 01212
      0.04567 [    24]: 20211
      0.03632 [    13]: 11211
      0.03113 [    15]: 12012
      0.02943 [    22]: 20112
      0.02528 [     2]: 01221
      0.01701 [     5]: 02211
      0.01680 [     8]: 10221
      0.01610 [     3]: 02112
      0.01545 [    16]: 12021
      0.01288 [    29]: 21120
      0.01276 [    14]: 11220
      0.00968 [    18]: 12111
      0.00688 [    27]: 21102
      0.00685 [    19]: 12120
      0.00682 [    26]: 21021
      0.00594 [    17]: 12102
      0.00507 [    12]: 11202
      0.00297 [    32]: 22011
ROOT   2:  E=   -3419.3699054629 Eh  0.026 eV    213.5 cm**-1
      0.20186 [    23]: 20121
      0.19528 [    10]: 11112
      0.11992 [     7]: 10212
      0.10318 [     4]: 02121
      0.09716 [    28]: 21111
      0.08052 [    24]: 20211
      0.04208 [    21]: 12210
      0.02529 [     6]: 10122
      0.02297 [     5]: 02211
      0.01319 [    22]: 20112
      0.01291 [    16]: 12021
      0.01255 [    13]: 11211
      0.01144 [    17]: 12102
      0.00967 [     8]: 10221
      0.00923 [     9]: 11022
      0.00898 [    12]: 11202
      0.00792 [    25]: 21012
      0.00479 [    18]: 12111
      0.00473 [    34]: 22110
      0.00282 [    31]: 21210
ROOT   3:  E=   -3419.3695278864 Eh  0.037 eV    296.4 cm**-1
      0.13655 [     6]: 10122
      0.12613 [    26]: 21021
      0.12227 [    24]: 20211
      0.09121 [    19]: 12120
      0.07041 [    12]: 11202
      0.06837 [     5]: 02211
      0.06693 [    11]: 11121
      0.06524 [     9]: 11022
      0.04533 [    30]: 21201
      0.04532 [    10]: 11112
      0.02439 [     2]: 01221
      0.02358 [    18]: 12111
      0.02159 [    23]: 20121
      0.01858 [    27]: 21102
      0.01263 [    29]: 21120
      0.01137 [    14]: 11220
      0.01038 [    15]: 12012
      0.01008 [    22]: 20112
      0.00712 [     3]: 02112
      0.00578 [    21]: 12210
      0.00422 [    28]: 21111
      0.00300 [     0]: 01122
ROOT   4:  E=   -3419.3692149314 Eh  0.045 eV    365.1 cm**-1
      0.32695 [    13]: 11211
      0.21550 [    11]: 11121
      0.11323 [    22]: 20112
      0.06407 [     3]: 02112
      0.04636 [    18]: 12111
      0.04406 [    28]: 21111
      0.03976 [    31]: 21210
      0.03969 [     1]: 01212
      0.01865 [    26]: 21021
      0.01143 [     7]: 10212
      0.01142 [    16]: 12021
      0.01047 [    27]: 21102
      0.00948 [     8]: 10221
      0.00852 [     0]: 01122
      0.00841 [     2]: 01221
      0.00739 [    10]: 11112
      0.00500 [    29]: 21120
      0.00415 [    24]: 20211
      0.00280 [    12]: 11202
ROOT   5:  E=   -3419.3681874014 Eh  0.073 eV    590.6 cm**-1
      0.17012 [    11]: 11121
      0.16975 [    29]: 21120
      0.12939 [    13]: 11211
      0.12216 [    16]: 12021
      0.08206 [     0]: 01122
      0.05956 [    18]: 12111
      0.03524 [    22]: 20112
      0.02831 [    28]: 21111
      0.02571 [     8]: 10221
      0.02194 [    14]: 11220
      0.02132 [    20]: 12201
      0.01914 [    27]: 21102
      0.01725 [     4]: 02121
      0.01200 [     9]: 11022
      0.01141 [    10]: 11112
      0.00924 [    26]: 21021
      0.00829 [    32]: 22011
      0.00800 [     2]: 01221
      0.00711 [     7]: 10212
      0.00658 [    31]: 21210
      0.00597 [    23]: 20121
      0.00596 [     3]: 02112
      0.00584 [     5]: 02211
      0.00446 [    19]: 12120
      0.00282 [    34]: 22110
      0.00277 [    21]: 12210
ROOT   6:  E=   -3419.3675664163 Eh  0.090 eV    726.9 cm**-1
      0.31030 [    28]: 21111
      0.14581 [    10]: 11112
      0.10620 [     9]: 11022
      0.08823 [     5]: 02211
      0.05835 [    13]: 11211
      0.03841 [    14]: 11220
      0.03832 [    24]: 20211
      0.03456 [    18]: 12111
      0.03084 [     7]: 10212
      0.02345 [    11]: 11121
      0.02205 [     6]: 10122
      0.02167 [    15]: 12012
      0.02094 [    29]: 21120
      0.01605 [     0]: 01122
      0.01105 [    12]: 11202
      0.00876 [    21]: 12210
      0.00552 [    25]: 21012
      0.00277 [     1]: 01212
      0.00264 [    23]: 20121
ROOT   7:  E=   -3419.3669126523 Eh  0.108 eV    870.4 cm**-1
      0.23130 [    18]: 12111
      0.14283 [    11]: 11121
      0.11544 [    13]: 11211
      0.07643 [     1]: 01212
      0.06331 [    16]: 12021
      0.05206 [    31]: 21210
      0.04944 [    22]: 20112
      0.04817 [    10]: 11112
      0.03667 [     5]: 02211
      0.03196 [    20]: 12201
      0.03106 [    32]: 22011
      0.01898 [    14]: 11220
      0.01620 [    28]: 21111
      0.01520 [     3]: 02112
      0.01015 [     4]: 02121
      0.01006 [    15]: 12012
      0.00748 [     7]: 10212
      0.00708 [    12]: 11202
      0.00623 [     8]: 10221
      0.00527 [     9]: 11022
      0.00402 [    33]: 22101
      0.00339 [    21]: 12210
      0.00312 [    27]: 21102
      0.00306 [     2]: 01221
      0.00291 [    23]: 20121
      0.00267 [    25]: 21012
ROOT   8:  E=   -3419.3663661284 Eh  0.123 eV    990.3 cm**-1
      0.28681 [    10]: 11112
      0.09203 [    30]: 21201
      0.06138 [     4]: 02121
      0.05685 [    26]: 21021
      0.05405 [    18]: 12111
      0.05318 [    17]: 12102
      0.04554 [    23]: 20121
      0.04080 [    21]: 12210
      0.03195 [    19]: 12120
      0.03152 [     1]: 01212
      0.02973 [    13]: 11211
      0.02939 [    12]: 11202
      0.02600 [    15]: 12012
      0.02398 [    32]: 22011
      0.02259 [    14]: 11220
      0.01548 [    25]: 21012
      0.01399 [    28]: 21111
      0.01359 [    34]: 22110
      0.01310 [     5]: 02211
      0.01232 [     3]: 02112
      0.00798 [    16]: 12021
      0.00709 [     2]: 01221
      0.00655 [    33]: 22101
      0.00566 [     8]: 10221
      0.00541 [    11]: 11121
      0.00520 [    24]: 20211
      0.00321 [     9]: 11022
      0.00261 [    31]: 21210
ROOT   9:  E=   -3419.3660558475 Eh  0.131 eV   1058.4 cm**-1
      0.21641 [    13]: 11211
      0.16469 [    11]: 11121
      0.10992 [    18]: 12111
      0.06521 [    20]: 12201
      0.05355 [    34]: 22110
      0.04980 [    27]: 21102
      0.03642 [    28]: 21111
      0.03138 [    22]: 20112
      0.03061 [    16]: 12021
      0.02565 [    25]: 21012
      0.02326 [    12]: 11202
      0.02090 [     2]: 01221
      0.02006 [    21]: 12210
      0.01821 [     0]: 01122
      0.01716 [    33]: 22101
      0.01546 [     9]: 11022
      0.01546 [    26]: 21021
      0.01433 [     3]: 02112
      0.01002 [    29]: 21120
      0.00981 [     8]: 10221
      0.00942 [    17]: 12102
      0.00874 [     4]: 02121
      0.00861 [    15]: 12012
      0.00765 [    19]: 12120
      0.00540 [     7]: 10212
      0.00327 [    10]: 11112
      0.00254 [    23]: 20121
ROOT  10:  E=   -3419.3658666065 Eh  0.136 eV   1100.0 cm**-1
      0.20037 [    12]: 11202
      0.10952 [    19]: 12120
      0.09083 [    28]: 21111
      0.06285 [    33]: 22101
      0.05600 [    10]: 11112
      0.04389 [     9]: 11022
      0.03810 [     4]: 02121
      0.03796 [    21]: 12210
      0.03497 [    27]: 21102
      0.03394 [    14]: 11220
      0.02745 [     6]: 10122
      0.02626 [    11]: 11121
      0.02595 [    23]: 20121
      0.02184 [    13]: 11211
      0.02149 [    17]: 12102
      0.02104 [    16]: 12021
      0.01925 [    20]: 12201
      0.01920 [    15]: 12012
      0.01876 [    18]: 12111
      0.01532 [    26]: 21021
      0.01083 [     0]: 01122
      0.01074 [     7]: 10212
      0.01072 [     2]: 01221
      0.00994 [    34]: 22110
      0.00713 [    32]: 22011
      0.00552 [     3]: 02112
      0.00463 [    31]: 21210
      0.00423 [     1]: 01212
      0.00361 [    22]: 20112
      0.00345 [    29]: 21120
      0.00258 [     5]: 02211
ROOT  11:  E=   -3419.3585995571 Eh  0.334 eV   2694.9 cm**-1
      0.18923 [    22]: 20112
      0.14159 [    11]: 11121
      0.12962 [    13]: 11211
      0.09946 [     3]: 02112
      0.09824 [     1]: 01212
      0.08359 [    29]: 21120
      0.04847 [    25]: 21012
      0.04214 [    27]: 21102
      0.03048 [    20]: 12201
      0.02685 [     0]: 01122
      0.02613 [     7]: 10212
      0.01295 [    18]: 12111
      0.01083 [    16]: 12021
      0.01064 [    10]: 11112
      0.00787 [    28]: 21111
      0.00710 [     8]: 10221
      0.00650 [    23]: 20121
      0.00576 [    15]: 12012
      0.00548 [    24]: 20211
      0.00383 [    33]: 22101
      0.00301 [    12]: 11202
ROOT  12:  E=   -3419.3579640448 Eh  0.351 eV   2834.4 cm**-1
      0.15479 [    26]: 21021
      0.15175 [     4]: 02121
      0.14436 [    10]: 11112
      0.10169 [    23]: 20121
      0.07868 [    14]: 11220
      0.05204 [    17]: 12102
      0.05036 [     5]: 02211
      0.03281 [    33]: 22101
      0.02457 [    21]: 12210
      0.02419 [    28]: 21111
      0.01959 [     7]: 10212
      0.01710 [     6]: 10122
      0.01653 [    16]: 12021
      0.01503 [    18]: 12111
      0.01438 [    24]: 20211
      0.01371 [     2]: 01221
      0.01255 [    22]: 20112
      0.01166 [    15]: 12012
      0.01029 [     8]: 10221
      0.00984 [    11]: 11121
      0.00939 [    13]: 11211
      0.00903 [     1]: 01212
      0.00837 [    12]: 11202
      0.00692 [    25]: 21012
ROOT  13:  E=   -3419.3572218384 Eh  0.372 eV   2997.3 cm**-1
      0.14326 [    24]: 20211
      0.11711 [    28]: 21111
      0.10975 [    10]: 11112
      0.08828 [     9]: 11022
      0.08351 [     5]: 02211
      0.08232 [    30]: 21201
      0.08052 [     4]: 02121
      0.04467 [    23]: 20121
      0.03530 [     2]: 01221
      0.03199 [     7]: 10212
      0.02994 [    19]: 12120
      0.02984 [    12]: 11202
      0.02431 [    18]: 12111
      0.02096 [     1]: 01212
      0.01365 [    26]: 21021
      0.01113 [    33]: 22101
      0.01097 [    22]: 20112
      0.01088 [    27]: 21102
      0.00844 [    11]: 11121
      0.00441 [     8]: 10221
      0.00408 [    16]: 12021
      0.00336 [    25]: 21012
      0.00328 [     0]: 01122
ROOT  14:  E=   -3419.3543445225 Eh  0.450 eV   3628.8 cm**-1
      0.34765 [    28]: 21111
      0.10152 [    10]: 11112
      0.09012 [     9]: 11022
      0.07414 [     5]: 02211
      0.06121 [    14]: 11220
      0.05755 [     7]: 10212
      0.04793 [    13]: 11211
      0.03905 [     6]: 10122
      0.02551 [    21]: 12210
      0.01858 [    11]: 11121
      0.01845 [    24]: 20211
      0.01724 [    15]: 12012
      0.01485 [    18]: 12111
      0.01416 [     4]: 02121
      0.01289 [     0]: 01122
      0.01139 [    23]: 20121
      0.00930 [     2]: 01221
      0.00885 [    17]: 12102
      0.00745 [    30]: 21201
      0.00570 [    32]: 22011
      0.00271 [    19]: 12120
      0.00264 [    34]: 22110
ROOT  15:  E=   -3419.3536298531 Eh  0.469 eV   3785.6 cm**-1
      0.28211 [    13]: 11211
      0.15013 [    18]: 12111
      0.08498 [    22]: 20112
      0.08391 [    16]: 12021
      0.05043 [     3]: 02112
      0.04524 [     0]: 01122
      0.03534 [    34]: 22110
      0.03380 [    29]: 21120
      0.03364 [    32]: 22011
      0.03178 [     5]: 02211
      0.02846 [    28]: 21111
      0.01946 [    11]: 11121
      0.01741 [     4]: 02121
      0.01327 [    10]: 11112
      0.01270 [     9]: 11022
      0.01224 [     7]: 10212
      0.01013 [    15]: 12012
      0.00948 [    20]: 12201
      0.00879 [    31]: 21210
      0.00766 [    12]: 11202
      0.00668 [     2]: 01221
      0.00452 [     8]: 10221
      0.00340 [    23]: 20121
      0.00338 [    14]: 11220
      0.00263 [    17]: 12102
      0.00253 [    24]: 20211
ROOT  16:  E=   -3419.3532978105 Eh  0.478 eV   3858.5 cm**-1
      0.29840 [    12]: 11202
      0.14085 [    10]: 11112
      0.09447 [    28]: 21111
      0.07804 [    24]: 20211
      0.07585 [    19]: 12120
      0.03962 [    30]: 21201
      0.03332 [    15]: 12012
      0.02687 [    21]: 12210
      0.02477 [    17]: 12102
      0.02053 [     4]: 02121
      0.01941 [     5]: 02211
      0.01881 [    25]: 21012
      0.01374 [    18]: 12111
      0.01368 [    16]: 12021
      0.01320 [    27]: 21102
      0.01270 [    32]: 22011
      0.01154 [    13]: 11211
      0.01103 [     3]: 02112
      0.00857 [    31]: 21210
      0.00623 [    11]: 11121
      0.00552 [    33]: 22101
      0.00545 [    23]: 20121
      0.00474 [    26]: 21021
      0.00433 [     2]: 01221
      0.00370 [    22]: 20112
      0.00328 [     7]: 10212
      0.00300 [     9]: 11022
ROOT  17:  E=   -3419.3530129727 Eh  0.486 eV   3921.0 cm**-1
      0.21025 [    13]: 11211
      0.18971 [     3]: 02112
      0.10922 [    20]: 12201
      0.07796 [    16]: 12021
      0.07280 [    29]: 21120
      0.06648 [    11]: 11121
      0.06599 [    22]: 20112
      0.03758 [    27]: 21102
      0.02654 [    26]: 21021
      0.01990 [    28]: 21111
      0.01716 [     8]: 10221
      0.01475 [    33]: 22101
      0.01310 [    15]: 12012
      0.00983 [    14]: 11220
      0.00916 [     2]: 01221
      0.00712 [    12]: 11202
      0.00709 [    18]: 12111
      0.00543 [     5]: 02211
      0.00540 [     7]: 10212
      0.00458 [     1]: 01212
      0.00436 [    34]: 22110
      0.00409 [    17]: 12102
      0.00381 [    10]: 11112
      0.00368 [    31]: 21210
      0.00349 [    19]: 12120
      0.00291 [    21]: 12210
ROOT  18:  E=   -3419.3526850162 Eh  0.495 eV   3993.0 cm**-1
      0.17343 [    19]: 12120
      0.16487 [    10]: 11112
      0.09441 [    26]: 21021
      0.07009 [    18]: 12111
      0.06736 [    32]: 22011
      0.05922 [    11]: 11121
      0.05779 [    28]: 21111
      0.03593 [     5]: 02211
      0.03464 [    14]: 11220
      0.03210 [    13]: 11211
      0.02635 [     7]: 10212
      0.02415 [     9]: 11022
      0.01966 [    29]: 21120
      0.01831 [     6]: 10122
      0.01563 [    21]: 12210
      0.01454 [    24]: 20211
      0.01380 [    23]: 20121
      0.01264 [    30]: 21201
      0.01143 [    17]: 12102
      0.01094 [    15]: 12012
      0.00920 [    12]: 11202
      0.00896 [    22]: 20112
      0.00773 [     3]: 02112
      0.00631 [     0]: 01122
      0.00597 [     4]: 02121
ROOT  19:  E=   -3419.3519635151 Eh  0.515 eV   4151.4 cm**-1
      0.12045 [    10]: 11112
      0.11628 [    19]: 12120
      0.11350 [    12]: 11202
      0.10552 [     5]: 02211
      0.08683 [    26]: 21021
      0.05498 [    15]: 12012
      0.05094 [     4]: 02121
      0.04712 [    21]: 12210
      0.03895 [    33]: 22101
      0.03873 [    11]: 11121
      0.03662 [    23]: 20121
      0.02995 [    28]: 21111
      0.02533 [    17]: 12102
      0.02305 [    24]: 20211
      0.01621 [     7]: 10212
      0.01437 [    18]: 12111
      0.01413 [    27]: 21102
      0.01237 [    20]: 12201
      0.01061 [    34]: 22110
      0.01010 [    30]: 21201
      0.00753 [    29]: 21120
      0.00471 [    13]: 11211
      0.00331 [    16]: 12021
      0.00322 [    25]: 21012
      0.00322 [     3]: 02112
      0.00270 [     2]: 01221
      0.00255 [     8]: 10221
ROOT  20:  E=   -3419.3518162966 Eh  0.519 eV   4183.7 cm**-1
      0.19318 [    18]: 12111
      0.15783 [    16]: 12021
      0.08996 [    11]: 11121
      0.08546 [    34]: 22110
      0.08124 [    29]: 21120
      0.05350 [     1]: 01212
      0.04172 [    13]: 11211
      0.04129 [     5]: 02211
      0.04038 [    26]: 21021
      0.03158 [    25]: 21012
      0.03080 [    14]: 11220
      0.02885 [    31]: 21210
      0.01897 [     8]: 10221
      0.01571 [     4]: 02121
      0.01327 [    32]: 22011
      0.01212 [     2]: 01221
      0.01196 [    21]: 12210
      0.01183 [     9]: 11022
      0.00926 [    19]: 12120
      0.00814 [    20]: 12201
      0.00773 [     0]: 01122
      0.00385 [     3]: 02112
      0.00312 [    28]: 21111
ROOT  21:  E=   -3419.3440915527 Eh  0.729 eV   5879.0 cm**-1
      0.24030 [    11]: 11121
      0.10339 [    27]: 21102
      0.09900 [     8]: 10221
      0.08772 [    13]: 11211
      0.06713 [    18]: 12111
      0.06570 [     0]: 01122
      0.05782 [    20]: 12201
      0.04172 [    31]: 21210
      0.02863 [    25]: 21012
      0.02732 [    26]: 21021
      0.02231 [    10]: 11112
      0.01915 [    28]: 21111
      0.01523 [    23]: 20121
      0.01303 [    12]: 11202
      0.01289 [     9]: 11022
      0.01260 [     2]: 01221
      0.01211 [    16]: 12021
      0.01209 [    34]: 22110
      0.00970 [    22]: 20112
      0.00862 [    33]: 22101
      0.00731 [     5]: 02211
      0.00713 [    15]: 12012
      0.00608 [    30]: 21201
      0.00598 [    32]: 22011
      0.00522 [     7]: 10212
      0.00297 [    29]: 21120
      0.00295 [     6]: 10122
ROOT  22:  E=   -3419.3439200659 Eh  0.734 eV   5916.7 cm**-1
      0.17152 [    10]: 11112
      0.10187 [    21]: 12210
      0.07837 [    19]: 12120
      0.06462 [    23]: 20121
      0.05550 [     6]: 10122
      0.05409 [    26]: 21021
      0.05252 [     7]: 10212
      0.05044 [    25]: 21012
      0.04837 [    28]: 21111
      0.04031 [    11]: 11121
      0.03972 [     4]: 02121
      0.03230 [     1]: 01212
      0.02984 [    30]: 21201
      0.02823 [    14]: 11220
      0.02613 [     8]: 10221
      0.02386 [     9]: 11022
      0.01786 [    32]: 22011
      0.01639 [    24]: 20211
      0.01396 [    16]: 12021
      0.00876 [    27]: 21102
      0.00767 [    13]: 11211
      0.00682 [    34]: 22110
      0.00662 [    22]: 20112
      0.00624 [    18]: 12111
      0.00452 [     2]: 01221
      0.00300 [     0]: 01122
      0.00265 [    20]: 12201
ROOT  23:  E=   -3419.3436752333 Eh  0.740 eV   5970.4 cm**-1
      0.26545 [    11]: 11121
      0.23599 [    13]: 11211
      0.08532 [    29]: 21120
      0.08250 [    10]: 11112
      0.07227 [    25]: 21012
      0.06960 [    28]: 21111
      0.04771 [    16]: 12021
      0.03100 [    27]: 21102
      0.02505 [    31]: 21210
      0.02153 [    20]: 12201
      0.01566 [     0]: 01122
      0.01044 [    18]: 12111
      0.00588 [     8]: 10221
      0.00527 [     3]: 02112
      0.00450 [     4]: 02121
      0.00276 [    32]: 22011
      0.00260 [     1]: 01212
      0.00253 [    33]: 22101
ROOT  24:  E=   -3419.3425427548 Eh  0.771 eV   6219.0 cm**-1
      0.33476 [    28]: 21111
      0.15086 [     7]: 10212
      0.12343 [    10]: 11112
      0.09171 [    15]: 12012
      0.04781 [    13]: 11211
      0.04653 [    23]: 20121
      0.03772 [    30]: 21201
      0.02357 [     4]: 02121
      0.02351 [    21]: 12210
      0.01835 [    25]: 21012
      0.01205 [    26]: 21021
      0.01167 [    24]: 20211
      0.00958 [    33]: 22101
      0.00857 [    22]: 20112
      0.00823 [     3]: 02112
      0.00805 [     9]: 11022
      0.00766 [    11]: 11121
      0.00613 [     1]: 01212
      0.00489 [    14]: 11220
      0.00440 [    18]: 12111
      0.00400 [    32]: 22011
      0.00351 [    31]: 21210
      0.00341 [     2]: 01221
ROOT  25:  E=   -3419.3414326394 Eh  0.801 eV   6462.6 cm**-1
      0.42495 [    18]: 12111
      0.17253 [     1]: 01212
      0.12160 [    31]: 21210
      0.07154 [    13]: 11211
      0.05628 [    10]: 11112
      0.02747 [     3]: 02112
      0.02525 [    11]: 11121
      0.02027 [    20]: 12201
      0.01769 [    16]: 12021
      0.01648 [    28]: 21111
      0.01028 [    25]: 21012
      0.00924 [    27]: 21102
      0.00790 [    34]: 22110
      0.00348 [    17]: 12102
      0.00322 [    19]: 12120
      0.00310 [     0]: 01122
ROOT  26:  E=   -3419.3409194092 Eh  0.815 eV   6575.3 cm**-1
      0.18950 [    30]: 21201
      0.14608 [    17]: 12102
      0.10220 [    21]: 12210
      0.08957 [     6]: 10122
      0.07487 [     4]: 02121
      0.06529 [    15]: 12012
      0.05525 [    28]: 21111
      0.04301 [    33]: 22101
      0.03079 [    24]: 20211
      0.02884 [    26]: 21021
      0.02881 [     2]: 01221
      0.02844 [     5]: 02211
      0.01984 [    10]: 11112
      0.01419 [    18]: 12111
      0.01356 [     9]: 11022
      0.01175 [    20]: 12201
      0.01056 [    34]: 22110
      0.00658 [    32]: 22011
      0.00598 [    27]: 21102
      0.00459 [    13]: 11211
      0.00423 [     0]: 01122
      0.00417 [    25]: 21012
      0.00388 [    14]: 11220
      0.00361 [    12]: 11202
      0.00360 [    16]: 12021
ROOT  27:  E=   -3419.3403817223 Eh  0.830 eV   6693.3 cm**-1
      0.18398 [    18]: 12111
      0.10409 [    20]: 12201
      0.10323 [    25]: 21012
      0.10008 [    31]: 21210
      0.09717 [    13]: 11211
      0.08690 [    11]: 11121
      0.08083 [    16]: 12021
      0.07879 [     0]: 01122
      0.03285 [    34]: 22110
      0.02901 [    29]: 21120
      0.01735 [    10]: 11112
      0.01508 [    21]: 12210
      0.01480 [    27]: 21102
      0.01030 [     4]: 02121
      0.00973 [    33]: 22101
      0.00654 [    15]: 12012
      0.00587 [    32]: 22011
      0.00540 [    28]: 21111
      0.00299 [     9]: 11022
      0.00265 [     5]: 02211
      0.00257 [    12]: 11202
ROOT  28:  E=   -3419.3399641839 Eh  0.841 eV   6784.9 cm**-1
      0.24036 [    28]: 21111
      0.11602 [    19]: 12120
      0.10385 [    17]: 12102
      0.06556 [    18]: 12111
      0.05533 [    10]: 11112
      0.05207 [     2]: 01221
      0.04820 [    21]: 12210
      0.03220 [    11]: 11121
      0.03158 [    13]: 11211
      0.02912 [    23]: 20121
      0.02908 [     4]: 02121
      0.02002 [    15]: 12012
      0.01970 [    30]: 21201
      0.01833 [     1]: 01212
      0.01605 [     5]: 02211
      0.01568 [    34]: 22110
      0.01522 [    14]: 11220
      0.01452 [    31]: 21210
      0.01196 [    32]: 22011
      0.01153 [    20]: 12201
      0.01030 [    27]: 21102
      0.00827 [    29]: 21120
      0.00631 [    26]: 21021
      0.00591 [     3]: 02112
      0.00552 [    24]: 20211
      0.00466 [     7]: 10212
      0.00434 [     8]: 10221
ROOT  29:  E=   -3419.3398356433 Eh  0.845 eV   6813.1 cm**-1
      0.21711 [    18]: 12111
      0.13462 [    11]: 11121
      0.13426 [    27]: 21102
      0.09731 [    29]: 21120
      0.08463 [    20]: 12201
      0.04400 [    13]: 11211
      0.03525 [     2]: 01221
      0.02418 [     3]: 02112
      0.02379 [     8]: 10221
      0.02262 [    21]: 12210
      0.02201 [    28]: 21111
      0.01924 [    12]: 11202
      0.01606 [    32]: 22011
      0.01456 [    14]: 11220
      0.01381 [    16]: 12021
      0.01253 [    33]: 22101
      0.01214 [     5]: 02211
      0.01156 [    26]: 21021
      0.01060 [    17]: 12102
      0.00818 [    22]: 20112
      0.00680 [    15]: 12012
      0.00577 [    19]: 12120
      0.00571 [    30]: 21201
      0.00543 [     0]: 01122
      0.00426 [    23]: 20121
      0.00382 [     1]: 01212
      0.00275 [    10]: 11112
ROOT  30:  E=   -3419.3079259382 Eh  1.713 eV  13816.5 cm**-1
      0.38322 [    28]: 21111
      0.08315 [    10]: 11112
      0.08131 [     7]: 10212
      0.06805 [    14]: 11220
      0.04343 [     6]: 10122
      0.04229 [     9]: 11022
      0.03915 [    11]: 11121
      0.03684 [     2]: 01221
      0.03291 [    15]: 12012
      0.02599 [    13]: 11211
      0.02041 [    30]: 21201
      0.01742 [    17]: 12102
      0.01679 [    21]: 12210
      0.01623 [    24]: 20211
      0.01450 [    23]: 20121
      0.01302 [     8]: 10221
      0.01261 [     5]: 02211
      0.01239 [     0]: 01122
      0.00722 [    22]: 20112
      0.00577 [    29]: 21120
      0.00490 [    33]: 22101
      0.00438 [    20]: 12201
      0.00256 [    25]: 21012
      0.00255 [    34]: 22110
ROOT  31:  E=   -3419.3072915384 Eh  1.730 eV  13955.7 cm**-1
      0.27676 [    18]: 12111
      0.10478 [    13]: 11211
      0.06607 [     0]: 01122
      0.05998 [     1]: 01212
      0.05951 [    27]: 21102
      0.05834 [     8]: 10221
      0.05771 [    11]: 11121
      0.05279 [    20]: 12201
      0.04974 [    32]: 22011
      0.04554 [    31]: 21210
      0.03798 [     5]: 02211
      0.02414 [     9]: 11022
      0.01971 [    10]: 11112
      0.01866 [    22]: 20112
      0.01749 [    34]: 22110
      0.01207 [    28]: 21111
      0.01040 [    14]: 11220
      0.00492 [    25]: 21012
      0.00457 [    23]: 20121
      0.00447 [     2]: 01221
      0.00284 [    12]: 11202
ROOT  32:  E=   -3419.3064381718 Eh  1.754 eV  14143.0 cm**-1
      0.24875 [    18]: 12111
      0.23962 [    11]: 11121
      0.14453 [    25]: 21012
      0.10061 [    31]: 21210
      0.03369 [    28]: 21111
      0.03168 [    10]: 11112
      0.02838 [     0]: 01122
      0.02536 [    15]: 12012
      0.02504 [     2]: 01221
      0.01977 [     3]: 02112
      0.01919 [    21]: 12210
      0.01674 [    26]: 21021
      0.01491 [    29]: 21120
      0.01158 [    16]: 12021
      0.00827 [    13]: 11211
      0.00760 [     8]: 10221
      0.00627 [     5]: 02211
      0.00393 [    32]: 22011
      0.00347 [    34]: 22110
ROOT  33:  E=   -3419.3059442568 Eh  1.767 eV  14251.4 cm**-1
      0.15416 [    32]: 22011
      0.13752 [    17]: 12102
      0.10664 [    24]: 20211
      0.10521 [    30]: 21201
      0.10159 [     6]: 10122
      0.08338 [     2]: 01221
      0.07331 [    18]: 12111
      0.05034 [    10]: 11112
      0.03639 [     9]: 11022
      0.03250 [    14]: 11220
      0.01932 [     7]: 10212
      0.01799 [    21]: 12210
      0.01633 [    11]: 11121
      0.01609 [    28]: 21111
      0.01122 [     5]: 02211
      0.00496 [    29]: 21120
      0.00476 [    13]: 11211
      0.00422 [    23]: 20121
      0.00412 [     4]: 02121
      0.00306 [    19]: 12120
      0.00261 [    20]: 12201
      0.00255 [    31]: 21210
ROOT  34:  E=   -3419.3049346666 Eh  1.794 eV  14473.0 cm**-1
      0.15584 [    34]: 22110
      0.14749 [    11]: 11121
      0.12802 [    13]: 11211
      0.11660 [    18]: 12111
      0.09287 [    27]: 21102
      0.07727 [     3]: 02112
      0.05747 [    20]: 12201
      0.04643 [     8]: 10221
      0.02503 [     0]: 01122
      0.02400 [     1]: 01212
      0.02108 [    22]: 20112
      0.01905 [    29]: 21120
      0.01350 [    31]: 21210
      0.00888 [    28]: 21111
      0.00852 [    14]: 11220
      0.00791 [    10]: 11112
      0.00721 [     5]: 02211
      0.00658 [    30]: 21201
      0.00458 [    25]: 21012
      0.00451 [    17]: 12102
      0.00400 [    12]: 11202
      0.00346 [    32]: 22011
      0.00337 [    23]: 20121
      0.00290 [    33]: 22101
      0.00253 [    21]: 12210
ROOT  35:  E=   -3419.2085067102 Eh  4.418 eV  35636.5 cm**-1
      0.20292 [     2]: 01221
      0.17104 [     6]: 10122
      0.06309 [    17]: 12102
      0.06162 [    30]: 21201
      0.05854 [    10]: 11112
      0.05847 [    15]: 12012
      0.05606 [    26]: 21021
      0.05031 [    19]: 12120
      0.03346 [    21]: 12210
      0.02843 [     7]: 10212
      0.02316 [    23]: 20121
      0.02256 [     8]: 10221
      0.01844 [     0]: 01122
      0.01814 [    11]: 11121
      0.01737 [     4]: 02121
      0.01497 [    24]: 20211
      0.01458 [     9]: 11022
      0.01334 [    16]: 12021
      0.01166 [     5]: 02211
      0.00943 [    28]: 21111
      0.00941 [    20]: 12201
      0.00696 [    22]: 20112
      0.00570 [    34]: 22110
      0.00548 [    18]: 12111
      0.00546 [     3]: 02112
      0.00526 [    25]: 21012
      0.00385 [    33]: 22101
      0.00273 [    27]: 21102
ROOT  36:  E=   -3419.2083923312 Eh  4.421 eV  35661.6 cm**-1
      0.25464 [     8]: 10221
      0.13271 [     0]: 01122
      0.08457 [    20]: 12201
      0.08149 [    16]: 12021
      0.05849 [     3]: 02112
      0.04700 [    25]: 21012
      0.04092 [    29]: 21120
      0.03567 [    27]: 21102
      0.02850 [    23]: 20121
      0.02764 [    13]: 11211
      0.02597 [     9]: 11022
      0.02490 [     1]: 01212
      0.02231 [     2]: 01221
      0.02165 [    31]: 21210
      0.01619 [     4]: 02121
      0.01508 [    11]: 11121
      0.01287 [    33]: 22101
      0.01263 [    15]: 12012
      0.00908 [     6]: 10122
      0.00861 [    18]: 12111
      0.00777 [    22]: 20112
      0.00556 [    12]: 11202
      0.00465 [    21]: 12210
      0.00343 [    34]: 22110
      0.00303 [    30]: 21201
      0.00273 [    19]: 12120
      0.00268 [    28]: 21111
      0.00253 [    32]: 22011
ROOT  37:  E=   -3419.2062680371 Eh  4.479 eV  36127.8 cm**-1
      0.21410 [     8]: 10221
      0.10029 [    25]: 21012
      0.09766 [     1]: 01212
      0.08113 [    13]: 11211
      0.06188 [     3]: 02112
      0.05977 [    31]: 21210
      0.05730 [    22]: 20112
      0.05392 [     0]: 01122
      0.05055 [    20]: 12201
      0.04172 [    18]: 12111
      0.03584 [    34]: 22110
      0.02160 [    27]: 21102
      0.01781 [    23]: 20121
      0.01555 [    11]: 11121
      0.01343 [     9]: 11022
      0.01327 [     2]: 01221
      0.01199 [    32]: 22011
      0.01114 [    16]: 12021
      0.00783 [     6]: 10122
      0.00706 [    15]: 12012
      0.00659 [    28]: 21111
      0.00367 [    30]: 21201
      0.00312 [    24]: 20211
      0.00301 [    17]: 12102
ROOT  38:  E=   -3419.2052326196 Eh  4.507 eV  36355.1 cm**-1
      0.19389 [     9]: 11022
      0.13122 [    14]: 11220
      0.08541 [    15]: 12012
      0.08516 [     2]: 01221
      0.06051 [     4]: 02121
      0.05826 [    10]: 11112
      0.05346 [    17]: 12102
      0.04632 [     6]: 10122
      0.03508 [    33]: 22101
      0.03111 [    28]: 21111
      0.02948 [    30]: 21201
      0.02576 [    32]: 22011
      0.02528 [    23]: 20121
      0.02325 [    26]: 21021
      0.02228 [    12]: 11202
      0.01349 [    25]: 21012
      0.01234 [    13]: 11211
      0.00957 [     5]: 02211
      0.00849 [    29]: 21120
      0.00763 [     0]: 01122
      0.00702 [     3]: 02112
      0.00700 [    21]: 12210
      0.00646 [    24]: 20211
      0.00541 [    18]: 12111
      0.00294 [    11]: 11121
      0.00267 [    19]: 12120
ROOT  39:  E=   -3419.2046657825 Eh  4.523 eV  36479.5 cm**-1
      0.19211 [    15]: 12012
      0.15326 [    17]: 12102
      0.15279 [     6]: 10122
      0.08814 [     7]: 10212
      0.06057 [    21]: 12210
      0.05202 [    10]: 11112
      0.04493 [    19]: 12120
      0.03825 [    32]: 22011
      0.03426 [     9]: 11022
      0.02985 [    28]: 21111
      0.02952 [     3]: 02112
      0.02485 [    30]: 21201
      0.01727 [    34]: 22110
      0.01056 [    24]: 20211
      0.00982 [    23]: 20121
      0.00838 [    13]: 11211
      0.00825 [    11]: 11121
      0.00763 [    22]: 20112
      0.00755 [     0]: 01122
      0.00594 [     2]: 01221
      0.00579 [    18]: 12111
      0.00468 [     5]: 02211
      0.00386 [     8]: 10221
      0.00326 [     4]: 02121
ROOT  40:  E=   -3419.2032989520 Eh  4.560 eV  36779.5 cm**-1
      0.18651 [     0]: 01122
      0.16509 [    27]: 21102
      0.08621 [    29]: 21120
      0.08099 [    13]: 11211
      0.06750 [    34]: 22110
      0.05461 [    31]: 21210
      0.04642 [    25]: 21012
      0.04553 [     1]: 01212
      0.03854 [    18]: 12111
      0.03547 [    11]: 11121
      0.03215 [    14]: 11220
      0.03124 [    20]: 12201
      0.01731 [    22]: 20112
      0.01156 [     8]: 10221
      0.01122 [    32]: 22011
      0.01088 [    21]: 12210
      0.01079 [    12]: 11202
      0.00955 [    33]: 22101
      0.00906 [     9]: 11022
      0.00819 [    28]: 21111
      0.00797 [    16]: 12021
      0.00556 [     3]: 02112
      0.00446 [    10]: 11112
      0.00417 [     7]: 10212
      0.00380 [    30]: 21201
      0.00343 [    15]: 12012
      0.00299 [    23]: 20121
      0.00294 [     5]: 02211
      0.00279 [    26]: 21021
ROOT  41:  E=   -3419.2026982389 Eh  4.576 eV  36911.3 cm**-1
      0.21010 [    14]: 11220
      0.13491 [    21]: 12210
      0.11793 [     2]: 01221
      0.06827 [    30]: 21201
      0.06283 [    28]: 21111
      0.05907 [     7]: 10212
      0.05621 [    10]: 11112
      0.05173 [    15]: 12012
      0.03212 [    17]: 12102
      0.02717 [    26]: 21021
      0.02649 [    29]: 21120
      0.02391 [    24]: 20211
      0.01561 [    12]: 11202
      0.01303 [    27]: 21102
      0.01236 [    34]: 22110
      0.01168 [     0]: 01122
      0.01082 [    32]: 22011
      0.00872 [     9]: 11022
      0.00800 [    19]: 12120
      0.00634 [     6]: 10122
      0.00610 [    31]: 21210
      0.00538 [    11]: 11121
      0.00489 [    20]: 12201
      0.00475 [     8]: 10221
      0.00428 [     3]: 02112
      0.00421 [    22]: 20112
      0.00342 [    23]: 20121
      0.00252 [     5]: 02211
ROOT  42:  E=   -3419.1985199290 Eh  4.690 eV  37828.3 cm**-1
      0.32500 [    32]: 22011
      0.12017 [    24]: 20211
      0.12006 [    33]: 22101
      0.09316 [     5]: 02211
      0.05158 [    10]: 11112
      0.04986 [    28]: 21111
      0.03195 [    23]: 20121
      0.02151 [    18]: 12111
      0.02067 [     2]: 01221
      0.01807 [    17]: 12102
      0.01762 [    34]: 22110
      0.01457 [     7]: 10212
      0.01426 [    14]: 11220
      0.01348 [     9]: 11022
      0.01279 [     6]: 10122
      0.01225 [     4]: 02121
      0.00862 [    19]: 12120
      0.00736 [    20]: 12201
      0.00668 [     1]: 01212
      0.00667 [    13]: 11211
      0.00575 [     3]: 02112
      0.00528 [     0]: 01122
      0.00407 [    25]: 21012
      0.00388 [    11]: 11121
      0.00350 [    21]: 12210
      0.00323 [     8]: 10221
ROOT  43:  E=   -3419.1967688091 Eh  4.738 eV  38212.7 cm**-1
      0.33567 [    34]: 22110
      0.20902 [    31]: 21210
      0.06697 [    13]: 11211
      0.06109 [    25]: 21012
      0.05556 [     3]: 02112
      0.04409 [     1]: 01212
      0.04292 [    11]: 11121
      0.03822 [    21]: 12210
      0.03680 [    22]: 20112
      0.01879 [     0]: 01122
      0.01242 [    15]: 12012
      0.01131 [    33]: 22101
      0.01049 [    20]: 12201
      0.00806 [    18]: 12111
      0.00756 [    16]: 12021
      0.00522 [     5]: 02211
      0.00480 [    29]: 21120
      0.00458 [    27]: 21102
      0.00450 [    32]: 22011
      0.00389 [     7]: 10212
      0.00382 [    10]: 11112
      0.00368 [     4]: 02121
      0.00308 [    30]: 21201
      0.00281 [    28]: 21111
ROOT  44:  E=   -3419.1938630107 Eh  4.817 eV  38850.4 cm**-1
      0.49811 [    33]: 22101
      0.07854 [    30]: 21201
      0.06750 [    32]: 22011
      0.04773 [    28]: 21111
      0.04756 [    20]: 12201
      0.03838 [    12]: 11202
      0.02921 [     4]: 02121
      0.02707 [    23]: 20121
      0.02696 [    14]: 11220
      0.02484 [    24]: 20211
      0.02087 [     9]: 11022
      0.01458 [     5]: 02211
      0.01327 [    21]: 12210
      0.01006 [    18]: 12111
      0.00988 [    10]: 11112
      0.00952 [    17]: 12102
      0.00897 [    26]: 21021
      0.00579 [    16]: 12021
      0.00439 [    13]: 11211
      0.00395 [     8]: 10221
      0.00297 [     2]: 01221
      0.00253 [    15]: 12012

                 <<<<<<<<<<<<<<<<<<INITIAL CI STATE CHECK>>>>>>>>>>>>>>>>>>

   E(CAS)= -3419.389518425 Eh DE=    0.000000e+00
   --- Energy gap subspaces: Ext-Act = 0.231   Act-Int = -0.063
   N(occ)=  1.20000 1.20000 1.20000 1.20000 1.20000
   ||g|| =     9.258370e-04 Max(G)=   -3.052604e-04 Rot=163,161
                     ---- THE CAS-SCF GRADIENT HAS CONVERGED ----
                            --- FINALIZING ORBITALS ---
                    ---- DOING ONE FINAL ITERATION FOR PRINTING ----
   --- Forming Natural Orbitals
   --- Canonicalize Internal Space
   --- Canonicalize External Space

MACRO-ITERATION   2: 
   --- Inactive Energy E0 = -3403.58787905 Eh
   --- All densities will be recomputed
CI-ITERATION   0: 
 -3419.466243945   0.000000000000 (    0.00)
 -3419.465813281   0.000000000000
 -3419.463776935   0.000000000000
 -3419.459077343   0.000000000000
 -3419.458791119   0.000000000000
   CI-PROBLEM SOLVED
   DENSITIES MADE
CI-ITERATION   0: 
 -3419.370878458   0.000000000000 (    0.00)
 -3419.370805084   0.000000000000
 -3419.369905461   0.000000000000
 -3419.369527884   0.000000000000
 -3419.369214929   0.000000000000
 -3419.368187400   0.000000000000
 -3419.367566414   0.000000000000
 -3419.366912650   0.000000000000
 -3419.366366126   0.000000000000
 -3419.366055845   0.000000000000
 -3419.365866604   0.000000000000
 -3419.358599555   0.000000000000
 -3419.357964043   0.000000000000
 -3419.357221836   0.000000000000
 -3419.354344520   0.000000000000
 -3419.353629851   0.000000000000
 -3419.353297807   0.000000000000
 -3419.353012970   0.000000000000
 -3419.352685014   0.000000000000
 -3419.351963513   0.000000000000
 -3419.351816295   0.000000000000
 -3419.344091551   0.000000000000
 -3419.343920064   0.000000000000
 -3419.343675231   0.000000000000
 -3419.342542752   0.000000000000
 -3419.341432637   0.000000000000
 -3419.340919406   0.000000000000
 -3419.340381720   0.000000000000
 -3419.339964182   0.000000000000
 -3419.339835641   0.000000000000
 -3419.307925936   0.000000000000
 -3419.307291536   0.000000000000
 -3419.306438170   0.000000000000
 -3419.305944254   0.000000000000
 -3419.304934664   0.000000000000
 -3419.208506708   0.000000000000
 -3419.208392329   0.000000000000
 -3419.206268035   0.000000000000
 -3419.205232617   0.000000000000
 -3419.204665780   0.000000000000
 -3419.203298950   0.000000000000
 -3419.202698237   0.000000000000
 -3419.198519926   0.000000000000
 -3419.196768806   0.000000000000
 -3419.193863007   0.000000000000
   CI-PROBLEM SOLVED
   DENSITIES MADE
   E(CAS)= -3419.389518422 Eh DE=    2.460638e-09
   --- Energy gap subspaces: Ext-Act = 0.232   Act-Int = -0.062
   N(occ)=  1.20000 1.20000 1.20000 1.20000 1.20000
   ||g|| =     9.258370e-04 Max(G)=   -2.510712e-04 Rot=165,161
--------------
CASSCF RESULTS
--------------

Final CASSCF energy       : -3419.389518422 Eh  -93046.3192 eV

----------------
ORBITAL ENERGIES
----------------

  NO   OCC          E(Eh)            E(eV) 
   0   2.0000    -261.401055     -7113.0843 
   1   2.0000     -31.962417      -869.7416 
   2   2.0000     -27.443026      -746.7627 
   3   2.0000     -27.442337      -746.7439 
   4   2.0000     -27.442189      -746.7399 
   5   2.0000      -4.725039      -128.5748 
   6   2.0000      -4.720532      -128.4522 
   7   2.0000      -4.719724      -128.4302 
   8   2.0000      -4.715601      -128.3180 
   9   2.0000      -4.715470      -128.3145 
  10   2.0000      -4.714128      -128.2780 
  11   2.0000      -4.713998      -128.2744 
  12   2.0000      -4.713722      -128.2669 
  13   2.0000      -4.713633      -128.2645 
  14   2.0000      -4.713227      -128.2534 
  15   2.0000      -4.713180      -128.2521 
  16   2.0000      -4.712971      -128.2465 
  17   2.0000      -4.712755      -128.2406 
  18   2.0000      -4.711756      -128.2134 
  19   2.0000      -4.711703      -128.2119 
  20   2.0000      -4.710756      -128.1862 
  21   2.0000      -4.196311      -114.1874 
  22   2.0000      -2.776207       -75.5444 
  23   2.0000      -2.775419       -75.5230 
  24   2.0000      -2.775119       -75.5148 
  25   2.0000      -2.763698       -75.2041 
  26   2.0000      -2.762341       -75.1671 
  27   2.0000      -2.759625       -75.0932 
  28   2.0000      -2.759224       -75.0823 
  29   2.0000      -2.758591       -75.0651 
  30   2.0000      -2.757307       -75.0301 
  31   2.0000      -2.756568       -75.0100 
  32   2.0000      -2.756339       -75.0038 
  33   2.0000      -2.756018       -74.9951 
  34   2.0000      -2.755610       -74.9839 
  35   2.0000      -2.754972       -74.9666 
  36   2.0000      -2.752892       -74.9100 
  37   2.0000      -2.752550       -74.9007 
  38   2.0000      -2.752393       -74.8964 
  39   2.0000      -2.752241       -74.8923 
  40   2.0000      -2.751858       -74.8819 
  41   2.0000      -2.751609       -74.8751 
  42   2.0000      -2.751484       -74.8717 
  43   2.0000      -2.750987       -74.8582 
  44   2.0000      -2.750829       -74.8539 
  45   2.0000      -2.750283       -74.8390 
  46   2.0000      -2.750182       -74.8363 
  47   2.0000      -2.749829       -74.8266 
  48   2.0000      -2.749652       -74.8218 
  49   2.0000      -2.749524       -74.8183 
  50   2.0000      -2.749110       -74.8071 
  51   2.0000      -2.748919       -74.8019 
  52   2.0000      -2.748786       -74.7983 
  53   2.0000      -2.748284       -74.7846 
  54   2.0000      -2.748235       -74.7833 
  55   2.0000      -2.748029       -74.7777 
  56   2.0000      -2.747603       -74.7661 
  57   2.0000      -2.747534       -74.7642 
  58   2.0000      -2.746985       -74.7493 
  59   2.0000      -2.746965       -74.7487 
  60   2.0000      -2.746925       -74.7476 
  61   2.0000      -2.746665       -74.7406 
  62   2.0000      -2.746125       -74.7259 
  63   2.0000      -2.745804       -74.7171 
  64   2.0000      -2.745541       -74.7100 
  65   2.0000      -2.745436       -74.7071 
  66   2.0000      -2.745394       -74.7060 
  67   2.0000      -2.745313       -74.7038 
[...]
 3 117   30205.8    331.1   0.000000000   0.00000   0.00010   0.00001   0.00004
 3 118   30545.9    327.4   0.000000000   0.00000   0.00004   0.00015   0.00012
 3 119   30551.0    327.3   0.000000000   0.00000   0.00044   0.00002   0.00017
 3 120   30557.1    327.3   0.000000000   0.00000   0.00011   0.00002   0.00028
 3 121   30804.6    324.6   0.000000000   0.00000   0.00002   0.00002   0.00008
 3 122   30811.6    324.6   0.000000001   0.00000   0.00083   0.00003   0.00033
 3 123   30816.5    324.5   0.000000000   0.00000   0.00014   0.00015   0.00033
 3 124   30988.2    322.7   0.000000001   0.00000   0.00054   0.00002   0.00021
 3 125   31001.0    322.6   0.000000000   0.00000   0.00018   0.00001   0.00007
 3 126   31001.8    322.6   0.000000000   0.00000   0.00001   0.00000   0.00003
 3 127   31368.9    318.8   0.000000000   0.00000   0.00005   0.00000   0.00002
 3 128   31372.3    318.8   0.000000001   0.00000   0.00018   0.00023   0.00043
 3 129   31374.0    318.7   0.000000000   0.00000   0.00011   0.00011   0.00028
 3 130   46744.1    213.9   0.000000000   0.00000   0.00024   0.00001   0.00010
 3 131   46814.1    213.6   0.000000000   0.00000   0.00005   0.00020   0.00012
 3 132   46829.5    213.5   0.000000000   0.00000   0.00002   0.00006   0.00004
 3 133   46874.5    213.3   0.000000000   0.00000   0.00009   0.00000   0.00004
 3 134   46887.8    213.3   0.000000000   0.00000   0.00001   0.00001   0.00002
 3 135   46890.6    213.3   0.000000000   0.00000   0.00037   0.00001   0.00015
 3 136   46900.6    213.2   0.000000000   0.00000   0.00003   0.00000   0.00001
 3 137   46901.0    213.2   0.000000000   0.00000   0.00002   0.00002   0.00006
 3 138   46906.1    213.2   0.000000000   0.00000   0.00001   0.00001   0.00004
 3 139   47340.9    211.2   0.000000001   0.00000   0.00065   0.00002   0.00026
 3 140   47410.6    210.9   0.000000001   0.00000   0.00046   0.00001   0.00019
 3 141   47442.4    210.8   0.000000000   0.00000   0.00014   0.00016   0.00034
 3 142   47971.3    208.5   0.000000000   0.00000   0.00013   0.00006   0.00035
 3 143   47987.9    208.4   0.000000001   0.00000   0.00062   0.00002   0.00024
 3 144   47990.1    208.4   0.000000001   0.00000   0.00064   0.00002   0.00025
 3 145   48572.1    205.9   0.000000000   0.00000   0.00009   0.00025   0.00026
 3 146   48580.5    205.8   0.000000000   0.00000   0.00032   0.00002   0.00012
 3 147   48612.5    205.7   0.000000001   0.00000   0.00012   0.00027   0.00033
 3 148   48626.6    205.6   0.000000000   0.00000   0.00011   0.00000   0.00005
 3 149   48658.1    205.5   0.000000000   0.00000   0.00010   0.00000   0.00004
 3 150   48662.4    205.5   0.000000001   0.00000   0.00012   0.00035   0.00034
 3 151   49524.9    201.9   0.000000002   0.00000   0.00066   0.00002   0.00026
 3 152   49556.2    201.8   0.000000000   0.00000   0.00004   0.00020   0.00009
 3 153   49568.7    201.7   0.000000000   0.00000   0.00002   0.00000   0.00001
 3 154   50256.6    199.0   0.000000000   0.00000   0.00005   0.00014   0.00013
 3 155   50341.2    198.6   0.000000000   0.00000   0.00012   0.00000   0.00005
 3 156   50367.8    198.5   0.000000000   0.00000   0.00004   0.00000   0.00013
 3 157   51154.3    195.5   0.000000001   0.00000   0.00052   0.00002   0.00021
 3 158   51181.0    195.4   0.000000000   0.00000   0.00008   0.00015   0.00022
 3 159   51211.6    195.3   0.000000000   0.00000   0.00012   0.00000   0.00005
 4  5     100.8   99235.3   0.000000008   0.00173   0.03852   0.00129   0.01556
 4  6     148.1   67531.3   0.000000000   0.00005   0.00225   0.00238   0.00587
 4  7     285.4   35041.5   0.000000004   0.00035   0.01745   0.00070   0.00682
 4  8     379.5   26349.3   0.000000001   0.00009   0.00871   0.00032   0.00346
 4  9     394.3   25362.7   0.000000000   0.00000   0.00036   0.00031   0.00094
 4 10     888.1   11260.5   0.000000003   0.00008   0.00296   0.00394   0.00772
 4 11     899.1   11122.4   0.000000010   0.00025   0.01480   0.00061   0.00576
 4 12     967.9   10331.6   0.000000008   0.00018   0.01241   0.00039   0.00503
 4 13    1018.2   9821.2   0.000000033   0.00074   0.00877   0.01113   0.02318
 4 14    1026.8   9739.1   0.000000019   0.00042   0.00661   0.00872   0.01737
 4 15    2132.2   4690.0   0.000000015   0.00016   0.01169   0.00061   0.00467
 4 16    2132.3   4689.7   0.000000003   0.00003   0.00227   0.00148   0.00526
 4 17    2326.0   4299.2   0.000000020   0.00020   0.01307   0.00052   0.00507
 4 18    2332.3   4287.7   0.000000001   0.00001   0.00092   0.00041   0.00271
 4 19    2473.3   4043.2   0.000000012   0.00011   0.00967   0.00050   0.00375
 4 20    2582.1   3872.8   0.000000001   0.00001   0.00101   0.00164   0.00264
 4 21    2716.1   3681.8   0.000000001   0.00001   0.00053   0.00291   0.00012
 4 22    2716.1   3681.7   0.000000004   0.00004   0.00033   0.00602   0.00060
 4 23    2883.4   3468.1   0.000000002   0.00001   0.00358   0.00025   0.00137
 4 24    2883.8   3467.6   0.000000002   0.00002   0.00096   0.00296   0.00242
 4 25   19183.6    521.3   0.000000000   0.00000   0.00006   0.00020   0.00011
 4 26   19185.4    521.2   0.000000000   0.00000   0.00025   0.00001   0.00010
 4 27   19302.7    518.1   0.000000000   0.00000   0.00006   0.00010   0.00011
 4 28   19303.5    518.0   0.000000000   0.00000   0.00004   0.00012   0.00012
 4 29   19309.0    517.9   0.000000000   0.00000   0.00024   0.00001   0.00010
 4 30   19354.4    516.7   0.000000000   0.00000   0.00038   0.00002   0.00015
 4 31   19371.8    516.2   0.000000000   0.00000   0.00005   0.00019   0.00015
 4 32   19472.1    513.6   0.000000000   0.00000   0.00027   0.00001   0.00011
 4 33   19476.5    513.4   0.000000000   0.00000   0.00001   0.00060   0.00011
 4 34   19536.7    511.9   0.000000000   0.00000   0.00001   0.00023   0.00003
 4 35   19541.4    511.7   0.000000000   0.00000   0.00016   0.00000   0.00006
 4 36   19647.7    509.0   0.000000000   0.00000   0.00017   0.00001   0.00006
 4 37   19688.9    507.9   0.000000000   0.00000   0.00001   0.00011   0.00004
 4 38   19699.5    507.6   0.000000000   0.00000   0.00010   0.00004   0.00025
 4 39   19712.6    507.3   0.000000000   0.00000   0.00033   0.00001   0.00013
 4 40   19881.5    503.0   0.000000000   0.00000   0.00007   0.00001   0.00015
 4 41   19887.5    502.8   0.000000000   0.00000   0.00016   0.00000   0.00007
 4 42   19891.6    502.7   0.000000000   0.00000   0.00003   0.00004   0.00005
 4 43   19936.0    501.6   0.000000000   0.00000   0.00012   0.00001   0.00005
 4 44   20004.1    499.9   0.000000000   0.00000   0.00004   0.00002   0.00010
 4 45   20279.1    493.1   0.000000000   0.00000   0.00026   0.00003   0.00010
 4 46   20281.2    493.1   0.000000000   0.00000   0.00002   0.00038   0.00004
 4 47   20313.8    492.3   0.000000000   0.00000   0.00061   0.00003   0.00024
 4 48   20487.9    488.1   0.000000000   0.00000   0.00010   0.00007   0.00024
 4 49   20502.4    487.7   0.000000000   0.00000   0.00004   0.00034   0.00004
 4 50   20532.2    487.0   0.000000000   0.00000   0.00032   0.00002   0.00013
 4 51   20555.3    486.5   0.000000000   0.00000   0.00010   0.00001   0.00004
 4 52   20660.3    484.0   0.000000000   0.00000   0.00055   0.00002   0.00022
 4 53   20713.9    482.8   0.000000000   0.00000   0.00014   0.00040   0.00034
 4 54   20727.0    482.5   0.000000000   0.00000   0.00051   0.00001   0.00022
 4 55   20781.6    481.2   0.000000000   0.00000   0.00034   0.00001   0.00013
 4 56   20789.3    481.0   0.000000000   0.00000   0.00009   0.00002   0.00021
 4 57   20847.3    479.7   0.000000000   0.00000   0.00005   0.00041   0.00009
 4 58   20938.3    477.6   0.000000000   0.00000   0.00038   0.00002   0.00015
 4 59   20942.8    477.5   0.000000000   0.00000   0.00004   0.00038   0.00017
 4 60   20973.2    476.8   0.000000000   0.00000   0.00025   0.00001   0.00010
 4 61   20986.2    476.5   0.000000000   0.00000   0.00001   0.00004   0.00006
 4 62   21024.6    475.6   0.000000001   0.00000   0.00022   0.00070   0.00060
 4 63   21049.3    475.1   0.000000000   0.00000   0.00021   0.00001   0.00008
 4 64   21178.0    472.2   0.000000000   0.00000   0.00014   0.00001   0.00011
 4 65   21181.0    472.1   0.000000000   0.00000   0.00027   0.00001   0.00015
 4 66   21246.5    470.7   0.000000000   0.00000   0.00001   0.00020   0.00006
 4 67   21708.9    460.6   0.000000000   0.00000   0.00007   0.00019   0.00017
 4 68   21731.6    460.2   0.000000000   0.00000   0.00010   0.00000   0.00004
 4 69   21757.0    459.6   0.000000000   0.00000   0.00006   0.00007   0.00013
 4 70   21814.9    458.4   0.000000000   0.00000   0.00001   0.00000   0.00000
 4 71   21860.8    457.4   0.000000000   0.00000   0.00004   0.00015   0.00012
 4 72   21928.0    456.0   0.000000000   0.00000   0.00006   0.00001   0.00013
 4 73   22017.4    454.2   0.000000000   0.00000   0.00022   0.00001   0.00009
 4 74   22080.3    452.9   0.000000000   0.00000   0.00014   0.00000   0.00006
 4 75   22108.0    452.3   0.000000000   0.00000   0.00009   0.00033   0.00025
 4 76   22126.3    452.0   0.000000000   0.00000   0.00041   0.00000   0.00017
 4 77   22140.7    451.7   0.000000001   0.00000   0.00068   0.00003   0.00026
 4 78   22141.2    451.6   0.000000000   0.00000   0.00001   0.00001   0.00017
 4 79   22297.7    448.5   0.000000000   0.00000   0.00007   0.00001   0.00017
 4 80   22348.0    447.5   0.000000000   0.00000   0.00003   0.00000   0.00001
 4 81   22391.6    446.6   0.000000000   0.00000   0.00008   0.00008   0.00021
 4 82   22488.7    444.7   0.000000000   0.00000   0.00034   0.00001   0.00013
 4 83   22495.7    444.5   0.000000000   0.00000   0.00005   0.00035   0.00016
 4 84   22593.2    442.6   0.000000000   0.00000   0.00010   0.00013   0.00029
 4 85   22634.3    441.8   0.000000001   0.00000   0.00108   0.00005   0.00042
 4 86   22690.7    440.7   0.000000000   0.00000   0.00031   0.00001   0.00012
 4 87   22783.6    438.9   0.000000000   0.00000   0.00013   0.00003   0.00034
 4 88   24099.4    414.9   0.000000000   0.00000   0.00064   0.00002   0.00025
 4 89   24106.6    414.8   0.000000000   0.00000   0.00002   0.00006   0.00007
 4 90   24176.4    413.6   0.000000000   0.00000   0.00063   0.00002   0.00025
 4 91   24209.1    413.1   0.000000000   0.00000   0.00001   0.00025   0.00006
 4 92   24301.5    411.5   0.000000001   0.00000   0.00077   0.00003   0.00030
 4 93   24445.9    409.1   0.000000000   0.00000   0.00007   0.00013   0.00010
 4 94   24446.6    409.1   0.000000000   0.00000   0.00025   0.00006   0.00007
 4 95   24531.3    407.6   0.000000000   0.00000   0.00002   0.00033   0.00001
 4 96   24568.3    407.0   0.000000000   0.00000   0.00020   0.00001   0.00008
 4 97   24779.6    403.6   0.000000000   0.00000   0.00006   0.00020   0.00014
 4 98   24823.5    402.8   0.000000000   0.00000   0.00009   0.00000   0.00004
 4 99   24851.4    402.4   0.000000000   0.00000   0.00002   0.00009   0.00005
 4 100   25263.8    395.8   0.000000000   0.00000   0.00021   0.00001   0.00009
 4 101   25290.5    395.4   0.000000000   0.00000   0.00010   0.00003   0.00004
 4 102   25291.2    395.4   0.000000000   0.00000   0.00002   0.00024   0.00001
 4 103   25362.9    394.3   0.000000000   0.00000   0.00002   0.00015   0.00007
 4 104   25374.8    394.1   0.000000000   0.00000   0.00033   0.00002   0.00013
 4 105   25495.5    392.2   0.000000000   0.00000   0.00000   0.00017   0.00001
 4 106   25526.5    391.7   0.000000000   0.00000   0.00042   0.00001   0.00016
 4 107   25602.2    390.6   0.000000000   0.00000   0.00001   0.00034   0.00005
 4 108   25734.8    388.6   0.000000000   0.00000   0.00008   0.00000   0.00003
 4 109   25805.4    387.5   0.000000000   0.00000   0.00038   0.00001   0.00015
 4 110   25813.7    387.4   0.000000000   0.00000   0.00001   0.00008   0.00001
 4 111   25922.0    385.8   0.000000000   0.00000   0.00000   0.00000   0.00000
 4 112   25993.8    384.7   0.000000000   0.00000   0.00006   0.00000   0.00002
 4 113   26104.8    383.1   0.000000000   0.00000   0.00001   0.00010   0.00005
 4 114   26126.5    382.8   0.000000000   0.00000   0.00034   0.00001   0.00013
 4 115   30125.6    331.9   0.000000000   0.00000   0.00022   0.00001   0.00008
 4 116   30128.4    331.9   0.000000000   0.00000   0.00018   0.00029   0.00051
 4 117   30133.5    331.9   0.000000000   0.00000   0.00001   0.00008   0.00002
 4 118   30473.6    328.2   0.000000000   0.00000   0.00042   0.00002   0.00016
 4 119   30478.6    328.1   0.000000000   0.00000   0.00003   0.00011   0.00011
 4 120   30484.8    328.0   0.000000001   0.00000   0.00060   0.00003   0.00023
 4 121   30732.3    325.4   0.000000001   0.00000   0.00095   0.00004   0.00037
 4 122   30739.3    325.3   0.000000000   0.00000   0.00005   0.00006   0.00013
 4 123   30744.2    325.3   0.000000001   0.00000   0.00083   0.00003   0.00032
 4 124   30915.9    323.5   0.000000000   0.00000   0.00001   0.00006   0.00004
 4 125   30928.7    323.3   0.000000000   0.00000   0.00006   0.00008   0.00016
 4 126   30929.4    323.3   0.000000000   0.00000   0.00014   0.00001   0.00005
 4 127   31296.6    319.5   0.000000000   0.00000   0.00011   0.00004   0.00027
 4 128   31299.9    319.5   0.000000000   0.00000   0.00024   0.00001   0.00010
 4 129   31301.7    319.5   0.000000000   0.00000   0.00026   0.00001   0.00011
 4 130   46671.8    214.3   0.000000000   0.00000   0.00004   0.00003   0.00010
 4 131   46741.8    213.9   0.000000000   0.00000   0.00039   0.00001   0.00016
 4 132   46757.1    213.9   0.000000000   0.00000   0.00042   0.00002   0.00017
 4 133   46802.2    213.7   0.000000000   0.00000   0.00001   0.00012   0.00000
 4 134   46815.5    213.6   0.000000000   0.00000   0.00001   0.00000   0.00001
 4 135   46818.3    213.6   0.000000000   0.00000   0.00001   0.00015   0.00000
 4 136   46828.3    213.5   0.000000000   0.00000   0.00001   0.00000   0.00002
 4 137   46828.7    213.5   0.000000000   0.00000   0.00004   0.00001   0.00002
 4 138   46833.8    213.5   0.000000000   0.00000   0.00037   0.00002   0.00015
 4 139   47268.6    211.6   0.000000000   0.00000   0.00000   0.00013   0.00000
 4 140   47338.3    211.2   0.000000001   0.00000   0.00017   0.00035   0.00044
 4 141   47370.1    211.1   0.000000000   0.00000   0.00011   0.00000   0.00005
 4 142   47899.0    208.8   0.000000000   0.00000   0.00025   0.00001   0.00010
 4 143   47915.6    208.7   0.000000000   0.00000   0.00012   0.00032   0.00029
 4 144   47917.8    208.7   0.000000001   0.00000   0.00019   0.00017   0.00051
 4 145   48499.8    206.2   0.000000001   0.00000   0.00049   0.00002   0.00019
 4 146   48508.1    206.2   0.000000000   0.00000   0.00009   0.00021   0.00025
 4 147   48540.2    206.0   0.000000000   0.00000   0.00014   0.00000   0.00006
 4 148   48554.3    206.0   0.000000000   0.00000   0.00013   0.00016   0.00033
 4 149   48585.8    205.8   0.000000000   0.00000   0.00005   0.00022   0.00015
 4 150   48590.1    205.8   0.000000000   0.00000   0.00029   0.00001   0.00011
 4 151   49452.6    202.2   0.000000000   0.00000   0.00002   0.00034   0.00003
 4 152   49483.9    202.1   0.000000000   0.00000   0.00033   0.00001   0.00013
 4 153   49496.3    202.0   0.000000000   0.00000   0.00009   0.00012   0.00025
 4 154   50184.3    199.3   0.000000000   0.00000   0.00041   0.00001   0.00016
 4 155   50268.9    198.9   0.000000000   0.00000   0.00003   0.00000   0.00008
 4 156   50295.4    198.8   0.000000001   0.00000   0.00045   0.00002   0.00018
 4 157   51082.0    195.8   0.000000000   0.00000   0.00006   0.00009   0.00015
 4 158   51108.7    195.7   0.000000000   0.00000   0.00032   0.00001   0.00013
 4 159   51139.3    195.5   0.000000001   0.00000   0.00022   0.00038   0.00059

------------------------------------------------------------------------------
                           SOC CORRECTED DIPOLE MOMENTS
------------------------------------------------------------------------------
      TX        TY        TZ           |T|
   (Debye)   (Debye)   (Debye)      (Debye)
------------------------------------------------------------------------------
 -25.68607 -50.69283  59.25067     82.09859

--------------
CASSCF TIMINGS
--------------

Total time                       ...     8577.8 sec
Sum of individual times          ...     8586.1 sec (100.1%)

Calculation of AO operators
   F(Core) operator              ...       54.2 sec (  0.6%)
   G(Act) operator               ...       49.3 sec (  0.6%)
   J(AO) operators               ...        0.0 sec (  0.0%)
Calculation of MO transformed quantities
   J(MO) operators               ...        5.7 sec (  0.1%)
   (pq|rs) integrals             ...        0.0 sec (  0.0%)
   AO->MO one electron integrals ...        0.1 sec (  0.0%)
Configuration interaction steps
   CI-setup phase                ...        0.0 sec (  0.0%)
   CI-solution phase             ...        0.1 sec (  0.0%)
   Generation of densities       ...        0.0 sec (  0.0%)
Orbital improvement steps
   Orbital gradient              ...        0.0 sec (  0.0%)
PT2 
   NEVPT2 time                   ...     8441.9 sec ( 98.4%)
Properties                       ...       18.0 sec (  0.2%)
   SOC integral calculation      ...       16.8 sec (  0.2%)
   SSC RMEs (incl. integrals)    ...        0.0 sec (  0.0%)
   SOC RMEs                      ...        0.0 sec (  0.0%)

Maximum memory used throughout the entire CASSCF-calculation: 2367.5 MB

-------------------------   --------------------
FINAL SINGLE POINT ENERGY     -3427.445510861012
-------------------------   --------------------


                            ***************************************
                            *     ORCA property calculations      *
                            ***************************************

                                    ---------------------
                                    Active property flags
                                    ---------------------
   (+) Dipole Moment


------------------------------------------------------------------------------
                       ORCA ELECTRIC PROPERTIES CALCULATION
------------------------------------------------------------------------------

Dipole Moment Calculation                       ... on
Quadrupole Moment Calculation                   ... off
Polarizability Calculation                      ... off
GBWName                                         ... nevpt2.gbw
Electron density                                ... nevpt2.scfp
The origin for moment calculation is the CENTER OF MASS  = (13.677959, 14.966901 13.020432)

-------------
DIPOLE MOMENT
-------------
                                X             Y             Z
Electronic contribution:     10.22304      20.47499     -23.54552
Nuclear contribution   :    -10.10566     -19.94388      23.31104
                        -----------------------------------------
Total Dipole Moment    :      0.11737       0.53110      -0.23449
                        -----------------------------------------
Magnitude (a.u.)       :      0.59231
Magnitude (Debye)      :      1.50554



--------------------
Rotational spectrum 
--------------------
 
Rotational constants in cm-1:     0.000965     0.000822     0.000732 
Rotational constants in MHz :    28.920616    24.632285    21.932855 

 Dipole components along the rotational axes: 
x,y,z [a.u.] :    -0.528122     0.002243     0.268171 
x,y,z [Debye]:    -1.342378     0.005701     0.681636 

 

Timings for individual modules:

Sum of individual times         ...     8598.441 sec (= 143.307 min)
GTO integral calculation        ...       12.728 sec (=   0.212 min)   0.1 %
SCF iterations                  ...        5.121 sec (=   0.085 min)   0.1 %
CASSCF iterations               ...     8580.592 sec (= 143.010 min)  99.8 %
                             ****ORCA TERMINATED NORMALLY****
TOTAL RUN TIME: 0 days 2 hours 23 minutes 19 seconds 135 msec
