
                                 *****************
                                 * O   R   C   A *
                                 *****************

                                            #,                                       
                                            ###                                      
                                            ####                                     
                                            #####                                    
                                            ######                                   
                                           ########,                                 
                                     ,,################,,,,,                         
                               ,,#################################,,                 
                          ,,##########################################,,             
                       ,#########################################, ''#####,          
                    ,#############################################,,   '####,        
                  ,##################################################,,,,####,       
                ,###########''''           ''''###############################       
              ,#####''   ,,,,##########,,,,          '''####'''          '####       
            ,##' ,,,,###########################,,,                        '##       
           ' ,,###''''                  '''############,,,                           
         ,,##''                                '''############,,,,        ,,,,,,###''
      ,#''                                            '''#######################'''  
     '                                                          ''''####''''         
             ,#######,   #######,   ,#######,      ##                                
            ,#'     '#,  ##    ##  ,#'     '#,    #''#        ######   ,####,        
            ##       ##  ##   ,#'  ##            #'  '#       #        #'  '#        
            ##       ##  #######   ##           ,######,      #####,   #    #        
            '#,     ,#'  ##    ##  '#,     ,#' ,#      #,         ##   #,  ,#        
             '#######'   ##     ##  '#######'  #'      '#     #####' # '####'        



                  #######################################################
                  #                        -***-                        #
                  #          Department of theory and spectroscopy      #
                  #    Directorship and core code : Frank Neese         #
                  #        Max Planck Institute fuer Kohlenforschung    #
                  #                Kaiser Wilhelm Platz 1               #
                  #                 D-45470 Muelheim/Ruhr               #
                  #                      Germany                        #
                  #                                                     #
                  #                  All rights reserved                #
                  #                        -***-                        #
                  #######################################################


                         Program Version 5.0.3 -  RELEASE  -


 With contributions from (in alphabetic order):
   Daniel Aravena         : Magnetic Suceptibility
   Michael Atanasov       : Ab Initio Ligand Field Theory (pilot matlab implementation)
   Alexander A. Auer      : GIAO ZORA, VPT2 properties, NMR spectrum
   Ute Becker             : Parallelization
   Giovanni Bistoni       : ED, misc. LED, open-shell LED, HFLD
   Martin Brehm           : Molecular dynamics
   Dmytro Bykov           : SCF Hessian
   Vijay G. Chilkuri      : MRCI spin determinant printing, contributions to CSF-ICE
   Dipayan Datta          : RHF DLPNO-CCSD density
   Achintya Kumar Dutta   : EOM-CC, STEOM-CC
   Dmitry Ganyushin       : Spin-Orbit,Spin-Spin,Magnetic field MRCI
   Miquel Garcia          : C-PCM and meta-GGA Hessian, CC/C-PCM, Gaussian charge scheme
   Yang Guo               : DLPNO-NEVPT2, F12-NEVPT2, CIM, IAO-localization
   Andreas Hansen         : Spin unrestricted coupled pair/coupled cluster methods
   Benjamin Helmich-Paris : MC-RPA, TRAH-SCF, COSX integrals
   Lee Huntington         : MR-EOM, pCC
   Robert Izsak           : Overlap fitted RIJCOSX, COSX-SCS-MP3, EOM
   Marcus Kettner         : VPT2
   Christian Kollmar      : KDIIS, OOCD, Brueckner-CCSD(T), CCSD density, CASPT2, CASPT2-K
   Simone Kossmann        : Meta GGA functionals, TD-DFT gradient, OOMP2, MP2 Hessian
   Martin Krupicka        : Initial AUTO-CI
   Lucas Lang             : DCDCAS
   Marvin Lechner         : AUTO-CI (C++ implementation), FIC-MRCC
   Dagmar Lenk            : GEPOL surface, SMD
   Dimitrios Liakos       : Extrapolation schemes; Compound Job, initial MDCI parallelization
   Dimitrios Manganas     : Further ROCIS development; embedding schemes
   Dimitrios Pantazis     : SARC Basis sets
   Anastasios Papadopoulos: AUTO-CI, single reference methods and gradients
   Taras Petrenko         : DFT Hessian,TD-DFT gradient, ASA, ECA, R-Raman, ABS, FL, XAS/XES, NRVS
   Peter Pinski           : DLPNO-MP2, DLPNO-MP2 Gradient
   Christoph Reimann      : Effective Core Potentials
   Marius Retegan         : Local ZFS, SOC
   Christoph Riplinger    : Optimizer, TS searches, QM/MM, DLPNO-CCSD(T), (RO)-DLPNO pert. Triples
   Tobias Risthaus        : Range-separated hybrids, TD-DFT gradient, RPA, STAB
   Michael Roemelt        : Original ROCIS implementation
   Masaaki Saitow         : Open-shell DLPNO-CCSD energy and density
   Barbara Sandhoefer     : DKH picture change effects
   Avijit Sen             : IP-ROCIS
   Kantharuban Sivalingam : CASSCF convergence, NEVPT2, FIC-MRCI
   Bernardo de Souza      : ESD, SOC TD-DFT
   Georgi Stoychev        : AutoAux, RI-MP2 NMR, DLPNO-MP2 response
   Willem Van den Heuvel  : Paramagnetic NMR
   Boris Wezisla          : Elementary symmetry handling
   Frank Wennmohs         : Technical directorship


 We gratefully acknowledge several colleagues who have allowed us to
 interface, adapt or use parts of their codes:
   Stefan Grimme, W. Hujo, H. Kruse, P. Pracht,  : VdW corrections, initial TS optimization,
                  C. Bannwarth, S. Ehlert          DFT functionals, gCP, sTDA/sTD-DF
   Ed Valeev, F. Pavosevic, A. Kumar             : LibInt (2-el integral package), F12 methods
   Garnet Chan, S. Sharma, J. Yang, R. Olivares  : DMRG
   Ulf Ekstrom                                   : XCFun DFT Library
   Mihaly Kallay                                 : mrcc  (arbitrary order and MRCC methods)
   Jiri Pittner, Ondrej Demel                    : Mk-CCSD
   Frank Weinhold                                : gennbo (NPA and NBO analysis)
   Christopher J. Cramer and Donald G. Truhlar   : smd solvation model
   Lars Goerigk                                  : TD-DFT with DH, B97 family of functionals
   V. Asgeirsson, H. Jonsson                     : NEB implementation
   FAccTs GmbH                                   : IRC, NEB, NEB-TS, DLPNO-Multilevel, CI-OPT
                                                   MM, QMMM, 2- and 3-layer-ONIOM, Crystal-QMMM,
                                                   LR-CPCM, SF, NACMEs, symmetry and pop. for TD-DFT,
                                                   nearIR, NL-DFT gradient (VV10), updates on ESD,
                                                   ML-optimized integration grids
   S Lehtola, MJT Oliveira, MAL Marques          : LibXC Library
   Liviu Ungur et al                             : ANISO software


 Your calculation uses the libint2 library for the computation of 2-el integrals
 For citations please refer to: http://libint.valeyev.net

 Your ORCA version has been built with support for libXC version: 5.1.0
 For citations please refer to: https://tddft.org/programs/libxc/

 This ORCA versions uses:
   CBLAS   interface :  Fast vector & matrix operations
   LAPACKE interface :  Fast linear algebra routines
   SCALAPACK package :  Parallel linear algebra routines
   Shared memory     :  Shared parallel matrices
   BLAS/LAPACK       :  OpenBLAS 0.3.15  USE64BITINT DYNAMIC_ARCH NO_AFFINITY Sandybridge SINGLE_THREADED
        Core in use  :  Sandybridge
   Copyright (c) 2011-2014, The OpenBLAS Project




***************************************
The coordinates will be read from file: pbe.xyz
***************************************


================================================================================

cite the ECPs for Au [Def2-ECP] as follows:
Ce-Yb(ecp-28): M. Dolg, H. Stoll, H.Preuss, J. Chem. Phys., 1989, 90, 1730-1734.
Y-Cd(ecp-28), Hf-Hg(ecp-46): D. Andrae,U. Haeussermann, M. Dolg, H. Stoll, H. Preuss, Theor. Chim. Acta, 1990, 77, 123-141.
In-Sb(ecp-28), Tl-Bi(ecp-46): B. Metz, H. Stoll, M. Dolg, J. Chem. Phys., 2000, 113, 2563-2569.
Te-Xe(ecp-28), Po-Rn(ecp-46): K. A. Peterson, D. Figgen, E. Goll, H. Stoll, M. Dolg, J. Chem. Phys., 2003, 119, 11113-11123.
Rb(ecp-28), Cs(ecp-46): T. Leininger, A. Nicklass, W. Kuechle, H. Stoll, M. Dolg, A. Bergner, Chem. Phys. Lett., 1996, 255, 274-280.
Sr(ecp-28), Ba(ecp-46): M. Kaupp, P. V. Schleyer, H. Stoll and H. Preuss, J. Chem. Phys., 1991, 94, 1360-1366.
La(ecp-46): M. Dolg, H. Stoll, A. Savin, H. Preuss, Theor. Chim. Acta, 1989, 75, 173-194.
Lu(ecp-28): X. Cao, M. Dolg, J. Chem. Phys., 2001, 115, 7348-7355.

ECP parameters for Au [Def2-ECP] have been obtained from:
TURBOMOLE (7.0.2)

----- Orbital basis set information -----
Your calculation utilizes the basis: def2-TZVP
   F. Weigend and R. Ahlrichs, Phys. Chem. Chem. Phys. 7, 3297 (2005).

----- AuxJ basis set information -----
Your calculation utilizes the auxiliary basis: def2/J
   F. Weigend, Phys. Chem. Chem. Phys. 8, 1057 (2006).

----- AuxC basis set information -----
Your calculation utilizes the auxiliary basis: def2-TZVP/C
  H-La, Hf-Rn : A. Hellweg, C. Hattig, S. Hofener and W. Klopper, Theor. Chem. Acc. 117, 587 (2007).
        Ce-Lu : J. Chmela and M. E. Harding, Mol. Phys. (2018).

================================================================================
                                        WARNINGS
                       Please study these warnings very carefully!
================================================================================


WARNING: your system is open-shell and RHF/RKS was chosen
  ===> : WILL SWITCH to UHF/UKS


WARNING: No MP2 level density has been requested!
         To caclulate MP2 level properties use
         %mp2 Density relaxed end
         or
         %mp2 Density unrelaxed end
         Otherwise for double-hybrid DFT only the energy is correct!

WARNING: The frozen-core approximation is turned on by default for 
         the MP2 part of double-hybrid DFT.

INFO   : the flag for use of the SHARK integral package has been found!



***************************************
The coordinates will be read from file: pbe.xyz
***************************************


================================================================================

cite the ECPs for Au [Def2-ECP] as follows:
Ce-Yb(ecp-28): M. Dolg, H. Stoll, H.Preuss, J. Chem. Phys., 1989, 90, 1730-1734.
Y-Cd(ecp-28), Hf-Hg(ecp-46): D. Andrae,U. Haeussermann, M. Dolg, H. Stoll, H. Preuss, Theor. Chim. Acta, 1990, 77, 123-141.
In-Sb(ecp-28), Tl-Bi(ecp-46): B. Metz, H. Stoll, M. Dolg, J. Chem. Phys., 2000, 113, 2563-2569.
Te-Xe(ecp-28), Po-Rn(ecp-46): K. A. Peterson, D. Figgen, E. Goll, H. Stoll, M. Dolg, J. Chem. Phys., 2003, 119, 11113-11123.
Rb(ecp-28), Cs(ecp-46): T. Leininger, A. Nicklass, W. Kuechle, H. Stoll, M. Dolg, A. Bergner, Chem. Phys. Lett., 1996, 255, 274-280.
Sr(ecp-28), Ba(ecp-46): M. Kaupp, P. V. Schleyer, H. Stoll and H. Preuss, J. Chem. Phys., 1991, 94, 1360-1366.
La(ecp-46): M. Dolg, H. Stoll, A. Savin, H. Preuss, Theor. Chim. Acta, 1989, 75, 173-194.
Lu(ecp-28): X. Cao, M. Dolg, J. Chem. Phys., 2001, 115, 7348-7355.

ECP parameters for Au [Def2-ECP] have been obtained from:
TURBOMOLE (7.0.2)

----- Orbital basis set information -----
Your calculation utilizes the basis: def2-TZVP
   F. Weigend and R. Ahlrichs, Phys. Chem. Chem. Phys. 7, 3297 (2005).

----- AuxJ basis set information -----
Your calculation utilizes the auxiliary basis: def2/J
   F. Weigend, Phys. Chem. Chem. Phys. 8, 1057 (2006).

----- AuxC basis set information -----
Your calculation utilizes the auxiliary basis: def2-TZVP/C
  H-La, Hf-Rn : A. Hellweg, C. Hattig, S. Hofener and W. Klopper, Theor. Chem. Acc. 117, 587 (2007).
        Ce-Lu : J. Chmela and M. E. Harding, Mol. Phys. (2018).

================================================================================
                                        WARNINGS
                       Please study these warnings very carefully!
================================================================================


WARNING: No MP2 level density has been requested!
         To caclulate MP2 level properties use
         %mp2 Density relaxed end
         or
         %mp2 Density unrelaxed end
         Otherwise for double-hybrid DFT only the energy is correct!

WARNING: The frozen-core approximation is turned on by default for 
         the MP2 part of double-hybrid DFT.

INFO   : the flag for use of the SHARK integral package has been found!

================================================================================
                                       INPUT FILE
================================================================================
NAME = b2plyp.inp
|  1> !RI-B2PLYP def2-TZVP def2-TZVP/C
|  2> !RIJCOSX VERYSLOWCONV
|  3> 
|  4> %scf
|  5>   AutoTRAHIter 200
|  6>   maxiter 400
|  7> end
|  8> 
|  9> 
| 10> %pal nprocs 6 end 
| 11> 
| 12> *xyzfile 0 6 pbe.xyz
| 13> 
| 14> $new_job
| 15> 
| 16> !RI-B2PLYP def2-TZVP def2-TZVP/C
| 17> !RIJCOSX VERYSLOWCONV
| 18> 
| 19> %scf
| 20>   AutoTRAHIter 200
| 21>   maxiter 400
| 22> end
| 23> 
| 24> 
| 25> %pal nprocs 6 end 
| 26> 
| 27> *xyzfile 0 4 pbe.xyz
| 28> 
| 29> 
| 30> 
| 31> 
| 32> 
| 33>                          ****END OF INPUT****
================================================================================


                 $$$$$$$$$$$$$$$$$$$$$$$$$$$$$$$$$$$$$$$$$$$$$$ 
                 $ THERE ARE  2 JOBS TO BE PROCESSED THIS RUN $
                 $$$$$$$$$$$$$$$$$$$$$$$$$$$$$$$$$$$$$$$$$$$$$$ 




                 $$$$$$$$$$$$$$$$  JOB NUMBER  1 $$$$$$$$$$$$$$


                       ****************************
                       * Single Point Calculation *
                       ****************************

---------------------------------
CARTESIAN COORDINATES (ANGSTROEM)
---------------------------------
  Au     7.006202    5.381086    7.248390
  Au     4.645554    6.801607    7.084974
  Au     6.026167    7.316273    9.420751
  Au     6.281735    6.387141    4.794885
  Au     6.484743    8.887791    6.081730
  Au     4.716496    9.409068    8.220544
  Au     9.733695    5.603970    7.107576
  Au     8.766473    7.480575    5.097846
  Au    10.913205    8.111596    6.778954
  Au     8.984397   10.094054    6.141909
  Au     8.259390    5.783542    9.625493
  Au     8.225429    8.573902   10.472234
  Au     9.996786    9.905275    8.782721
  Au     7.270551   10.373440    8.377773
  Mn     8.375766    7.854361    7.843372

----------------------------
CARTESIAN COORDINATES (A.U.)
----------------------------
  NO LB      ZA    FRAG     MASS         X           Y           Z
   0 Au   19.0000*   0   196.966   13.239803   10.168779   13.697472
   1 Au   19.0000*   0   196.966    8.778825   12.853175   13.388661
   2 Au   19.0000*   0   196.966   11.387805   13.825753   17.802640
   3 Au   19.0000*   0   196.966   11.870758   12.069947    9.061020
   4 Au   19.0000*   0   196.966   12.254389   16.795491   11.492804
   5 Au   19.0000*   0   196.966    8.912886   17.780562   15.534578
   6 Au   19.0000*   0   196.966   18.394017   10.589968   13.431373
   7 Au   19.0000*   0   196.966   16.566234   14.136237    9.633533
   8 Au   19.0000*   0   196.966   20.622968   15.328695   12.810367
   9 Au   19.0000*   0   196.966   16.978050   19.074998   11.606527
  10 Au   19.0000*   0   196.966   15.607986   10.929310   18.189545
  11 Au   19.0000*   0   196.966   15.543809   16.202327   19.789654
  12 Au   19.0000*   0   196.966   18.891187   18.718258   16.596938
  13 Au   19.0000*   0   196.966   13.739350   19.602962   15.831697
  14 Mn   25.0000    0    54.940   15.827905   14.842592   14.821826
* core charge reduced due to ECP

--------------------------------
INTERNAL COORDINATES (ANGSTROEM)
--------------------------------
 Au     0   0   0     0.000000000000     0.00000000     0.00000000
 Au     1   0   0     2.759935175269     0.00000000     0.00000000
 Au     2   1   0     2.761671256396    67.55756410     0.00000000
 Au     1   2   3     2.748942342979    62.18424275   218.43953827
 Au     4   1   2     2.819651215692    84.16085949    61.83306159
 Au     3   2   1     2.745091124582    62.21042814   142.46211005
 Au     1   2   3     2.740205039697   143.75073021   287.18010947
 Au     4   1   2     2.731539466021    78.91746011   124.28142143
 Au     7   1   2     2.790595902462   119.99036595     3.70319419
 Au     5   4   1     2.776141192760   117.39179855    86.70185189
 Au     3   2   1     2.716333774402   111.69097260   356.26536694
 Au     3   2   1     2.742991167955   144.14332594    72.46796723
 Au    12   3   2     2.786522874297   119.75668062   358.08073382
 Au     6   3   2     2.734580735870    78.35309916   235.78971694
 Mn     7   1   2     2.729400374893    63.76840428    25.81008127

---------------------------
INTERNAL COORDINATES (A.U.)
---------------------------
 Au     0   0   0     0.000000000000     0.00000000     0.00000000
 Au     1   0   0     5.215521628634     0.00000000     0.00000000
 Au     2   1   0     5.218802346510    67.55756410     0.00000000
 Au     1   2   3     5.194748186170    62.18424275   218.43953827
 Au     4   1   2     5.328368590835    84.16085949    61.83306159
 Au     3   2   1     5.187470438119    62.21042814   142.46211005
 Au     1   2   3     5.178237075818   143.75073021   287.18010947
 Au     4   1   2     5.161861514777    78.91746011   124.28142143
 Au     7   1   2     5.273462006095   119.99036595     3.70319419
 Au     5   4   1     5.246146563414   117.39179855    86.70185189
 Au     3   2   1     5.133126921941   111.69097260   356.26536694
 Au     3   2   1     5.183502095200   144.14332594    72.46796723
 Au    12   3   2     5.265765098329   119.75668062   358.08073382
 Au     6   3   2     5.167608681891    78.35309916   235.78971694
 Mn     7   1   2     5.157819218370    63.76840428    25.81008127

---------------------
BASIS SET INFORMATION
---------------------
There are 2 groups of distinct atoms

 Group   1 Type Au  : 8s7p6d1f contracted to 6s4p3d1f pattern {311111/4111/411/1}
 Group   2 Type Mn  : 17s11p7d1f contracted to 6s4p4d1f pattern {842111/6311/4111/1}

Atom   0Au   basis set group =>   1
Atom   1Au   basis set group =>   1
Atom   2Au   basis set group =>   1
Atom   3Au   basis set group =>   1
Atom   4Au   basis set group =>   1
Atom   5Au   basis set group =>   1
Atom   6Au   basis set group =>   1
Atom   7Au   basis set group =>   1
Atom   8Au   basis set group =>   1
Atom   9Au   basis set group =>   1
Atom  10Au   basis set group =>   1
Atom  11Au   basis set group =>   1
Atom  12Au   basis set group =>   1
Atom  13Au   basis set group =>   1
Atom  14Mn   basis set group =>   2
---------------------------------
AUXILIARY/J BASIS SET INFORMATION
---------------------------------
There are 2 groups of distinct atoms

 Group   1 Type Au  : 11s5p5d3f3g contracted to 8s5p5d2f3g pattern {41111111/11111/11111/21/111}
 Group   2 Type Mn  : 19s5p5d3f3g contracted to 8s5p5d2f3g pattern {121111111/11111/11111/21/111}

Atom   0Au   basis set group =>   1
Atom   1Au   basis set group =>   1
Atom   2Au   basis set group =>   1
Atom   3Au   basis set group =>   1
Atom   4Au   basis set group =>   1
Atom   5Au   basis set group =>   1
Atom   6Au   basis set group =>   1
Atom   7Au   basis set group =>   1
Atom   8Au   basis set group =>   1
Atom   9Au   basis set group =>   1
Atom  10Au   basis set group =>   1
Atom  11Au   basis set group =>   1
Atom  12Au   basis set group =>   1
Atom  13Au   basis set group =>   1
Atom  14Mn   basis set group =>   2
---------------------------------
AUXILIARY/C BASIS SET INFORMATION
---------------------------------
There are 2 groups of distinct atoms

 Group   1 Type Au  : 8s8p7d5f3g2h contracted to 8s8p7d5f3g2h pattern {11111111/11111111/1111111/11111/111/11}
 Group   2 Type Mn  : 11s9p8d6f5g2h contracted to 9s8p8d6f5g2h pattern {311111111/21111111/11111111/111111/11111/11}

Atom   0Au   basis set group =>   1
Atom   1Au   basis set group =>   1
Atom   2Au   basis set group =>   1
Atom   3Au   basis set group =>   1
Atom   4Au   basis set group =>   1
Atom   5Au   basis set group =>   1
Atom   6Au   basis set group =>   1
Atom   7Au   basis set group =>   1
Atom   8Au   basis set group =>   1
Atom   9Au   basis set group =>   1
Atom  10Au   basis set group =>   1
Atom  11Au   basis set group =>   1
Atom  12Au   basis set group =>   1
Atom  13Au   basis set group =>   1
Atom  14Mn   basis set group =>   2
-------------------------
ECP PARAMETER INFORMATION
-------------------------

 Group 1, Type Au ECP Def2-ECP (replacing 60 core electrons, lmax=3)

Atom   0Au   ECP group =>   1
Atom   1Au   ECP group =>   1
Atom   2Au   ECP group =>   1
Atom   3Au   ECP group =>   1
Atom   4Au   ECP group =>   1
Atom   5Au   ECP group =>   1
Atom   6Au   ECP group =>   1
Atom   7Au   ECP group =>   1
Atom   8Au   ECP group =>   1
Atom   9Au   ECP group =>   1
Atom  10Au   ECP group =>   1
Atom  11Au   ECP group =>   1
Atom  12Au   ECP group =>   1
Atom  13Au   ECP group =>   1



           ************************************************************
           *        Program running with 6 parallel MPI-processes     *
           *              working on a common directory               *
           ************************************************************
------------------------------------------------------------------------------
                           ORCA GTO INTEGRAL CALCULATION
                           -- RI-GTO INTEGRALS CHOSEN --
------------------------------------------------------------------------------
------------------------------------------------------------------------------
                   ___                                                        
                  /   \      - P O W E R E D   B Y -                         
                 /     \                                                     
                 |  |  |   _    _      __       _____    __    __             
                 |  |  |  | |  | |    /  \     |  _  \  |  |  /  |          
                  \  \/   | |  | |   /    \    | | | |  |  | /  /          
                 / \  \   | |__| |  /  /\  \   | |_| |  |  |/  /          
                |  |  |   |  __  | /  /__\  \  |    /   |      \           
                |  |  |   | |  | | |   __   |  |    \   |  |\   \          
                \     /   | |  | | |  |  |  |  | |\  \  |  | \   \       
                 \___/    |_|  |_| |__|  |__|  |_| \__\ |__|  \__/        
                                                                              
                      - O R C A' S   B I G   F R I E N D -                    
                                      &                                       
                       - I N T E G R A L  F E E D E R -                       
                                                                              
 v1 FN, 2020, v2 2021                                                         
------------------------------------------------------------------------------


Reading SHARK input file b2plyp.SHARKINP.tmp ... ok
----------------------
SHARK INTEGRAL PACKAGE
----------------------

Number of atoms                             ...     15
Number of basis functions                   ...    605
Number of shells                            ...    211
Maximum angular momentum                    ...      3
Integral batch strategy                     ... SHARK/LIBINT Hybrid
RI-J (if used) integral strategy            ... SPLIT-RIJ (Revised 2003 algorithm where possible)
Printlevel                                  ...      1
Contraction scheme used                     ... SEGMENTED contraction
Coulomb Range Separation                    ... NOT USED
Exchange Range Separation                   ... NOT USED
Finite Nucleus Model                        ... NOT USED
Auxiliary Coulomb fitting basis             ... AVAILABLE
   # of basis functions in Aux-J            ...   1335
   # of shells in Aux-J                     ...    345
   Maximum angular momentum in Aux-J        ...      4
Auxiliary J/K fitting basis                 ... NOT available
Auxiliary Correlation fitting basis         ... AVAILABLE
   # of basis functions in Aux-C            ...   2296
   # of shells in Aux-C                     ...    500
   Maximum angular momentum in Aux-C        ...      5
Auxiliary 'external' fitting basis          ... NOT available
Integral threshold                          ...     1.000000e-10
Primitive cut-off                           ...     1.000000e-11
Primitive pair pre-selection threshold      ...     1.000000e-11

Calculating pre-screening integrals         ... done (  0.3 sec) Dimension = 211
Organizing shell pair data                  ... done (  0.8 sec)
Shell pair information
Total number of shell pairs                 ...     22366
Shell pairs after pre-screening             ...     17852
Total number of primitive shell pairs       ...     59609
Primitive shell pairs kept                  ...     34410
          la=0 lb=0:   2805 shell pairs
          la=1 lb=0:   4061 shell pairs
          la=1 lb=1:   1537 shell pairs
          la=2 lb=0:   3538 shell pairs
          la=2 lb=1:   2509 shell pairs
          la=2 lb=2:   1027 shell pairs
          la=3 lb=0:    933 shell pairs
          la=3 lb=1:    716 shell pairs
          la=3 lb=2:    628 shell pairs
          la=3 lb=3:     98 shell pairs

Calculating one electron integrals          ... done (  0.1 sec)
Calculating ECP integrals                   ... done ( 19.6 sec)
Calculating RI/J V-Matrix + Cholesky decomp.... done (  0.2 sec)
Calculating RI/C V-Matrix + Cholesky decomp.... done (  0.5 sec)
Calculating Nuclear repulsion               ... done (  0.0 sec) ENN=   5651.567196323093 Eh

SHARK setup successfully completed in  22.2 seconds

Maximum memory used throughout the entire GTOINT-calculation: 49.4 MB


           ************************************************************
           *        Program running with 6 parallel MPI-processes     *
           *              working on a common directory               *
           ************************************************************
-------------------------------------------------------------------------------
                                 ORCA SCF
-------------------------------------------------------------------------------

------------
SCF SETTINGS
------------
Hamiltonian:
 Density Functional     Method          .... DFT(GTOs)
 Exchange Functional    Exchange        .... B88
   X-Alpha parameter    XAlpha          ....  0.666667
   Becke's b parameter  XBeta           ....  0.004200
 Correlation Functional Correlation     .... LYP
 LDA part of GGA corr.  LDAOpt          .... VWN-3
 Gradients option       PostSCFGGA      .... off
 Hybrid DFT is turned on
   Fraction HF Exchange ScalHFX         ....  0.530000
   Scaling of DF-GGA-X  ScalDFX         ....  0.470000
   Scaling of DF-GGA-C  ScalDFC         ....  0.730000
   Scaling of DF-LDA-C  ScalLDAC        ....  0.730000
   Perturbative correction              ....  0.270000
   Density functional embedding theory  .... OFF
   NL short-range parameter             ....  7.800000
 RI-approximation to the Coulomb term is turned on
   Number of AuxJ basis functions       .... 1335
   RIJ-COSX (HFX calculated with COS-X)).... on


General Settings:
 Integral files         IntName         .... b2plyp
 Hartree-Fock type      HFTyp           .... UHF
 Total Charge           Charge          ....    0
 Multiplicity           Mult            ....    6
 Number of Electrons    NEL             ....  291
 Basis Dimension        Dim             ....  605
 Nuclear Repulsion      ENuc            ....   5651.5671963231 Eh

Convergence Acceleration:
 DIIS                   CNVDIIS         .... on
   Start iteration      DIISMaxIt       ....     0
   Startup error        DIISStart       ....  0.200000
   # of expansion vecs  DIISMaxEq       ....     5
   Bias factor          DIISBfac        ....   1.050
   Max. coefficient     DIISMaxC        ....  10.000
 Trust-Rad. Augm. Hess. CNVTRAH         .... auto
   Auto Start mean grad. ratio tolernc. ....  1.125000
   Auto Start start iteration           ....   200
   Auto Start num. interpolation iter.  ....    10
   Max. Number of Micro iterations      ....    16
   Max. Number of Macro iterations      .... Maxiter - #DIIS iter
   Number of Davidson start vectors     ....     2
   Converg. threshold I  (grad. norm)   ....   5.000e-05
   Converg. threshold II (energy diff.) ....   1.000e-06
   Grad. Scal. Fac. for Micro threshold ....   0.100
   Minimum threshold for Micro iter.    ....   0.010
   NR start threshold (gradient norm)   ....   0.001
   Initial trust radius                 ....   0.400
   Minimum AH scaling param. (alpha)    ....   1.000
   Maximum AH scaling param. (alpha)    .... 1000.000
   Orbital update algorithm             .... Taylor
   White noise on init. David. guess    .... on
   Maximum white noise                  ....   0.010
   Quad. conv. algorithm                .... NR
 SOSCF                  CNVSOSCF        .... off
 Level Shifting         CNVShift        .... on
   Level shift para.    LevelShift      ....    0.2500
   Turn off err/grad.   ShiftErr        ....    0.0000
 Zerner damping         CNVZerner       .... off
 Static damping         CNVDamp         .... on
   Fraction old density DampFac         ....    0.9200
   Max. Damping (<1)    DampMax         ....    0.9800
   Min. Damping (>=0)   DampMin         ....    0.0000
   Turn off err/grad.   DampErr         ....    0.0030
 Fernandez-Rico         CNVRico         .... off

SCF Procedure:
 Maximum # iterations   MaxIter         ....   400
 SCF integral mode      SCFMode         .... Direct
   Integral package                     .... SHARK and LIBINT hybrid scheme
 Reset frequency        DirectResetFreq ....    20
 Integral Threshold     Thresh          ....  1.000e-10 Eh
 Primitive CutOff       TCut            ....  1.000e-11 Eh

Convergence Tolerance:
 Convergence Check Mode ConvCheckMode   .... Total+1el-Energy
 Convergence forced     ConvForced      .... 0
 Energy Change          TolE            ....  1.000e-06 Eh
 1-El. energy change                    ....  1.000e-03 Eh
 DIIS Error             TolErr          ....  1.000e-06


Diagonalization of the overlap matrix:
Smallest eigenvalue                        ... 3.027e-04
Time for diagonalization                   ...    0.155 sec
Threshold for overlap eigenvalues          ... 1.000e-08
Number of eigenvalues below threshold      ... 0
Time for construction of square roots      ...    0.115 sec
Total time needed                          ...    0.273 sec

Time for model grid setup =    0.944 sec

------------------------------
INITIAL GUESS: MODEL POTENTIAL
------------------------------
Loading Hartree-Fock densities                     ... done
  calling /home/ehlert/src/miniconda3/envs/orca500/Programs/ORCA501/orca b2plyp_atom79.inp > b2plyp_atom79.out in order to generate an atomic fitting density for atom 0 (Au with ECP) on-the-fly... 
    atom 0 (Au), assumed electronic state with S=2: 1s2 2s2 2p6 3s2 3p6 4s2 3d10 4p6 5s2 4d10 5p6 6s1 4f14 5d10           ... done
Calculating cut-offs                               ... done
Initializing the effective Hamiltonian             ... done
Setting up the integral package (SHARK)            ... done
Starting the Coulomb interaction                   ... done (   1.0 sec)
Reading the grid                                   ... done
Mapping shells                                     ... done
Starting the XC term evaluation                    ... done (   1.0 sec)
  promolecular density results
     # of electrons  =   1131.014515135
     EX              =  -5194.126522279
     EC              =    -22.989003144
     EX+EC           =  -5217.115525424
Transforming the Hamiltonian                       ... done (   0.1 sec)
Diagonalizing the Hamiltonian                      ... done (   0.2 sec)
Back transforming the eigenvectors                 ... done (   0.0 sec)
Now organizing SCF variables                       ... done
                      ------------------
                      INITIAL GUESS DONE (   4.3 sec)
                      ------------------
-------------------
DFT GRID GENERATION
-------------------

General Integration Accuracy     IntAcc      ... 4.388
Radial Grid Type                 RadialGrid  ... OptM3 with GC (2021)
Angular Grid (max. ang.)         AngularGrid ... 4 (Lebedev-302)
Angular grid pruning method      GridPruning ... 4 (adaptive)
Weight generation scheme         WeightScheme... Becke
Basis function cutoff            BFCut       ... 1.0000e-10
Integration weight cutoff        WCut        ... 1.0000e-14
Angular grids for H and He will be reduced by one unit
Partially contracted basis set               ... off
Rotationally invariant grid construction     ... off

Total number of grid points                  ...   165784
Total number of batches                      ...     2600
Average number of points per batch           ...       63
Average number of grid points per atom       ...    11052
Time for grid setup =    2.956 sec

--------------------
COSX GRID GENERATION
--------------------

GRIDX 1
-------
General Integration Accuracy     IntAcc      ... 3.816
Radial Grid Type                 RadialGrid  ... OptM3 with GC (2021)
Angular Grid (max. ang.)         AngularGrid ... 1 (Lebedev-50)
Angular grid pruning method      GridPruning ... 4 (adaptive)
Weight generation scheme         WeightScheme... Becke
Basis function cutoff            BFCut       ... 1.0000e-10
Integration weight cutoff        WCut        ... 1.0000e-14
Angular grids for H and He will be reduced by one unit
Partially contracted basis set               ... on
Rotationally invariant grid construction     ... off

Total number of grid points                  ...    17377
Total number of batches                      ...      279
Average number of points per batch           ...       62
Average number of grid points per atom       ...     1158
UseSFitting                                  ... on

GRIDX 2
-------
General Integration Accuracy     IntAcc      ... 4.020
Radial Grid Type                 RadialGrid  ... OptM3 with GC (2021)
Angular Grid (max. ang.)         AngularGrid ... 2 (Lebedev-110)
Angular grid pruning method      GridPruning ... 4 (adaptive)
Weight generation scheme         WeightScheme... Becke
Basis function cutoff            BFCut       ... 1.0000e-10
Integration weight cutoff        WCut        ... 1.0000e-14
Angular grids for H and He will be reduced by one unit
Partially contracted basis set               ... on
Rotationally invariant grid construction     ... off

Total number of grid points                  ...    52604
Total number of batches                      ...      831
Average number of points per batch           ...       63
Average number of grid points per atom       ...     3507
UseSFitting                                  ... on

GRIDX 3
-------
General Integration Accuracy     IntAcc      ... 4.338
Radial Grid Type                 RadialGrid  ... OptM3 with GC (2021)
Angular Grid (max. ang.)         AngularGrid ... 3 (Lebedev-194)
Angular grid pruning method      GridPruning ... 4 (adaptive)
Weight generation scheme         WeightScheme... Becke
Basis function cutoff            BFCut       ... 1.0000e-10
Integration weight cutoff        WCut        ... 1.0000e-14
Angular grids for H and He will be reduced by one unit
Partially contracted basis set               ... on
Rotationally invariant grid construction     ... off

Total number of grid points                  ...    95719
Total number of batches                      ...     1503
Average number of points per batch           ...       63
Average number of grid points per atom       ...     6381
UseSFitting                                  ... on

Time for X-Grid setup             =    3.063 sec

--------------
SCF ITERATIONS
--------------
ITER       Energy         Delta-E        Max-DP      RMS-DP      [F,P]     Damp
               ***  Starting incremental Fock matrix formation  ***
  0  -3043.7427229596   0.000000000000 0.07468766  0.00054281  0.4351175 0.9200
  1  -3044.5385798266  -0.795856866975 0.06928927  0.00050693  0.2935143 0.9200
                               ***Turning on DIIS***
  2  -3044.9944471346  -0.455867307969 0.05534589  0.00043923  0.2325012 0.9200
  3  -3045.2101235041  -0.215676369537 0.03447372  0.00034385  0.2137879 0.9200
  4  -3045.3008310158  -0.090707511670 0.02417377  0.00024768  0.1966646 0.9200
  5  -3045.3813151195  -0.080484103707 0.02315094  0.00023391  0.1809016 0.9200
  6  -3045.4580356880  -0.076720568493 0.02141046  0.00022008  0.1664206 0.9200
  7  -3045.5231855292  -0.065149841224 0.01988189  0.00019962  0.1531621 0.9200
  8  -3045.5955172452  -0.072331715966 0.01768052  0.00018865  0.1409724 0.9200
  9  -3045.6739110965  -0.078393851317 0.01675690  0.00017599  0.1297256 0.9200
 10  -3045.7456955239  -0.071784427480 0.01587337  0.00016330  0.1193438 0.9200
 11  -3045.8129562556  -0.067260731658 0.01470317  0.00015394  0.1097846 0.9200
 12  -3045.8750689307  -0.062112675102 0.01414384  0.00014409  0.1009974 0.9200
 13  -3045.9347705688  -0.059701638138 0.01327391  0.00013493  0.0929232 0.9200
 14  -3045.9926861698  -0.057915600947 0.01183536  0.00012667  0.0854961 0.9200
 15  -3046.0474089415  -0.054722771673 0.01069958  0.00011825  0.0786587 0.9200
 16  -3046.0988357735  -0.051426832028 0.00986906  0.00011044  0.0723652 0.9200
 17  -3046.1471429577  -0.048307184232 0.00914921  0.00010305  0.0665750 0.9200
 18  -3046.1926995105  -0.045556552775 0.00917086  0.00009601  0.0612489 0.9200
 19  -3046.2357356077  -0.043036097175 0.00843591  0.00008932  0.0563494 0.9200
               *** Restarting incremental Fock matrix formation ***
                                   *** Resetting DIIS ***
 20  -3046.2790912018  -0.043355594088 0.00690161  0.00007844  0.0518410 0.9200
 21  -3046.3176443292  -0.038553127401 0.00635581  0.00007179  0.0476975 0.9200
 22  -3046.3536681377  -0.036023808540 0.00595828  0.00006719  0.0438862 0.9200
 23  -3046.3872247391  -0.033556601422 0.00656079  0.00006391  0.0403803 0.9200
 24  -3046.4184430815  -0.031218342355 0.00683308  0.00006094  0.0371648 0.9200
 25  -3046.4475017163  -0.029058634785 0.00615959  0.00005744  0.0342041 0.9200
 26  -3046.4746068708  -0.027105154536 0.00541306  0.00005395  0.0314709 0.9200
 27  -3046.4998622133  -0.025255342544 0.00482456  0.00005058  0.0289514 0.9200
 28  -3046.5233736504  -0.023511437062 0.00441918  0.00004731  0.0266357 0.9200
 29  -3046.5452537026  -0.021880052173 0.00411590  0.00004416  0.0245086 0.9200
 30  -3046.5656110845  -0.020357381870 0.00381631  0.00004117  0.0225515 0.9200
 31  -3046.5845440964  -0.018933011935 0.00347669  0.00003835  0.0207505 0.9200
 32  -3046.6021409673  -0.017596870883 0.00313117  0.00003571  0.0190934 0.9200
 33  -3046.6184849239  -0.016343956579 0.00283372  0.00003324  0.0175687 0.9200
 34  -3046.6336561050  -0.015171181174 0.00259966  0.00003094  0.0161659 0.9200
 35  -3046.6477311570  -0.014075051971 0.00239773  0.00002878  0.0148752 0.9200
 36  -3046.6607824975  -0.013051340526 0.00220078  0.00002678  0.0136874 0.9200
 37  -3046.6728782764  -0.012095778847 0.00201889  0.00002491  0.0125945 0.9200
 38  -3046.6840828766  -0.011204600236 0.00189425  0.00002318  0.0115889 0.9200
 39  -3046.6944571835  -0.010374306864 0.00183591  0.00002172  0.0106636 0.9200
               *** Restarting incremental Fock matrix formation ***
                                   *** Resetting DIIS ***
 40  -3046.7040561575  -0.009598974025 0.00156823  0.00001803  0.0098123 0.9200
 41  -3046.7129759785  -0.008919821027 0.00136460  0.00001620  0.0090336 0.9200
 42  -3046.7212182857  -0.008242307193 0.00125737  0.00001529  0.0083160 0.9200
 43  -3046.7288274036  -0.007609117898 0.00125757  0.00001482  0.0076544 0.9200
 44  -3046.7358483694  -0.007020965806 0.00123580  0.00001441  0.0070444 0.9200
 45  -3046.7423257426  -0.006477373168 0.00113990  0.00001374  0.0064824 0.9200
 46  -3046.7483047804  -0.005979037812 0.00110267  0.00001305  0.0059652 0.9200
 47  -3046.7538235323  -0.005518751946 0.00106229  0.00001236  0.0054892 0.9200
 48  -3046.7589169915  -0.005093459151 0.00101542  0.00001167  0.0050511 0.9200
 49  -3046.7636176570  -0.004700665521 0.00096435  0.00001100  0.0046479 0.9200
 50  -3046.7679555809  -0.004337923890 0.00091403  0.00001035  0.0042769 0.9200
 51  -3046.7719583577  -0.004002776822 0.00086607  0.00000973  0.0039624 0.9200
 52  -3046.7756513955  -0.003693037790 0.00082016  0.00000915  0.0036950 0.9200
 53  -3046.7790581594  -0.003406763831 0.00077542  0.00000860  0.0034445 0.9200
 54  -3046.7822003889  -0.003142229504 0.00073160  0.00000808  0.0032107 0.9200
 55  -3046.7850982645  -0.002897875684 0.00862727  0.00009492  0.0029923 0.0000
 56  -3046.8189737224  -0.033875457878 0.00178990  0.00000903  0.0005112 0.0000
               *** Restarting incremental Fock matrix formation ***
                                   *** Resetting DIIS ***
 57  -3046.8160073684   0.002966354029 0.00693673  0.00010252  0.0006547 0.0000
 58  -3046.8161797633  -0.000172394876 0.00240174  0.00003580  0.0002010 0.0000
 59  -3046.8162053069  -0.000025543651 0.00076130  0.00001261  0.0001875 0.0000
 60  -3046.8162126955  -0.000007388550 0.00047113  0.00000687  0.0001009 0.0000
 61  -3046.8162165048  -0.000003809375 0.00041281  0.00000432  0.0000897 0.0000
 62  -3046.8162189148  -0.000002409934 0.00044758  0.00000418  0.0000778 0.0000
 63  -3046.8162209610  -0.000002046267 0.00040578  0.00000369  0.0000734 0.0000
 64  -3046.8162224751  -0.000001514072 0.00042514  0.00000388  0.0000631 0.0000
 65  -3046.8162238257  -0.000001350559 0.00040274  0.00000384  0.0000590 0.0000
 66  -3046.8162249878  -0.000001162124 0.00037694  0.00000359  0.0000497 0.0000
                 **** Energy Check signals convergence ****

               *****************************************************
               *                     SUCCESS                       *
               *           SCF CONVERGED AFTER  67 CYCLES          *
               *****************************************************

Old exchange energy                            =   -115.556448874 Eh
New exchange energy                            =   -115.556553377 Eh
Exchange energy change after final integration =     -0.000104503 Eh
Total energy after final integration           =  -3046.816330383 Eh
Final COS-X integration done in                =    40.980 sec

----------------
TOTAL SCF ENERGY
----------------

Total Energy       :        -3046.81633038 Eh          -82908.08732 eV

Components:
Nuclear Repulsion  :         5651.56719632 Eh          153786.96179 eV
Electronic Energy  :        -8698.38352671 Eh         -236695.04911 eV
One Electron Energy:       -16224.53560382 Eh         -441492.05880 eV
Two Electron Energy:         7526.15207711 Eh          204797.00970 eV
Max COSX asymmetry :            0.00000686 Eh               0.00019 eV

Virial components:
Potential Energy   :        -4839.76334873 Eh         -131696.65605 eV
Kinetic Energy     :         1792.94701835 Eh           48788.56873 eV
Virial Ratio       :            2.69933428


DFT components:
N(Alpha)           :      148.000022845161 electrons
N(Beta)            :      143.000025575060 electrons
N(Total)           :      291.000048420221 electrons
E(X)               :     -104.098199192193 Eh       
E(C)               :       -8.008770667908 Eh       
E(XC)              :     -112.106969860102 Eh       
DFET-embed. en.    :        0.000000000000 Eh       

---------------
SCF CONVERGENCE
---------------

  Last Energy change         ...   -8.9204e-07  Tolerance :   1.0000e-06
  Last MAX-Density change    ...    0.0000e+00  Tolerance :   1.0000e-05
  Last RMS-Density change    ...    0.0000e+00  Tolerance :   1.0000e-06
  Last DIIS Error            ...    4.4129e-05  Tolerance :   1.0000e-06

             **** THE GBW FILE WAS UPDATED (b2plyp.gbw) ****
             **** DENSITY b2plyp.scfp WAS UPDATED ****
             **** ENERGY FILE WAS UPDATED (b2plyp.en.tmp) ****
----------------------
UHF SPIN CONTAMINATION
----------------------

Warning: in a DFT calculation there is little theoretical justification to 
         calculate <S**2> as in Hartree-Fock theory. We will do it anyways
         but you should keep in mind that the values have only limited relevance

Expectation value of <S**2>     :     8.780501
Ideal value S*(S+1) for S=2.5   :     8.750000
Deviation                       :     0.030501

             **** THE GBW FILE WAS UPDATED (b2plyp.gbw) ****
             **** DENSITY b2plyp.scfp WAS UPDATED ****
----------------
ORBITAL ENERGIES
----------------
                 SPIN UP ORBITALS
  NO   OCC          E(Eh)            E(eV) 
   0   1.0000    -237.627041     -6466.1605 
   1   1.0000     -28.127751      -765.3950 
   2   1.0000     -24.046538      -654.3396 
   3   1.0000     -24.045158      -654.3020 
   4   1.0000     -24.044971      -654.2969 
   5   1.0000      -4.416228      -120.1717 
   6   1.0000      -4.403014      -119.8121 
   7   1.0000      -4.402377      -119.7948 
   8   1.0000      -4.401801      -119.7791 
   9   1.0000      -4.401568      -119.7728 
  10   1.0000      -4.401509      -119.7712 
  11   1.0000      -4.394611      -119.5834 
  12   1.0000      -4.394215      -119.5727 
  13   1.0000      -4.394114      -119.5699 
  14   1.0000      -4.393774      -119.5607 
  15   1.0000      -4.393640      -119.5570 
  16   1.0000      -4.393611      -119.5562 
  17   1.0000      -4.393045      -119.5408 
  18   1.0000      -4.392981      -119.5391 
  19   1.0000      -3.607790       -98.1730 
  20   1.0000      -2.536271       -69.0154 
  21   1.0000      -2.534075       -68.9557 
  22   1.0000      -2.531963       -68.8982 
  23   1.0000      -2.526309       -68.7444 
  24   1.0000      -2.523984       -68.6811 
  25   1.0000      -2.521662       -68.6179 
  26   1.0000      -2.521610       -68.6165 
  27   1.0000      -2.521531       -68.6144 
  28   1.0000      -2.519822       -68.5678 
  29   1.0000      -2.519664       -68.5635 
  30   1.0000      -2.519509       -68.5593 
  31   1.0000      -2.518736       -68.5383 
  32   1.0000      -2.518190       -68.5234 
  33   1.0000      -2.518090       -68.5207 
  34   1.0000      -2.516884       -68.4879 
  35   1.0000      -2.516524       -68.4781 
  36   1.0000      -2.516220       -68.4698 
  37   1.0000      -2.516143       -68.4677 
  38   1.0000      -2.514874       -68.4332 
  39   1.0000      -2.513996       -68.4093 
  40   1.0000      -2.513285       -68.3900 
  41   1.0000      -2.513054       -68.3837 
  42   1.0000      -2.512249       -68.3618 
  43   1.0000      -2.512057       -68.3565 
  44   1.0000      -2.511994       -68.3548 
  45   1.0000      -2.511814       -68.3499 
  46   1.0000      -2.511086       -68.3301 
  47   1.0000      -2.510976       -68.3271 
  48   1.0000      -2.510683       -68.3192 
  49   1.0000      -2.510430       -68.3123 
  50   1.0000      -2.510292       -68.3085 
  51   1.0000      -2.509796       -68.2950 
  52   1.0000      -2.509401       -68.2843 
  53   1.0000      -2.509083       -68.2756 
  54   1.0000      -2.508797       -68.2678 
  55   1.0000      -2.508659       -68.2641 
  56   1.0000      -2.508577       -68.2619 
  57   1.0000      -2.508478       -68.2592 
  58   1.0000      -2.507188       -68.2241 
  59   1.0000      -2.507135       -68.2226 
  60   1.0000      -2.507054       -68.2204 
  61   1.0000      -2.506824       -68.2141 
  62   1.0000      -2.411077       -65.6087 
  63   1.0000      -2.409150       -65.5563 
  64   1.0000      -2.409125       -65.5556 
  65   1.0000      -0.522259       -14.2114 
  66   1.0000      -0.520993       -14.1769 
  67   1.0000      -0.516552       -14.0561 
  68   1.0000      -0.515487       -14.0271 
  69   1.0000      -0.513710       -13.9788 
  70   1.0000      -0.501427       -13.6445 
  71   1.0000      -0.473497       -12.8845 
  72   1.0000      -0.470440       -12.8013 
  73   1.0000      -0.470095       -12.7919 
  74   1.0000      -0.466709       -12.6998 
  75   1.0000      -0.466492       -12.6939 
  76   1.0000      -0.462153       -12.5758 
  77   1.0000      -0.459302       -12.4982 
  78   1.0000      -0.457107       -12.4385 
  79   1.0000      -0.454514       -12.3679 
  80   1.0000      -0.454052       -12.3554 
  81   1.0000      -0.450458       -12.2576 
  82   1.0000      -0.449262       -12.2250 
  83   1.0000      -0.448421       -12.2022 
  84   1.0000      -0.446427       -12.1479 
  85   1.0000      -0.441273       -12.0076 
  86   1.0000      -0.441012       -12.0006 
  87   1.0000      -0.440029       -11.9738 
  88   1.0000      -0.437121       -11.8947 
  89   1.0000      -0.436018       -11.8647 
  90   1.0000      -0.432401       -11.7662 
  91   1.0000      -0.427969       -11.6456 
  92   1.0000      -0.424687       -11.5563 
  93   1.0000      -0.422975       -11.5097 
  94   1.0000      -0.421878       -11.4799 
  95   1.0000      -0.419884       -11.4256 
  96   1.0000      -0.417393       -11.3578 
  97   1.0000      -0.415709       -11.3120 
  98   1.0000      -0.411875       -11.2077 
  99   1.0000      -0.411060       -11.1855 
 100   1.0000      -0.404361       -11.0032 
 101   1.0000      -0.401815       -10.9340 
 102   1.0000      -0.399614       -10.8740 
 103   1.0000      -0.395871       -10.7722 
 104   1.0000      -0.391244       -10.6463 
 105   1.0000      -0.390955       -10.6384 
 106   1.0000      -0.387982       -10.5575 
 107   1.0000      -0.387708       -10.5501 
 108   1.0000      -0.383210       -10.4277 
 109   1.0000      -0.380847       -10.3634 
 110   1.0000      -0.378683       -10.3045 
 111   1.0000      -0.377373       -10.2688 
 112   1.0000      -0.375864       -10.2278 
 113   1.0000      -0.374738       -10.1971 
 114   1.0000      -0.373149       -10.1539 
 115   1.0000      -0.372253       -10.1295 
 116   1.0000      -0.371052       -10.0968 
 117   1.0000      -0.368216       -10.0197 
 118   1.0000      -0.366184        -9.9644 
 119   1.0000      -0.364558        -9.9201 
 120   1.0000      -0.363275        -9.8852 
 121   1.0000      -0.362598        -9.8668 
 122   1.0000      -0.361901        -9.8478 
 123   1.0000      -0.360989        -9.8230 
 124   1.0000      -0.358401        -9.7526 
 125   1.0000      -0.357915        -9.7393 
 126   1.0000      -0.356458        -9.6997 
 127   1.0000      -0.355176        -9.6648 
 128   1.0000      -0.354496        -9.6463 
 129   1.0000      -0.351954        -9.5771 
 130   1.0000      -0.347979        -9.4690 
 131   1.0000      -0.346663        -9.4332 
 132   1.0000      -0.346413        -9.4264 
 133   1.0000      -0.345592        -9.4040 
 134   1.0000      -0.343058        -9.3351 
 135   1.0000      -0.341679        -9.2975 
 136   1.0000      -0.332734        -9.0541 
 137   1.0000      -0.332250        -9.0410 
 138   1.0000      -0.331524        -9.0212 
 139   1.0000      -0.330504        -8.9935 
 140   1.0000      -0.323828        -8.8118 
 141   1.0000      -0.317710        -8.6453 
 142   1.0000      -0.311512        -8.4767 
 143   1.0000      -0.311220        -8.4687 
 144   1.0000      -0.244836        -6.6623 
 145   1.0000      -0.229852        -6.2546 
 146   1.0000      -0.211535        -5.7562 
 147   1.0000      -0.210569        -5.7299 
 148   0.0000      -0.110064        -2.9950 
 149   0.0000      -0.089457        -2.4343 
 150   0.0000      -0.074130        -2.0172 
 151   0.0000      -0.068317        -1.8590 
 152   0.0000      -0.049571        -1.3489 
 153   0.0000      -0.044381        -1.2077 
 154   0.0000      -0.037700        -1.0259 
 155   0.0000      -0.016532        -0.4499 
 156   0.0000      -0.012168        -0.3311 
 157   0.0000      -0.008329        -0.2267 
 158   0.0000      -0.007568        -0.2059 
 159   0.0000       0.001574         0.0428 
 160   0.0000       0.027596         0.7509 
 161   0.0000       0.031056         0.8451 
 162   0.0000       0.032109         0.8737 
 163   0.0000       0.033675         0.9163 
 164   0.0000       0.052237         1.4214 
 165   0.0000       0.066201         1.8014 
 166   0.0000       0.068123         1.8537 
 167   0.0000       0.072184         1.9642 
 168   0.0000       0.078475         2.1354 
 169   0.0000       0.079837         2.1725 
 170   0.0000       0.081731         2.2240 
 171   0.0000       0.083827         2.2811 
 172   0.0000       0.085543         2.3277 
 173   0.0000       0.097646         2.6571 
 174   0.0000       0.100099         2.7238 
 175   0.0000       0.103210         2.8085 
 176   0.0000       0.104578         2.8457 
 177   0.0000       0.106858         2.9078 
 178   0.0000       0.112122         3.0510 
 179   0.0000       0.115327         3.1382 
 180   0.0000       0.125505         3.4152 
 181   0.0000       0.126880         3.4526 
 182   0.0000       0.132743         3.6121 
 183   0.0000       0.136210         3.7065 
 184   0.0000       0.139899         3.8068 
 185   0.0000       0.146351         3.9824 
 186   0.0000       0.146999         4.0000 
 187   0.0000       0.156880         4.2689 
 188   0.0000       0.160669         4.3720 
 189   0.0000       0.164181         4.4676 
 190   0.0000       0.173714         4.7270 
 191   0.0000       0.180798         4.9198 
 192   0.0000       0.184448         5.0191 
 193   0.0000       0.188773         5.1368 
 194   0.0000       0.190673         5.1885 
 195   0.0000       0.195757         5.3268 
 196   0.0000       0.199263         5.4222 
 197   0.0000       0.214625         5.8402 
 198   0.0000       0.217170         5.9095 
 199   0.0000       0.226211         6.1555 
 200   0.0000       0.232006         6.3132 
 201   0.0000       0.232702         6.3321 
 202   0.0000       0.237651         6.4668 
 203   0.0000       0.238930         6.5016 
 204   0.0000       0.244132         6.6432 
 205   0.0000       0.256897         6.9905 
 206   0.0000       0.275795         7.5048 
 207   0.0000       0.278405         7.5758 
 208   0.0000       0.279333         7.6010 
 209   0.0000       0.288760         7.8576 
 210   0.0000       0.296712         8.0739 
 211   0.0000       0.302336         8.2270 
 212   0.0000       0.305365         8.3094 
 213   0.0000       0.306165         8.3312 
 214   0.0000       0.311859         8.4861 
 215   0.0000       0.315159         8.5759 
 216   0.0000       0.323534         8.8038 
 217   0.0000       0.329175         8.9573 
 218   0.0000       0.337291         9.1781 
 219   0.0000       0.341005         9.2792 
 220   0.0000       0.346240         9.4217 
 221   0.0000       0.350865         9.5475 
 222   0.0000       0.353692         9.6244 
 223   0.0000       0.365243         9.9388 
 224   0.0000       0.369889        10.0652 
 225   0.0000       0.375213        10.2101 
 226   0.0000       0.376504        10.2452 
 227   0.0000       0.385892        10.5007 
 228   0.0000       0.386809        10.5256 
 229   0.0000       0.397751        10.8234 
 230   0.0000       0.402568        10.9544 
 231   0.0000       0.404157        10.9977 
 232   0.0000       0.408912        11.1271 
 233   0.0000       0.409267        11.1367 
 234   0.0000       0.409717        11.1490 
 235   0.0000       0.417590        11.3632 
 236   0.0000       0.422993        11.5102 
 237   0.0000       0.423393        11.5211 
 238   0.0000       0.432694        11.7742 
 239   0.0000       0.435049        11.8383 
 240   0.0000       0.436108        11.8671 
 241   0.0000       0.447359        12.1733 
 242   0.0000       0.448296        12.1987 
 243   0.0000       0.452180        12.3045 
 244   0.0000       0.453874        12.3505 
 245   0.0000       0.466052        12.6819 
 246   0.0000       0.471902        12.8411 
 247   0.0000       0.473546        12.8858 
 248   0.0000       0.479330        13.0432 
 249   0.0000       0.487410        13.2631 
 250   0.0000       0.488996        13.3062 
 251   0.0000       0.499915        13.6034 
 252   0.0000       0.500405        13.6167 
 253   0.0000       0.504248        13.7213 
 254   0.0000       0.510263        13.8850 
 255   0.0000       0.514435        13.9985 
 256   0.0000       0.518731        14.1154 
 257   0.0000       0.521261        14.1842 
 258   0.0000       0.526601        14.3296 
 259   0.0000       0.534481        14.5440 
 260   0.0000       0.542269        14.7559 
 261   0.0000       0.544023        14.8036 
 262   0.0000       0.548217        14.9177 
 263   0.0000       0.561908        15.2903 
 264   0.0000       0.562662        15.3108 
 265   0.0000       0.566157        15.4059 
 266   0.0000       0.570957        15.5365 
 267   0.0000       0.573894        15.6165 
 268   0.0000       0.574664        15.6374 
 269   0.0000       0.574922        15.6444 
 270   0.0000       0.581237        15.8163 
 271   0.0000       0.581996        15.8369 
 272   0.0000       0.591804        16.1038 
 273   0.0000       0.595113        16.1939 
 274   0.0000       0.603070        16.4104 
 275   0.0000       0.606676        16.5085 
 276   0.0000       0.608487        16.5578 
 277   0.0000       0.608691        16.5633 
 278   0.0000       0.617095        16.7920 
 279   0.0000       0.619671        16.8621 
 280   0.0000       0.625582        17.0230 
 281   0.0000       0.631270        17.1777 
 282   0.0000       0.632834        17.2203 
 283   0.0000       0.635322        17.2880 
 284   0.0000       0.640448        17.4275 
 285   0.0000       0.645918        17.5763 
 286   0.0000       0.646358        17.5883 
 287   0.0000       0.653918        17.7940 
 288   0.0000       0.658241        17.9116 
 289   0.0000       0.689939        18.7742 
 290   0.0000       0.709405        19.3039 
 291   0.0000       0.757275        20.6065 
 292   0.0000       0.773364        21.0443 
 293   0.0000       0.796486        21.6735 
 294   0.0000       0.799351        21.7514 
 295   0.0000       0.818999        22.2861 
 296   0.0000       0.822606        22.3843 
 297   0.0000       0.828906        22.5557 
 298   0.0000       0.835625        22.7385 
 299   0.0000       0.850054        23.1311 
 300   0.0000       0.865654        23.5556 
 301   0.0000       0.867923        23.6174 
 302   0.0000       0.882630        24.0176 
 303   0.0000       0.889682        24.2095 
 304   0.0000       0.905775        24.6474 
 305   0.0000       0.907286        24.6885 
 306   0.0000       0.914047        24.8725 
 307   0.0000       0.932625        25.3780 
 308   0.0000       0.936336        25.4790 
 309   0.0000       0.943044        25.6615 
 310   0.0000       0.956391        26.0247 
 311   0.0000       0.960561        26.1382 
 312   0.0000       0.992738        27.0138 
 313   0.0000       0.997462        27.1423 
 314   0.0000       0.997998        27.1569 
 315   0.0000       1.018056        27.7027 
 316   0.0000       1.021974        27.8093 
 317   0.0000       1.024456        27.8769 
 318   0.0000       1.034699        28.1556 
 319   0.0000       1.045185        28.4409 
 320   0.0000       1.053911        28.6784 
 321   0.0000       1.054936        28.7063 
 322   0.0000       1.057006        28.7626 
 323   0.0000       1.072675        29.1890 
 324   0.0000       1.074947        29.2508 
 325   0.0000       1.085704        29.5435 
 326   0.0000       1.086102        29.5543 
 327   0.0000       1.102049        29.9883 
 328   0.0000       1.115462        30.3533 
 329   0.0000       1.131747        30.7964 
 330   0.0000       1.164913        31.6989 
 331   0.0000       1.189428        32.3660 
 332   0.0000       1.191548        32.4237 
 333   0.0000       1.298006        35.3205 
 334   0.0000       1.336617        36.3712 
 335   0.0000       1.375656        37.4335 
 336   0.0000       1.382195        37.6114 
 337   0.0000       1.382987        37.6330 
 338   0.0000       1.397022        38.0149 
 339   0.0000       1.402588        38.1663 
 340   0.0000       1.425106        38.7791 
 341   0.0000       1.440168        39.1890 
 342   0.0000       1.455755        39.6131 
 343   0.0000       1.462586        39.7990 
 344   0.0000       1.469741        39.9937 
 345   0.0000       1.472289        40.0630 
 346   0.0000       1.484177        40.3865 
 347   0.0000       1.486179        40.4410 
 348   0.0000       1.493011        40.6269 
 349   0.0000       1.508162        41.0392 
 350   0.0000       1.511006        41.1166 
 351   0.0000       1.518637        41.3242 
 352   0.0000       1.519855        41.3574 
 353   0.0000       1.525064        41.4991 
 354   0.0000       1.527735        41.5718 
 355   0.0000       1.528793        41.6006 
 356   0.0000       1.557471        42.3809 
 357   0.0000       1.573820        42.8258 
 358   0.0000       1.573865        42.8271 
 359   0.0000       1.584060        43.1045 
 360   0.0000       1.587423        43.1960 
 361   0.0000       1.589591        43.2550 
 362   0.0000       1.595307        43.4105 
 363   0.0000       1.595735        43.4222 
 364   0.0000       1.603299        43.6280 
 365   0.0000       1.609489        43.7964 
 366   0.0000       1.611069        43.8394 
 367   0.0000       1.619411        44.0664 
 368   0.0000       1.620718        44.1020 
 369   0.0000       1.622710        44.1562 
 370   0.0000       1.626330        44.2547 
 371   0.0000       1.636390        44.5284 
 372   0.0000       1.637829        44.5676 
 373   0.0000       1.638289        44.5801 
 374   0.0000       1.640866        44.6502 
 375   0.0000       1.643376        44.7185 
 376   0.0000       1.649523        44.8858 
 377   0.0000       1.650405        44.9098 
 378   0.0000       1.651566        44.9414 
 379   0.0000       1.655308        45.0432 
 380   0.0000       1.655991        45.0618 
 381   0.0000       1.660259        45.1779 
 382   0.0000       1.662328        45.2343 
 383   0.0000       1.668093        45.3911 
 384   0.0000       1.671079        45.4724 
 385   0.0000       1.673114        45.5277 
 386   0.0000       1.674484        45.5650 
 387   0.0000       1.676497        45.6198 
 388   0.0000       1.678544        45.6755 
 389   0.0000       1.680182        45.7201 
 390   0.0000       1.680330        45.7241 
 391   0.0000       1.683596        45.8130 
 392   0.0000       1.684655        45.8418 
 393   0.0000       1.685424        45.8627 
 394   0.0000       1.687270        45.9129 
 395   0.0000       1.688817        45.9550 
 396   0.0000       1.690313        45.9958 
 397   0.0000       1.693311        46.0773 
 398   0.0000       1.693585        46.0848 
 399   0.0000       1.695199        46.1287 
 400   0.0000       1.696509        46.1644 
 401   0.0000       1.696742        46.1707 
 402   0.0000       1.699018        46.2326 
 403   0.0000       1.701295        46.2946 
 404   0.0000       1.702936        46.3393 
 405   0.0000       1.703876        46.3648 
 406   0.0000       1.705193        46.4007 
 407   0.0000       1.706972        46.4491 
 408   0.0000       1.707686        46.4685 
 409   0.0000       1.708503        46.4907 
 410   0.0000       1.708912        46.5019 
 411   0.0000       1.711205        46.5642 
 412   0.0000       1.712285        46.5936 
 413   0.0000       1.713580        46.6289 
 414   0.0000       1.714989        46.6672 
 415   0.0000       1.715665        46.6856 
 416   0.0000       1.716963        46.7209 
 417   0.0000       1.717136        46.7257 
 418   0.0000       1.721490        46.8441 
 419   0.0000       1.722140        46.8618 
 420   0.0000       1.723242        46.8918 
 421   0.0000       1.725076        46.9417 
 422   0.0000       1.726043        46.9680 
 423   0.0000       1.728915        47.0462 
 424   0.0000       1.730383        47.0861 
 425   0.0000       1.733021        47.1579 
 426   0.0000       1.734796        47.2062 
 427   0.0000       1.739013        47.3209 
 428   0.0000       1.739866        47.3442 
 429   0.0000       1.742527        47.4166 
 430   0.0000       1.743899        47.4539 
 431   0.0000       1.744285        47.4644 
 432   0.0000       1.749893        47.6170 
 433   0.0000       1.750842        47.6428 
 434   0.0000       1.752968        47.7007 
 435   0.0000       1.754725        47.7485 
 436   0.0000       1.757969        47.8368 
 437   0.0000       1.759393        47.8755 
 438   0.0000       1.763766        47.9945 
 439   0.0000       1.765703        48.0472 
 440   0.0000       1.766931        48.0806 
 441   0.0000       1.769883        48.1610 
 442   0.0000       1.771684        48.2100 
 443   0.0000       1.774303        48.2812 
 444   0.0000       1.776892        48.3517 
 445   0.0000       1.780641        48.4537 
 446   0.0000       1.782636        48.5080 
 447   0.0000       1.783530        48.5323 
 448   0.0000       1.786322        48.6083 
 449   0.0000       1.787229        48.6330 
 450   0.0000       1.790992        48.7354 
 451   0.0000       1.794076        48.8193 
 452   0.0000       1.798041        48.9272 
 453   0.0000       1.802101        49.0377 
 454   0.0000       1.802770        49.0559 
 455   0.0000       1.808173        49.2029 
 456   0.0000       1.810941        49.2782 
 457   0.0000       1.811529        49.2942 
 458   0.0000       1.811958        49.3059 
 459   0.0000       1.814003        49.3615 
 460   0.0000       1.817310        49.4515 
 461   0.0000       1.822242        49.5857 
 462   0.0000       1.824198        49.6390 
 463   0.0000       1.824966        49.6599 
 464   0.0000       1.836220        49.9661 
 465   0.0000       1.836609        49.9767 
 466   0.0000       1.843759        50.1712 
 467   0.0000       1.851645        50.3858 
 468   0.0000       1.860353        50.6228 
 469   0.0000       1.863072        50.6968 
 470   0.0000       1.864037        50.7230 
 471   0.0000       1.885557        51.3086 
 472   0.0000       1.889423        51.4138 
 473   0.0000       1.898185        51.6522 
 474   0.0000       1.902896        51.7804 
 475   0.0000       1.913473        52.0682 
 476   0.0000       1.922262        52.3074 
 477   0.0000       1.924994        52.3817 
 478   0.0000       1.942016        52.8450 
 479   0.0000       1.943300        52.8799 
 480   0.0000       1.955929        53.2235 
 481   0.0000       1.965855        53.4936 
 482   0.0000       1.978453        53.8364 
 483   0.0000       1.980663        53.8966 
 484   0.0000       1.983601        53.9765 
 485   0.0000       1.989872        54.1472 
 486   0.0000       1.998649        54.3860 
 487   0.0000       2.004221        54.5376 
 488   0.0000       2.006528        54.6004 
 489   0.0000       2.015789        54.8524 
 490   0.0000       2.017034        54.8863 
 491   0.0000       2.022125        55.0248 
 492   0.0000       2.027386        55.1680 
 493   0.0000       2.039306        55.4923 
 494   0.0000       2.062923        56.1350 
 495   0.0000       2.065604        56.2080 
 496   0.0000       2.067058        56.2475 
 497   0.0000       2.079676        56.5909 
 498   0.0000       2.098515        57.1035 
 499   0.0000       2.111871        57.4669 
 500   0.0000       2.125990        57.8511 
 501   0.0000       2.151870        58.5553 
 502   0.0000       2.169703        59.0406 
 503   0.0000       2.293057        62.3973 
 504   0.0000       2.299504        62.5727 
 505   0.0000       2.394682        65.1626 
 506   0.0000       2.433487        66.2185 
 507   0.0000       2.509661        68.2914 
 508   0.0000       2.518169        68.5229 
 509   0.0000       2.528290        68.7983 
 510   0.0000       2.599012        70.7227 
 511   0.0000       2.669339        72.6364 
 512   0.0000       2.670195        72.6597 
 513   0.0000       2.700761        73.4915 
 514   0.0000       2.713014        73.8249 
 515   0.0000       2.718601        73.9769 
 516   0.0000       2.720816        74.0372 
 517   0.0000       2.758480        75.0621 
 518   0.0000       2.763131        75.1886 
 519   0.0000       2.779210        75.6261 
 520   0.0000       2.821796        76.7850 
 521   0.0000       2.826997        76.9265 
 522   0.0000       3.271117        89.0116 
 523   0.0000       3.451431        93.9182 
 524   0.0000       3.452129        93.9372 
 525   0.0000       3.457998        94.0969 
 526   0.0000       3.459734        94.1442 
 527   0.0000       3.461721        94.1982 
 528   0.0000       3.467939        94.3674 
 529   0.0000       3.468637        94.3864 
 530   0.0000       3.628790        98.7444 
 531   0.0000       3.658114        99.5424 
 532   0.0000       3.700137       100.6859 
 533   0.0000       3.726138       101.3934 
 534   0.0000       3.757580       102.2489 
 535   0.0000      23.889003       650.0528 
 536   0.0000      24.012023       653.4004 
 537   0.0000      24.178404       657.9278 
 538   0.0000      24.322315       661.8438 
 539   0.0000      24.525950       667.3850 
 540   0.0000      24.646916       670.6767 
 541   0.0000      24.747821       673.4224 
 542   0.0000      24.918243       678.0599 
 543   0.0000      24.934420       678.5001 
 544   0.0000      25.248930       687.0583 
 545   0.0000      25.368686       690.3170 
 546   0.0000      25.524120       694.5466 
 547   0.0000      25.580321       696.0759 
 548   0.0000      25.603288       696.7009 
 549   0.0000      25.855938       703.5758 
 550   0.0000      25.932221       705.6516 
 551   0.0000      26.059749       709.1218 
 552   0.0000      26.106836       710.4031 
 553   0.0000      26.194164       712.7794 
 554   0.0000      26.407739       718.5911 
 555   0.0000      26.469566       720.2735 
 556   0.0000      26.542260       722.2516 
 557   0.0000      26.603785       723.9258 
 558   0.0000      26.623960       724.4748 
 559   0.0000      26.648110       725.1319 
 560   0.0000      26.846848       730.5399 
 561   0.0000      26.909265       732.2383 
 562   0.0000      26.966145       733.7861 
 563   0.0000      27.028262       735.4764 
 564   0.0000      27.243703       741.3389 
 565   0.0000      27.301848       742.9211 
 566   0.0000      27.311527       743.1844 
 567   0.0000      27.610903       751.3309 
 568   0.0000      27.680215       753.2169 
 569   0.0000      27.779752       755.9255 
 570   0.0000      27.862966       758.1898 
 571   0.0000      28.161450       766.3120 
 572   0.0000      28.244084       768.5606 
 573   0.0000      28.812228       784.0206 
 574   0.0000      29.548911       804.0667 
 575   0.0000      30.586456       832.2998 
 576   0.0000      31.347895       853.0196 
 577   0.0000      44.113422      1200.3873 
 578   0.0000      44.210793      1203.0368 
 579   0.0000      44.261752      1204.4235 
 580   0.0000      44.271170      1204.6798 
 581   0.0000      44.294088      1205.3034 
 582   0.0000      44.332482      1206.3482 
 583   0.0000      44.356117      1206.9913 
 584   0.0000      44.365050      1207.2344 
 585   0.0000      44.374572      1207.4935 
 586   0.0000      44.396117      1208.0798 
 587   0.0000      44.399512      1208.1722 
 588   0.0000      44.429919      1208.9996 
 589   0.0000      44.463425      1209.9113 
 590   0.0000      44.486777      1210.5468 
 591   0.0000     202.674487      5515.0532 
 592   0.0000     202.713039      5516.1022 
 593   0.0000     202.733673      5516.6637 
 594   0.0000     202.738169      5516.7860 
 595   0.0000     202.748333      5517.0626 
 596   0.0000     202.765451      5517.5284 
 597   0.0000     202.779627      5517.9142 
 598   0.0000     202.779969      5517.9235 
 599   0.0000     202.781541      5517.9663 
 600   0.0000     202.793130      5518.2816 
 601   0.0000     202.793686      5518.2967 
 602   0.0000     202.803401      5518.5611 
 603   0.0000     202.817611      5518.9478 
 604   0.0000     202.818775      5518.9794 

                 SPIN DOWN ORBITALS
  NO   OCC          E(Eh)            E(eV) 
   0   1.0000    -237.625034     -6466.1059 
   1   1.0000     -28.026140      -762.6300 
   2   1.0000     -23.953021      -651.7948 
   3   1.0000     -23.951960      -651.7660 
   4   1.0000     -23.951726      -651.7596 
   5   1.0000      -4.415103      -120.1411 
   6   1.0000      -4.402195      -119.7898 
   7   1.0000      -4.401573      -119.7729 
   8   1.0000      -4.401021      -119.7579 
   9   1.0000      -4.400774      -119.7511 
  10   1.0000      -4.400720      -119.7497 
  11   1.0000      -4.393934      -119.5650 
  12   1.0000      -4.393775      -119.5607 
  13   1.0000      -4.393595      -119.5558 
  14   1.0000      -4.393428      -119.5513 
  15   1.0000      -4.393416      -119.5509 
  16   1.0000      -4.393255      -119.5465 
  17   1.0000      -4.392055      -119.5139 
  18   1.0000      -4.391986      -119.5120 
  19   1.0000      -3.322127       -90.3997 
  20   1.0000      -2.534356       -68.9633 
  21   1.0000      -2.532891       -68.9235 
  22   1.0000      -2.530748       -68.8651 
  23   1.0000      -2.525129       -68.7123 
  24   1.0000      -2.523085       -68.6566 
  25   1.0000      -2.520541       -68.5874 
  26   1.0000      -2.520480       -68.5857 
  27   1.0000      -2.520266       -68.5799 
  28   1.0000      -2.518572       -68.5338 
  29   1.0000      -2.518431       -68.5300 
  30   1.0000      -2.518392       -68.5289 
  31   1.0000      -2.517599       -68.5073 
  32   1.0000      -2.517446       -68.5032 
  33   1.0000      -2.516912       -68.4887 
  34   1.0000      -2.516162       -68.4682 
  35   1.0000      -2.515935       -68.4621 
  36   1.0000      -2.515744       -68.4569 
  37   1.0000      -2.515594       -68.4528 
  38   1.0000      -2.513403       -68.3932 
  39   1.0000      -2.512920       -68.3800 
  40   1.0000      -2.512508       -68.3688 
  41   1.0000      -2.512341       -68.3643 
  42   1.0000      -2.511831       -68.3504 
  43   1.0000      -2.511244       -68.3344 
  44   1.0000      -2.511045       -68.3290 
  45   1.0000      -2.510686       -68.3192 
  46   1.0000      -2.510440       -68.3125 
  47   1.0000      -2.510353       -68.3102 
  48   1.0000      -2.510034       -68.3015 
  49   1.0000      -2.509971       -68.2998 
  50   1.0000      -2.509755       -68.2939 
  51   1.0000      -2.509626       -68.2904 
  52   1.0000      -2.509255       -68.2803 
  53   1.0000      -2.508828       -68.2687 
  54   1.0000      -2.508471       -68.2590 
  55   1.0000      -2.508164       -68.2506 
  56   1.0000      -2.507978       -68.2455 
  57   1.0000      -2.507772       -68.2400 
  58   1.0000      -2.506398       -68.2025 
  59   1.0000      -2.506253       -68.1986 
  60   1.0000      -2.505996       -68.1916 
  61   1.0000      -2.505956       -68.1905 
  62   1.0000      -2.083682       -56.6999 
  63   1.0000      -2.082382       -56.6645 
  64   1.0000      -2.082247       -56.6608 
  65   1.0000      -0.504680       -13.7331 
  66   1.0000      -0.474281       -12.9058 
  67   1.0000      -0.472023       -12.8444 
  68   1.0000      -0.471508       -12.8304 
  69   1.0000      -0.468459       -12.7474 
  70   1.0000      -0.467251       -12.7145 
  71   1.0000      -0.464872       -12.6498 
  72   1.0000      -0.463092       -12.6014 
  73   1.0000      -0.460897       -12.5416 
  74   1.0000      -0.460796       -12.5389 
  75   1.0000      -0.456744       -12.4286 
  76   1.0000      -0.455413       -12.3924 
  77   1.0000      -0.453040       -12.3279 
  78   1.0000      -0.451018       -12.2728 
  79   1.0000      -0.449923       -12.2430 
  80   1.0000      -0.449709       -12.2372 
  81   1.0000      -0.448308       -12.1991 
  82   1.0000      -0.442384       -12.0379 
  83   1.0000      -0.440630       -11.9902 
  84   1.0000      -0.440297       -11.9811 
  85   1.0000      -0.436315       -11.8727 
  86   1.0000      -0.428227       -11.6527 
  87   1.0000      -0.425939       -11.5904 
  88   1.0000      -0.425486       -11.5781 
  89   1.0000      -0.424823       -11.5600 
  90   1.0000      -0.423488       -11.5237 
  91   1.0000      -0.417629       -11.3643 
  92   1.0000      -0.415324       -11.3015 
  93   1.0000      -0.414923       -11.2906 
  94   1.0000      -0.411072       -11.1858 
  95   1.0000      -0.407678       -11.0935 
  96   1.0000      -0.405776       -11.0417 
  97   1.0000      -0.401702       -10.9309 
  98   1.0000      -0.399969       -10.8837 
  99   1.0000      -0.393124       -10.6974 
 100   1.0000      -0.392480       -10.6799 
 101   1.0000      -0.390370       -10.6225 
 102   1.0000      -0.389962       -10.6114 
 103   1.0000      -0.385361       -10.4862 
 104   1.0000      -0.384612       -10.4658 
 105   1.0000      -0.380121       -10.3436 
 106   1.0000      -0.378931       -10.3112 
 107   1.0000      -0.376934       -10.2569 
 108   1.0000      -0.376172       -10.2362 
 109   1.0000      -0.374773       -10.1981 
 110   1.0000      -0.373158       -10.1542 
 111   1.0000      -0.371894       -10.1198 
 112   1.0000      -0.370398       -10.0790 
 113   1.0000      -0.368163       -10.0182 
 114   1.0000      -0.367271        -9.9940 
 115   1.0000      -0.363889        -9.9019 
 116   1.0000      -0.362865        -9.8741 
 117   1.0000      -0.362482        -9.8636 
 118   1.0000      -0.361705        -9.8425 
 119   1.0000      -0.360242        -9.8027 
 120   1.0000      -0.359917        -9.7938 
 121   1.0000      -0.356832        -9.7099 
 122   1.0000      -0.355170        -9.6647 
 123   1.0000      -0.354058        -9.6344 
 124   1.0000      -0.352010        -9.5787 
 125   1.0000      -0.347205        -9.4479 
 126   1.0000      -0.346695        -9.4340 
 127   1.0000      -0.346219        -9.4211 
 128   1.0000      -0.344392        -9.3714 
 129   1.0000      -0.342479        -9.3193 
 130   1.0000      -0.341305        -9.2874 
 131   1.0000      -0.332097        -9.0368 
 132   1.0000      -0.331602        -9.0233 
 133   1.0000      -0.330785        -9.0011 
 134   1.0000      -0.329742        -8.9727 
 135   1.0000      -0.322503        -8.7758 
 136   1.0000      -0.317116        -8.6292 
 137   1.0000      -0.311228        -8.4689 
 138   1.0000      -0.310813        -8.4577 
 139   1.0000      -0.247883        -6.7452 
 140   1.0000      -0.233728        -6.3601 
 141   1.0000      -0.221642        -6.0312 
 142   1.0000      -0.218839        -5.9549 
 143   0.0000      -0.112451        -3.0599 
 144   0.0000      -0.084027        -2.2865 
 145   0.0000      -0.075012        -2.0412 
 146   0.0000      -0.068780        -1.8716 
 147   0.0000      -0.048984        -1.3329 
 148   0.0000      -0.039842        -1.0842 
 149   0.0000      -0.036296        -0.9877 
 150   0.0000      -0.018930        -0.5151 
[...]
      pz      :    -0.003662  p :    -0.042098
      px      :    -0.036214
      py      :    -0.002222
      dz2     :    -0.000339  d :     0.003290
      dxz     :     0.007424
      dyz     :    -0.003568
      dx2y2   :     0.001090
      dxy     :    -0.001318
      f0      :     0.000006  f :     0.000125
      f+1     :     0.000035
      f-1     :    -0.000004
      f+2     :     0.000020
      f-2     :     0.000040
      f+3     :     0.000011
      f-3     :     0.000016
  5 Aus       :    -0.009021  s :    -0.009021
      pz      :    -0.055898  p :    -0.055747
      px      :    -0.000100
      py      :     0.000250
      dz2     :    -0.006180  d :    -0.023324
      dxz     :    -0.009250
      dyz     :    -0.006153
      dx2y2   :    -0.001751
      dxy     :     0.000011
      f0      :    -0.000019  f :    -0.000181
      f+1     :    -0.000068
      f-1     :    -0.000015
      f+2     :    -0.000007
      f-2     :    -0.000026
      f+3     :    -0.000027
      f-3     :    -0.000019
  6 Aus       :    -0.061121  s :    -0.061121
      pz      :    -0.061559  p :    -0.075949
      px      :    -0.019409
      py      :     0.005018
      dz2     :     0.001593  d :     0.003531
      dxz     :    -0.006873
      dyz     :     0.000653
      dx2y2   :     0.002134
      dxy     :     0.006024
      f0      :     0.000002  f :     0.000065
      f+1     :    -0.000024
      f-1     :    -0.000001
      f+2     :    -0.000019
      f-2     :     0.000023
      f+3     :     0.000083
      f-3     :     0.000001
  7 Aus       :    -0.036434  s :    -0.036434
      pz      :     0.006257  p :    -0.058954
      px      :    -0.006323
      py      :    -0.058889
      dz2     :     0.007395  d :    -0.005766
      dxz     :     0.000080
      dyz     :    -0.003253
      dx2y2   :    -0.008917
      dxy     :    -0.001071
      f0      :     0.000079  f :     0.000073
      f+1     :     0.000012
      f-1     :     0.000012
      f+2     :    -0.000006
      f-2     :    -0.000011
      f+3     :    -0.000008
      f-3     :    -0.000006
  8 Aus       :    -0.002188  s :    -0.002188
      pz      :    -0.031541  p :    -0.088443
      px      :    -0.004521
      py      :    -0.052381
      dz2     :     0.002223  d :    -0.001953
      dxz     :     0.000467
      dyz     :     0.000601
      dx2y2   :     0.005046
      dxy     :    -0.010289
      f0      :     0.000009  f :     0.000038
      f+1     :     0.000020
      f-1     :    -0.000054
      f+2     :     0.000056
      f-2     :    -0.000019
      f+3     :     0.000037
      f-3     :    -0.000010
  9 Aus       :    -0.125231  s :    -0.125231
      pz      :     0.002747  p :     0.002906
      px      :    -0.001030
      py      :     0.001189
      dz2     :     0.000475  d :    -0.001076
      dxz     :    -0.002953
      dyz     :     0.002106
      dx2y2   :    -0.002024
      dxy     :     0.001320
      f0      :     0.000006  f :     0.000059
      f+1     :    -0.000010
      f-1     :     0.000011
      f+2     :     0.000048
      f-2     :     0.000006
      f+3     :    -0.000001
      f-3     :     0.000001
 10 Aus       :    -0.112748  s :    -0.112748
      pz      :    -0.003898  p :    -0.068505
      px      :    -0.063711
      py      :    -0.000896
      dz2     :     0.001493  d :    -0.002101
      dxz     :    -0.006822
      dyz     :     0.005451
      dx2y2   :    -0.002490
      dxy     :     0.000267
      f0      :    -0.000007  f :     0.000083
      f+1     :    -0.000009
      f-1     :     0.000031
      f+2     :     0.000084
      f-2     :     0.000004
      f+3     :    -0.000001
      f-3     :    -0.000018
 11 Aus       :    -0.051422  s :    -0.051422
      pz      :     0.003297  p :    -0.080404
      px      :    -0.036624
      py      :    -0.047078
      dz2     :     0.007889  d :     0.003164
      dxz     :     0.000624
      dyz     :    -0.000763
      dx2y2   :    -0.001896
      dxy     :    -0.002690
      f0      :     0.000101  f :     0.000060
      f+1     :     0.000013
      f-1     :     0.000050
      f+2     :    -0.000008
      f-2     :    -0.000011
      f+3     :    -0.000025
      f-3     :    -0.000062
 12 Aus       :    -0.001931  s :    -0.001931
      pz      :    -0.048767  p :    -0.088535
      px      :    -0.022734
      py      :    -0.017034
      dz2     :    -0.002755  d :    -0.001638
      dxz     :    -0.006093
      dyz     :     0.004332
      dx2y2   :    -0.002035
      dxy     :     0.004912
      f0      :    -0.000020  f :     0.000029
      f+1     :    -0.000015
      f-1     :     0.000004
      f+2     :    -0.000021
      f-2     :     0.000033
      f+3     :     0.000030
      f-3     :     0.000018
 13 Aus       :    -0.040857  s :    -0.040857
      pz      :    -0.053850  p :    -0.055283
      px      :    -0.005201
      py      :     0.003768
      dz2     :    -0.000439  d :    -0.006668
      dxz     :    -0.014777
      dyz     :    -0.002579
      dx2y2   :     0.007864
      dxy     :     0.003263
      f0      :     0.000003  f :     0.000071
      f+1     :    -0.000004
      f-1     :     0.000018
      f+2     :    -0.000004
      f-2     :    -0.000011
      f+3     :     0.000045
      f-3     :     0.000024
 14 Mns       :     0.016601  s :     0.016601
      pz      :     0.008300  p :     0.023862
      px      :     0.004050
      py      :     0.011512
      dz2     :     0.909003  d :     4.464959
      dxz     :     0.904000
      dyz     :     0.837217
      dx2y2   :     0.919787
      dxy     :     0.894952
      f0      :     0.000003  f :     0.000017
      f+1     :     0.000003
      f-1     :     0.000004
      f+2     :     0.000000
      f-2     :     0.000002
      f+3     :     0.000003
      f-3     :     0.000002


                      *****************************
                      * MAYER POPULATION ANALYSIS *
                      *****************************

  NA   - Mulliken gross atomic population
  ZA   - Total nuclear charge
  QA   - Mulliken gross atomic charge
  VA   - Mayer's total valence
  BVA  - Mayer's bonded valence
  FA   - Mayer's free valence

  ATOM       NA         ZA         QA         VA         BVA        FA
  0 Au    19.2105    19.0000    -0.2105     1.8226     1.8071     0.0156
  1 Au    18.7900    19.0000     0.2100     1.4100     1.4041     0.0059
  2 Au    19.2070    19.0000    -0.2070     1.8350     1.8156     0.0193
  3 Au    18.6545    19.0000     0.3455     1.2875     1.2833     0.0041
  4 Au    19.3814    19.0000    -0.3814     2.0703     2.0065     0.0637
  5 Au    18.6501    19.0000     0.3499     1.2864     1.2820     0.0045
  6 Au    18.6883    19.0000     0.3117     1.3164     1.2939     0.0225
  7 Au    18.9956    19.0000     0.0044     1.6837     1.6656     0.0181
  8 Au    18.7347    19.0000     0.2653     1.3381     1.3340     0.0041
  9 Au    18.6340    19.0000     0.3660     1.3776     1.3041     0.0735
 10 Au    18.6239    19.0000     0.3761     1.3634     1.3009     0.0624
 11 Au    18.6996    19.0000     0.3004     1.3163     1.2983     0.0180
 12 Au    18.7330    19.0000     0.2670     1.3397     1.3354     0.0043
 13 Au    18.9928    19.0000     0.0072     1.6957     1.6740     0.0216
 14 Mn    27.0046    25.0000    -2.0046     9.2647     4.7430     4.5217

  Mayer bond orders larger than 0.100000
B(  0-Au,  1-Au) :   0.2804 B(  0-Au,  2-Au) :   0.1136 B(  0-Au,  3-Au) :   0.2467 
B(  0-Au,  6-Au) :   0.2649 B(  0-Au,  7-Au) :   0.1130 B(  0-Au, 10-Au) :   0.2051 
B(  0-Au, 14-Mn) :   0.4047 B(  1-Au,  2-Au) :   0.2776 B(  1-Au,  3-Au) :   0.2027 
B(  1-Au,  4-Au) :   0.2073 B(  1-Au,  5-Au) :   0.2016 B(  2-Au,  5-Au) :   0.2573 
B(  2-Au, 10-Au) :   0.1994 B(  2-Au, 11-Au) :   0.2689 B(  2-Au, 13-Au) :   0.1153 
B(  2-Au, 14-Mn) :   0.4053 B(  3-Au,  4-Au) :   0.2994 B(  3-Au,  7-Au) :   0.2744 
B(  4-Au,  5-Au) :   0.2951 B(  4-Au,  7-Au) :   0.1997 B(  4-Au,  9-Au) :   0.2162 
B(  4-Au, 13-Au) :   0.2061 B(  4-Au, 14-Mn) :   0.3747 B(  5-Au, 13-Au) :   0.2714 
B(  6-Au,  8-Au) :   0.1635 B(  6-Au, 10-Au) :   0.1425 B(  6-Au, 14-Mn) :   0.4520 
B(  7-Au,  8-Au) :   0.2219 B(  7-Au,  9-Au) :   0.1627 B(  7-Au, 14-Mn) :   0.4307 
B(  8-Au,  9-Au) :   0.1272 B(  8-Au, 12-Au) :   0.1748 B(  8-Au, 14-Mn) :   0.4107 
B(  9-Au, 12-Au) :   0.1338 B(  9-Au, 13-Au) :   0.1708 B(  9-Au, 14-Mn) :   0.3387 
B( 10-Au, 11-Au) :   0.1425 B( 10-Au, 14-Mn) :   0.4041 B( 11-Au, 12-Au) :   0.1610 
B( 11-Au, 14-Mn) :   0.4574 B( 12-Au, 13-Au) :   0.2251 B( 12-Au, 14-Mn) :   0.4041 
B( 13-Au, 14-Mn) :   0.4267 

-------
TIMINGS
-------

Total SCF time: 0 days 0 hours 9 min 16 sec 

Total time                  ....     556.997 sec
Sum of individual times     ....     553.854 sec  ( 99.4%)

Fock matrix formation       ....     529.234 sec  ( 95.0%)
  Split-RI-J                ....      39.470 sec  (  7.5% of F)
  Chain of spheres X        ....     424.025 sec  ( 80.1% of F)
  XC integration            ....      64.164 sec  ( 12.1% of F)
    Basis function eval.    ....       9.071 sec  ( 14.1% of XC)
    Density eval.           ....      33.860 sec  ( 52.8% of XC)
    XC-Functional eval.     ....       0.938 sec  (  1.5% of XC)
    XC-Potential eval.      ....      18.023 sec  ( 28.1% of XC)
Diagonalization             ....      12.621 sec  (  2.3%)
Density matrix formation    ....       0.372 sec  (  0.1%)
Population analysis         ....       0.283 sec  (  0.1%)
Initial guess               ....       0.651 sec  (  0.1%)
Orbital Transformation      ....       0.000 sec  (  0.0%)
Orbital Orthonormalization  ....       0.589 sec  (  0.1%)
DIIS solution               ....       4.677 sec  (  0.8%)
Grid generation             ....       6.017 sec  (  1.1%)

Maximum memory used throughout the entire SCF-calculation: 147.8 MB


           ************************************************************
           *        Program running with 6 parallel MPI-processes     *
           *              working on a common directory               *
           ************************************************************

------------------------------------------------------------------------------
                                ORCA  MP2 
------------------------------------------------------------------------------

Freezing NCore=10 chemical core electrons

   <<< Use J-auxbasis for calculation of Separable RI-J derivative contributions (Dim=1335) >>> 


-------------
RI-MP2 ENERGY
-------------
Dimension of the basis                    ...  605
Memory devoted to MP2                     ...  256 MB   
Data format for buffers                   ... DOUBLE
Compression type for matrix containers    ... UNCOMPRESSED
Overall scaling of the MP2 energy         ...   2.700e-01
Calculating two index integrals           ... done (    0.072 sec)
Cholesky decomposition of V**-1           ... done (    0.925 sec)

-----------------
RI-TRANSFORMATION (AUX index driven)
-----------------

Dimension of the orbital-basis         ... 605
Dimension of the aux-basis             ... 2296
Transformation of internal/external MOs...    5- 146 to  147- 604
Number Format for Storage              ... Double (8 Byte)
Integral mode                          ... Direct

First Phase: integral generation and transformation of MO indices
  Aux angular momentum 0               ... done (    0.441 sec)
  Aux angular momentum 1               ... done (    1.065 sec)
  Aux angular momentum 2               ... done (    1.601 sec)
  Aux angular momentum 3               ... done (    1.569 sec)
  Aux angular momentum 4               ... done (    1.327 sec)
  Aux angular momentum 5               ... done (    1.152 sec)
Closing buffer VIA ( 1.11 GB; CompressionRatio= 1.00)
  Phase 1 completed in    11.961 sec
Second Phase: sorting and transformation of aux index

IA-Transformation
Memory available                       ... 164 MB 
Max. # MO pairs treated in a batch     ... 19    
# of internal orbitals                 ... 142
# batches for internal orbitals        ... 2
Closing buffer IAV ( 1.11 GB; CompressionRatio= 1.00)
(ia|v) transformation done in    12.590 sec

  Phase 2 completed in    12.790 sec
RI-Integral transformation completed in    24.752 sec

-----------------
RI-TRANSFORMATION (AUX index driven)
-----------------

Dimension of the orbital-basis         ... 605
Dimension of the aux-basis             ... 2296
Transformation of internal/external MOs...    5- 143 to  144- 604
Number Format for Storage              ... Double (8 Byte)
Integral mode                          ... Direct

First Phase: integral generation and transformation of MO indices
  Aux angular momentum 0               ... done (    0.415 sec)
  Aux angular momentum 1               ... done (    0.990 sec)
  Aux angular momentum 2               ... done (    1.597 sec)
  Aux angular momentum 3               ... done (    1.629 sec)
  Aux angular momentum 4               ... done (    1.346 sec)
  Aux angular momentum 5               ... done (    1.162 sec)
Closing buffer VIA ( 1.10 GB; CompressionRatio= 1.00)
  Phase 1 completed in     9.982 sec
Second Phase: sorting and transformation of aux index

IA-Transformation
Memory available                       ... 164 MB 
Max. # MO pairs treated in a batch     ... 19    
# of internal orbitals                 ... 139
# batches for internal orbitals        ... 2
Closing buffer IAV ( 1.10 GB; CompressionRatio= 1.00)
(ia|v) transformation done in     6.482 sec

  Phase 2 completed in     6.691 sec
RI-Integral transformation completed in    16.674 sec
Opening buffers                              ... done

Starting loop over batches of integrals:

Operator 0  - window                       ... (  5-146)x(147-604)
Operator 0  - Memory available             ...   256 MB
Operator 0  - Memory needed per MO         ...   8.0 MB
Operator 0  - Number of orbitals per batch ... 22
Operator 0  - Number of batches            ... 2

OPERATOR  0   PASS   0:  MOs     5 ...   26 +   27 ...   48 +   49 ...   70 +   71 ...   92
                            +   93 ...  114 +  115 ...  136
  Reading integrals       ... ok
  Internal MO   7
  Internal MO  10
  Internal MO  13
  Internal MO  16
  Internal MO  19
  Internal MO  22
  Internal MO  25
OPERATOR  0   PASS   1:  MOs   137 ...  138 +  139 ...  140 +  141 ...  142 +  143 ...  144
                            +  145 ...  145 +  146 ...  146
  Reading integrals       ... ok

Operator 1  - window                       ... (  5-143)x(144-604)
Operator 1  - Memory available             ...   256 MB
Operator 1  - Memory needed per MO         ...   8.1 MB
Operator 1  - Number of orbitals per batch ... 22
Operator 1  - Number of batches            ... 2

OPERATOR  1   PASS   0:  MOs     5 ...   26 +   27 ...   48 +   49 ...   70 +   71 ...   92
                            +   93 ...  114 +  115 ...  136
  Reading integrals       ... ok
  Internal MO   7
  Internal MO  10
  Internal MO  13
  Internal MO  16
  Internal MO  19
  Internal MO  22
  Internal MO  25
OPERATOR  1   PASS   1:  MOs   137 ...  138 +  139 ...  139 +  140 ...  140 +  141 ...  141
                            +  142 ...  142 +  143 ...  143
  Reading integrals       ... ok
Time spent in pair loops =   748.562 sec
Deleting buffer (Ka|jb)[aa] ...done
Deleting buffer (Ka|jb)[ba] ...done
Deleting buffer (Ka|jb)[ab] ...done
Deleting buffer (Ka|jb)[bb] ...done

Correlation energy components}
 E2 and T2 for alpha/alpha pairs :     -0.423817967 Eh      0.000000000
 E2 and T2 for beta/beta   pairs :     -0.419333448 Eh      0.000000000
 E2 and T2 for alpha/beta  pairs :     -1.421208543 Eh      0.000000000


-----------------------------------------------
 RI-MP2 CORRELATION ENERGY:     -2.264359959 Eh
-----------------------------------------------


-------
TIMINGS
-------

Total time                :  805.228 sec
Integral trafo            :   41.455 sec (  5.1%)
I/O of integrals          :    0.201 sec (  0.0%)
K(i,j) Operators          :  344.390 sec ( 42.8%)
T(i,j) pair energies      :    5.223 sec (  0.6%)
V-calculation             :    0.072 sec (  0.0%)
V**(-1/2)                 :    0.925 sec (  0.1%)
Gamma(ia|P)               :    0.000 sec (  0.0%)
Gamma-Trafo               :    0.000 sec (  0.0%)
D(virtual)                :    0.000 sec (  0.0%)
D(internal)               :    0.000 sec (  0.0%)
W(virtual)                :    0.000 sec (  0.0%)
W(internal)               :    0.000 sec (  0.0%)
L(virtual)                :    0.000 sec (  0.0%)
L(internal)               :    0.000 sec (  0.0%)
G(D)                      :    0.000 sec (  0.0%)
G(Z)                      :    0.000 sec (  0.0%)
Z-Vector Solution         :    0.000 sec (  0.0%)
3-Index Derivative        :    0.000 sec (  0.0%)
2-Index Derivative        :    0.000 sec (  0.0%)
Separable Gradient (RIJ)  :    0.000 sec (  0.0%)
Separable Gradient (COSX) :    0.000 sec (  0.0%)


---------------------------------------
MP2 TOTAL ENERGY:    -3049.057114765 Eh
---------------------------------------

Maximum memory used throughout the entire MP2-calculation: 300.1 MB

-------------------------   --------------------
FINAL SINGLE POINT ENERGY     -3049.057114764501
-------------------------   --------------------


                            ***************************************
                            *     ORCA property calculations      *
                            ***************************************


  WARNING: The energy has been calculated at the MP2 level but the densities
           used in the property calculations are still SCF densities
           MP2 response densities have not been calculated 
           use %mp2 Density relaxed end
           or  %mp2 Density unrelaxed end

                                    ---------------------
                                    Active property flags
                                    ---------------------
   (+) Dipole Moment


------------------------------------------------------------------------------
                       ORCA ELECTRIC PROPERTIES CALCULATION
------------------------------------------------------------------------------

Dipole Moment Calculation                       ... on
Quadrupole Moment Calculation                   ... off
Polarizability Calculation                      ... off
GBWName                                         ... b2plyp_job2.gbw
Electron density                                ... b2plyp_job2.scfp
The origin for moment calculation is the CENTER OF MASS  = (14.511098, 14.862213 14.216826)

-------------
DIPOLE MOMENT
-------------
                                X             Y             Z
Electronic contribution:    -25.95779       0.54855     -12.05952
Nuclear contribution   :     25.94152      -0.38655      11.91869
                        -----------------------------------------
Total Dipole Moment    :     -0.01627       0.16199      -0.14083
                        -----------------------------------------
Magnitude (a.u.)       :      0.21527
Magnitude (Debye)      :      0.54716



--------------------
Rotational spectrum 
--------------------
 
Rotational constants in cm-1:     0.001136     0.001034     0.000930 
Rotational constants in MHz :    34.062748    30.998246    27.876844 

 Dipole components along the rotational axes: 
x,y,z [a.u.] :     0.026504     0.007859    -0.213484 
x,y,z [Debye]:     0.067367     0.019977    -0.542634 

 

Timings for individual modules:

Sum of individual times         ...     1387.058 sec (=  23.118 min)
GTO integral calculation        ...       23.826 sec (=   0.397 min)   1.7 %
SCF iterations                  ...      557.286 sec (=   9.288 min)  40.2 %
MP2 module                      ...      805.946 sec (=  13.432 min)  58.1 %



                             ****ORCA TERMINATED NORMALLY****
TOTAL RUN TIME: 0 days 0 hours 52 minutes 37 seconds 741 msec
