
                                 *****************
                                 * O   R   C   A *
                                 *****************

                                            #,                                       
                                            ###                                      
                                            ####                                     
                                            #####                                    
                                            ######                                   
                                           ########,                                 
                                     ,,################,,,,,                         
                               ,,#################################,,                 
                          ,,##########################################,,             
                       ,#########################################, ''#####,          
                    ,#############################################,,   '####,        
                  ,##################################################,,,,####,       
                ,###########''''           ''''###############################       
              ,#####''   ,,,,##########,,,,          '''####'''          '####       
            ,##' ,,,,###########################,,,                        '##       
           ' ,,###''''                  '''############,,,                           
         ,,##''                                '''############,,,,        ,,,,,,###''
      ,#''                                            '''#######################'''  
     '                                                          ''''####''''         
             ,#######,   #######,   ,#######,      ##                                
            ,#'     '#,  ##    ##  ,#'     '#,    #''#        ######   ,####,        
            ##       ##  ##   ,#'  ##            #'  '#       #        #'  '#        
            ##       ##  #######   ##           ,######,      #####,   #    #        
            '#,     ,#'  ##    ##  '#,     ,#' ,#      #,         ##   #,  ,#        
             '#######'   ##     ##  '#######'  #'      '#     #####' # '####'        



                  #######################################################
                  #                        -***-                        #
                  #          Department of theory and spectroscopy      #
                  #    Directorship and core code : Frank Neese         #
                  #        Max Planck Institute fuer Kohlenforschung    #
                  #                Kaiser Wilhelm Platz 1               #
                  #                 D-45470 Muelheim/Ruhr               #
                  #                      Germany                        #
                  #                                                     #
                  #                  All rights reserved                #
                  #                        -***-                        #
                  #######################################################


                         Program Version 5.0.3 -  RELEASE  -


 With contributions from (in alphabetic order):
   Daniel Aravena         : Magnetic Suceptibility
   Michael Atanasov       : Ab Initio Ligand Field Theory (pilot matlab implementation)
   Alexander A. Auer      : GIAO ZORA, VPT2 properties, NMR spectrum
   Ute Becker             : Parallelization
   Giovanni Bistoni       : ED, misc. LED, open-shell LED, HFLD
   Martin Brehm           : Molecular dynamics
   Dmytro Bykov           : SCF Hessian
   Vijay G. Chilkuri      : MRCI spin determinant printing, contributions to CSF-ICE
   Dipayan Datta          : RHF DLPNO-CCSD density
   Achintya Kumar Dutta   : EOM-CC, STEOM-CC
   Dmitry Ganyushin       : Spin-Orbit,Spin-Spin,Magnetic field MRCI
   Miquel Garcia          : C-PCM and meta-GGA Hessian, CC/C-PCM, Gaussian charge scheme
   Yang Guo               : DLPNO-NEVPT2, F12-NEVPT2, CIM, IAO-localization
   Andreas Hansen         : Spin unrestricted coupled pair/coupled cluster methods
   Benjamin Helmich-Paris : MC-RPA, TRAH-SCF, COSX integrals
   Lee Huntington         : MR-EOM, pCC
   Robert Izsak           : Overlap fitted RIJCOSX, COSX-SCS-MP3, EOM
   Marcus Kettner         : VPT2
   Christian Kollmar      : KDIIS, OOCD, Brueckner-CCSD(T), CCSD density, CASPT2, CASPT2-K
   Simone Kossmann        : Meta GGA functionals, TD-DFT gradient, OOMP2, MP2 Hessian
   Martin Krupicka        : Initial AUTO-CI
   Lucas Lang             : DCDCAS
   Marvin Lechner         : AUTO-CI (C++ implementation), FIC-MRCC
   Dagmar Lenk            : GEPOL surface, SMD
   Dimitrios Liakos       : Extrapolation schemes; Compound Job, initial MDCI parallelization
   Dimitrios Manganas     : Further ROCIS development; embedding schemes
   Dimitrios Pantazis     : SARC Basis sets
   Anastasios Papadopoulos: AUTO-CI, single reference methods and gradients
   Taras Petrenko         : DFT Hessian,TD-DFT gradient, ASA, ECA, R-Raman, ABS, FL, XAS/XES, NRVS
   Peter Pinski           : DLPNO-MP2, DLPNO-MP2 Gradient
   Christoph Reimann      : Effective Core Potentials
   Marius Retegan         : Local ZFS, SOC
   Christoph Riplinger    : Optimizer, TS searches, QM/MM, DLPNO-CCSD(T), (RO)-DLPNO pert. Triples
   Tobias Risthaus        : Range-separated hybrids, TD-DFT gradient, RPA, STAB
   Michael Roemelt        : Original ROCIS implementation
   Masaaki Saitow         : Open-shell DLPNO-CCSD energy and density
   Barbara Sandhoefer     : DKH picture change effects
   Avijit Sen             : IP-ROCIS
   Kantharuban Sivalingam : CASSCF convergence, NEVPT2, FIC-MRCI
   Bernardo de Souza      : ESD, SOC TD-DFT
   Georgi Stoychev        : AutoAux, RI-MP2 NMR, DLPNO-MP2 response
   Willem Van den Heuvel  : Paramagnetic NMR
   Boris Wezisla          : Elementary symmetry handling
   Frank Wennmohs         : Technical directorship


 We gratefully acknowledge several colleagues who have allowed us to
 interface, adapt or use parts of their codes:
   Stefan Grimme, W. Hujo, H. Kruse, P. Pracht,  : VdW corrections, initial TS optimization,
                  C. Bannwarth, S. Ehlert          DFT functionals, gCP, sTDA/sTD-DF
   Ed Valeev, F. Pavosevic, A. Kumar             : LibInt (2-el integral package), F12 methods
   Garnet Chan, S. Sharma, J. Yang, R. Olivares  : DMRG
   Ulf Ekstrom                                   : XCFun DFT Library
   Mihaly Kallay                                 : mrcc  (arbitrary order and MRCC methods)
   Jiri Pittner, Ondrej Demel                    : Mk-CCSD
   Frank Weinhold                                : gennbo (NPA and NBO analysis)
   Christopher J. Cramer and Donald G. Truhlar   : smd solvation model
   Lars Goerigk                                  : TD-DFT with DH, B97 family of functionals
   V. Asgeirsson, H. Jonsson                     : NEB implementation
   FAccTs GmbH                                   : IRC, NEB, NEB-TS, DLPNO-Multilevel, CI-OPT
                                                   MM, QMMM, 2- and 3-layer-ONIOM, Crystal-QMMM,
                                                   LR-CPCM, SF, NACMEs, symmetry and pop. for TD-DFT,
                                                   nearIR, NL-DFT gradient (VV10), updates on ESD,
                                                   ML-optimized integration grids
   S Lehtola, MJT Oliveira, MAL Marques          : LibXC Library
   Liviu Ungur et al                             : ANISO software


 Your calculation uses the libint2 library for the computation of 2-el integrals
 For citations please refer to: http://libint.valeyev.net

 Your ORCA version has been built with support for libXC version: 5.1.0
 For citations please refer to: https://tddft.org/programs/libxc/

 This ORCA versions uses:
   CBLAS   interface :  Fast vector & matrix operations
   LAPACKE interface :  Fast linear algebra routines
   SCALAPACK package :  Parallel linear algebra routines
   Shared memory     :  Shared parallel matrices
   BLAS/LAPACK       :  OpenBLAS 0.3.15  USE64BITINT DYNAMIC_ARCH NO_AFFINITY Sandybridge SINGLE_THREADED
        Core in use  :  Sandybridge
   Copyright (c) 2011-2014, The OpenBLAS Project




***************************************
The coordinates will be read from file: pbe.xyz
***************************************


================================================================================

cite the ECPs for Au [Def2-ECP] as follows:
Ce-Yb(ecp-28): M. Dolg, H. Stoll, H.Preuss, J. Chem. Phys., 1989, 90, 1730-1734.
Y-Cd(ecp-28), Hf-Hg(ecp-46): D. Andrae,U. Haeussermann, M. Dolg, H. Stoll, H. Preuss, Theor. Chim. Acta, 1990, 77, 123-141.
In-Sb(ecp-28), Tl-Bi(ecp-46): B. Metz, H. Stoll, M. Dolg, J. Chem. Phys., 2000, 113, 2563-2569.
Te-Xe(ecp-28), Po-Rn(ecp-46): K. A. Peterson, D. Figgen, E. Goll, H. Stoll, M. Dolg, J. Chem. Phys., 2003, 119, 11113-11123.
Rb(ecp-28), Cs(ecp-46): T. Leininger, A. Nicklass, W. Kuechle, H. Stoll, M. Dolg, A. Bergner, Chem. Phys. Lett., 1996, 255, 274-280.
Sr(ecp-28), Ba(ecp-46): M. Kaupp, P. V. Schleyer, H. Stoll and H. Preuss, J. Chem. Phys., 1991, 94, 1360-1366.
La(ecp-46): M. Dolg, H. Stoll, A. Savin, H. Preuss, Theor. Chim. Acta, 1989, 75, 173-194.
Lu(ecp-28): X. Cao, M. Dolg, J. Chem. Phys., 2001, 115, 7348-7355.

ECP parameters for Au [Def2-ECP] have been obtained from:
TURBOMOLE (7.0.2)

----- Orbital basis set information -----
Your calculation utilizes the basis: def2-TZVP
   F. Weigend and R. Ahlrichs, Phys. Chem. Chem. Phys. 7, 3297 (2005).

----- AuxJ basis set information -----
Your calculation utilizes the auxiliary basis: def2/J
   F. Weigend, Phys. Chem. Chem. Phys. 8, 1057 (2006).

================================================================================
                                        WARNINGS
                       Please study these warnings very carefully!
================================================================================


WARNING: your system is open-shell and RHF/RKS was chosen
  ===> : WILL SWITCH to UHF/UKS


INFO   : the flag for use of the SHARK integral package has been found!



***************************************
The coordinates will be read from file: pbe.xyz
***************************************


================================================================================

cite the ECPs for Au [Def2-ECP] as follows:
Ce-Yb(ecp-28): M. Dolg, H. Stoll, H.Preuss, J. Chem. Phys., 1989, 90, 1730-1734.
Y-Cd(ecp-28), Hf-Hg(ecp-46): D. Andrae,U. Haeussermann, M. Dolg, H. Stoll, H. Preuss, Theor. Chim. Acta, 1990, 77, 123-141.
In-Sb(ecp-28), Tl-Bi(ecp-46): B. Metz, H. Stoll, M. Dolg, J. Chem. Phys., 2000, 113, 2563-2569.
Te-Xe(ecp-28), Po-Rn(ecp-46): K. A. Peterson, D. Figgen, E. Goll, H. Stoll, M. Dolg, J. Chem. Phys., 2003, 119, 11113-11123.
Rb(ecp-28), Cs(ecp-46): T. Leininger, A. Nicklass, W. Kuechle, H. Stoll, M. Dolg, A. Bergner, Chem. Phys. Lett., 1996, 255, 274-280.
Sr(ecp-28), Ba(ecp-46): M. Kaupp, P. V. Schleyer, H. Stoll and H. Preuss, J. Chem. Phys., 1991, 94, 1360-1366.
La(ecp-46): M. Dolg, H. Stoll, A. Savin, H. Preuss, Theor. Chim. Acta, 1989, 75, 173-194.
Lu(ecp-28): X. Cao, M. Dolg, J. Chem. Phys., 2001, 115, 7348-7355.

ECP parameters for Au [Def2-ECP] have been obtained from:
TURBOMOLE (7.0.2)

----- Orbital basis set information -----
Your calculation utilizes the basis: def2-TZVP
   F. Weigend and R. Ahlrichs, Phys. Chem. Chem. Phys. 7, 3297 (2005).

----- AuxJ basis set information -----
Your calculation utilizes the auxiliary basis: def2/J
   F. Weigend, Phys. Chem. Chem. Phys. 8, 1057 (2006).

================================================================================
                                        WARNINGS
                       Please study these warnings very carefully!
================================================================================


INFO   : the flag for use of the SHARK integral package has been found!

================================================================================
                                       INPUT FILE
================================================================================
NAME = pbeSP.inp
|  1> !PBE def2-TZVP VERYSLOWCONV
|  2> !KDIIS
|  3> 
|  4> %scf
|  5>   AutoTRAHIter 200
|  6>   maxiter 400
|  7> end
|  8> 
|  9> 
| 10> %pal nprocs 6 end 
| 11> 
| 12> *xyzfile 0 6 pbe.xyz
| 13> 
| 14> $new_job
| 15> 
| 16> !PBE def2-TZVP VERYSLOWCONV
| 17> !KDIIS
| 18> 
| 19> %scf
| 20>   AutoTRAHIter 200
| 21>   maxiter 400
| 22> end
| 23>  
| 24> 
| 25> %pal nprocs 6 end 
| 26> 
| 27> *xyzfile 0 4 pbe.xyz
| 28> 
| 29> 
| 30> 
| 31> 
| 32> 
| 33>                          ****END OF INPUT****
================================================================================


                 $$$$$$$$$$$$$$$$$$$$$$$$$$$$$$$$$$$$$$$$$$$$$$ 
                 $ THERE ARE  2 JOBS TO BE PROCESSED THIS RUN $
                 $$$$$$$$$$$$$$$$$$$$$$$$$$$$$$$$$$$$$$$$$$$$$$ 




                 $$$$$$$$$$$$$$$$  JOB NUMBER  1 $$$$$$$$$$$$$$


                       ****************************
                       * Single Point Calculation *
                       ****************************

---------------------------------
CARTESIAN COORDINATES (ANGSTROEM)
---------------------------------
  Au     7.006202    5.381086    7.248390
  Au     4.645554    6.801607    7.084974
  Au     6.026167    7.316273    9.420751
  Au     6.281735    6.387141    4.794885
  Au     6.484743    8.887791    6.081730
  Au     4.716496    9.409068    8.220544
  Au     9.733695    5.603970    7.107576
  Au     8.766473    7.480575    5.097846
  Au    10.913205    8.111596    6.778954
  Au     8.984397   10.094054    6.141909
  Au     8.259390    5.783542    9.625493
  Au     8.225429    8.573902   10.472234
  Au     9.996786    9.905275    8.782721
  Au     7.270551   10.373440    8.377773
  Mn     8.375766    7.854361    7.843372

----------------------------
CARTESIAN COORDINATES (A.U.)
----------------------------
  NO LB      ZA    FRAG     MASS         X           Y           Z
   0 Au   19.0000*   0   196.966   13.239803   10.168779   13.697472
   1 Au   19.0000*   0   196.966    8.778825   12.853175   13.388661
   2 Au   19.0000*   0   196.966   11.387805   13.825753   17.802640
   3 Au   19.0000*   0   196.966   11.870758   12.069947    9.061020
   4 Au   19.0000*   0   196.966   12.254389   16.795491   11.492804
   5 Au   19.0000*   0   196.966    8.912886   17.780562   15.534578
   6 Au   19.0000*   0   196.966   18.394017   10.589968   13.431373
   7 Au   19.0000*   0   196.966   16.566234   14.136237    9.633533
   8 Au   19.0000*   0   196.966   20.622968   15.328695   12.810367
   9 Au   19.0000*   0   196.966   16.978050   19.074998   11.606527
  10 Au   19.0000*   0   196.966   15.607986   10.929310   18.189545
  11 Au   19.0000*   0   196.966   15.543809   16.202327   19.789654
  12 Au   19.0000*   0   196.966   18.891187   18.718258   16.596938
  13 Au   19.0000*   0   196.966   13.739350   19.602962   15.831697
  14 Mn   25.0000    0    54.940   15.827905   14.842592   14.821826
* core charge reduced due to ECP

--------------------------------
INTERNAL COORDINATES (ANGSTROEM)
--------------------------------
 Au     0   0   0     0.000000000000     0.00000000     0.00000000
 Au     1   0   0     2.759935175269     0.00000000     0.00000000
 Au     2   1   0     2.761671256396    67.55756410     0.00000000
 Au     1   2   3     2.748942342979    62.18424275   218.43953827
 Au     4   1   2     2.819651215692    84.16085949    61.83306159
 Au     3   2   1     2.745091124582    62.21042814   142.46211005
 Au     1   2   3     2.740205039697   143.75073021   287.18010947
 Au     4   1   2     2.731539466021    78.91746011   124.28142143
 Au     7   1   2     2.790595902462   119.99036595     3.70319419
 Au     5   4   1     2.776141192760   117.39179855    86.70185189
 Au     3   2   1     2.716333774402   111.69097260   356.26536694
 Au     3   2   1     2.742991167955   144.14332594    72.46796723
 Au    12   3   2     2.786522874297   119.75668062   358.08073382
 Au     6   3   2     2.734580735870    78.35309916   235.78971694
 Mn     7   1   2     2.729400374893    63.76840428    25.81008127

---------------------------
INTERNAL COORDINATES (A.U.)
---------------------------
 Au     0   0   0     0.000000000000     0.00000000     0.00000000
 Au     1   0   0     5.215521628634     0.00000000     0.00000000
 Au     2   1   0     5.218802346510    67.55756410     0.00000000
 Au     1   2   3     5.194748186170    62.18424275   218.43953827
 Au     4   1   2     5.328368590835    84.16085949    61.83306159
 Au     3   2   1     5.187470438119    62.21042814   142.46211005
 Au     1   2   3     5.178237075818   143.75073021   287.18010947
 Au     4   1   2     5.161861514777    78.91746011   124.28142143
 Au     7   1   2     5.273462006095   119.99036595     3.70319419
 Au     5   4   1     5.246146563414   117.39179855    86.70185189
 Au     3   2   1     5.133126921941   111.69097260   356.26536694
 Au     3   2   1     5.183502095200   144.14332594    72.46796723
 Au    12   3   2     5.265765098329   119.75668062   358.08073382
 Au     6   3   2     5.167608681891    78.35309916   235.78971694
 Mn     7   1   2     5.157819218370    63.76840428    25.81008127

---------------------
BASIS SET INFORMATION
---------------------
There are 2 groups of distinct atoms

 Group   1 Type Au  : 8s7p6d1f contracted to 6s4p3d1f pattern {311111/4111/411/1}
 Group   2 Type Mn  : 17s11p7d1f contracted to 6s4p4d1f pattern {842111/6311/4111/1}

Atom   0Au   basis set group =>   1
Atom   1Au   basis set group =>   1
Atom   2Au   basis set group =>   1
Atom   3Au   basis set group =>   1
Atom   4Au   basis set group =>   1
Atom   5Au   basis set group =>   1
Atom   6Au   basis set group =>   1
Atom   7Au   basis set group =>   1
Atom   8Au   basis set group =>   1
Atom   9Au   basis set group =>   1
Atom  10Au   basis set group =>   1
Atom  11Au   basis set group =>   1
Atom  12Au   basis set group =>   1
Atom  13Au   basis set group =>   1
Atom  14Mn   basis set group =>   2
---------------------------------
AUXILIARY/J BASIS SET INFORMATION
---------------------------------
There are 2 groups of distinct atoms

 Group   1 Type Au  : 11s5p5d3f3g contracted to 8s5p5d2f3g pattern {41111111/11111/11111/21/111}
 Group   2 Type Mn  : 19s5p5d3f3g contracted to 8s5p5d2f3g pattern {121111111/11111/11111/21/111}

Atom   0Au   basis set group =>   1
Atom   1Au   basis set group =>   1
Atom   2Au   basis set group =>   1
Atom   3Au   basis set group =>   1
Atom   4Au   basis set group =>   1
Atom   5Au   basis set group =>   1
Atom   6Au   basis set group =>   1
Atom   7Au   basis set group =>   1
Atom   8Au   basis set group =>   1
Atom   9Au   basis set group =>   1
Atom  10Au   basis set group =>   1
Atom  11Au   basis set group =>   1
Atom  12Au   basis set group =>   1
Atom  13Au   basis set group =>   1
Atom  14Mn   basis set group =>   2
-------------------------
ECP PARAMETER INFORMATION
-------------------------

 Group 1, Type Au ECP Def2-ECP (replacing 60 core electrons, lmax=3)

Atom   0Au   ECP group =>   1
Atom   1Au   ECP group =>   1
Atom   2Au   ECP group =>   1
Atom   3Au   ECP group =>   1
Atom   4Au   ECP group =>   1
Atom   5Au   ECP group =>   1
Atom   6Au   ECP group =>   1
Atom   7Au   ECP group =>   1
Atom   8Au   ECP group =>   1
Atom   9Au   ECP group =>   1
Atom  10Au   ECP group =>   1
Atom  11Au   ECP group =>   1
Atom  12Au   ECP group =>   1
Atom  13Au   ECP group =>   1



           ************************************************************
           *        Program running with 6 parallel MPI-processes     *
           *              working on a common directory               *
           ************************************************************
------------------------------------------------------------------------------
                           ORCA GTO INTEGRAL CALCULATION
                           -- RI-GTO INTEGRALS CHOSEN --
------------------------------------------------------------------------------
------------------------------------------------------------------------------
                   ___                                                        
                  /   \      - P O W E R E D   B Y -                         
                 /     \                                                     
                 |  |  |   _    _      __       _____    __    __             
                 |  |  |  | |  | |    /  \     |  _  \  |  |  /  |          
                  \  \/   | |  | |   /    \    | | | |  |  | /  /          
                 / \  \   | |__| |  /  /\  \   | |_| |  |  |/  /          
                |  |  |   |  __  | /  /__\  \  |    /   |      \           
                |  |  |   | |  | | |   __   |  |    \   |  |\   \          
                \     /   | |  | | |  |  |  |  | |\  \  |  | \   \       
                 \___/    |_|  |_| |__|  |__|  |_| \__\ |__|  \__/        
                                                                              
                      - O R C A' S   B I G   F R I E N D -                    
                                      &                                       
                       - I N T E G R A L  F E E D E R -                       
                                                                              
 v1 FN, 2020, v2 2021                                                         
------------------------------------------------------------------------------


Reading SHARK input file pbeSP.SHARKINP.tmp ... ok
----------------------
SHARK INTEGRAL PACKAGE
----------------------

Number of atoms                             ...     15
Number of basis functions                   ...    605
Number of shells                            ...    211
Maximum angular momentum                    ...      3
Integral batch strategy                     ... SHARK/LIBINT Hybrid
RI-J (if used) integral strategy            ... SPLIT-RIJ (Revised 2003 algorithm where possible)
Printlevel                                  ...      1
Contraction scheme used                     ... SEGMENTED contraction
Coulomb Range Separation                    ... NOT USED
Exchange Range Separation                   ... NOT USED
Finite Nucleus Model                        ... NOT USED
Auxiliary Coulomb fitting basis             ... AVAILABLE
   # of basis functions in Aux-J            ...   1335
   # of shells in Aux-J                     ...    345
   Maximum angular momentum in Aux-J        ...      4
Auxiliary J/K fitting basis                 ... NOT available
Auxiliary Correlation fitting basis         ... NOT available
Auxiliary 'external' fitting basis          ... NOT available
Integral threshold                          ...     1.000000e-10
Primitive cut-off                           ...     1.000000e-11
Primitive pair pre-selection threshold      ...     1.000000e-11

Calculating pre-screening integrals         ... done (  0.3 sec) Dimension = 211
Organizing shell pair data                  ... done (  0.7 sec)
Shell pair information
Total number of shell pairs                 ...     22366
Shell pairs after pre-screening             ...     17852
Total number of primitive shell pairs       ...     59609
Primitive shell pairs kept                  ...     34410
          la=0 lb=0:   2805 shell pairs
          la=1 lb=0:   4061 shell pairs
          la=1 lb=1:   1537 shell pairs
          la=2 lb=0:   3538 shell pairs
          la=2 lb=1:   2509 shell pairs
          la=2 lb=2:   1027 shell pairs
          la=3 lb=0:    933 shell pairs
          la=3 lb=1:    716 shell pairs
          la=3 lb=2:    628 shell pairs
          la=3 lb=3:     98 shell pairs

Calculating one electron integrals          ... done (  0.1 sec)
Calculating ECP integrals                   ... done ( 24.0 sec)
Calculating RI/J V-Matrix + Cholesky decomp.... done (  0.2 sec)
Calculating Nuclear repulsion               ... done (  0.0 sec) ENN=   5651.567196323093 Eh

SHARK setup successfully completed in  25.9 seconds

Maximum memory used throughout the entire GTOINT-calculation: 34.6 MB


           ************************************************************
           *        Program running with 6 parallel MPI-processes     *
           *              working on a common directory               *
           ************************************************************
-------------------------------------------------------------------------------
                                 ORCA SCF
-------------------------------------------------------------------------------

------------
SCF SETTINGS
------------
Hamiltonian:
 Density Functional     Method          .... DFT(GTOs)
 Exchange Functional    Exchange        .... PBE
   PBE kappa parameter   XKappa         ....  0.804000
   PBE mue parameter    XMuePBE         ....  0.219520
 Correlation Functional Correlation     .... PBE
   PBE beta parameter  CBetaPBE         ....  0.066725
 LDA part of GGA corr.  LDAOpt          .... PW91-LDA
 Gradients option       PostSCFGGA      .... off
   Density functional embedding theory  .... OFF
   NL short-range parameter             ....  6.400000
 RI-approximation to the Coulomb term is turned on
   Number of AuxJ basis functions       .... 1335


General Settings:
 Integral files         IntName         .... pbeSP
 Hartree-Fock type      HFTyp           .... UHF
 Total Charge           Charge          ....    0
 Multiplicity           Mult            ....    6
 Number of Electrons    NEL             ....  291
 Basis Dimension        Dim             ....  605
 Nuclear Repulsion      ENuc            ....   5651.5671963231 Eh

Convergence Acceleration:
 DIIS                   CNVDIIS         .... off
 Trust-Rad. Augm. Hess. CNVTRAH         .... auto
   Auto Start mean grad. ratio tolernc. ....  1.125000
   Auto Start start iteration           ....   200
   Auto Start num. interpolation iter.  ....    10
   Max. Number of Micro iterations      ....    16
   Max. Number of Macro iterations      .... Maxiter - #DIIS iter
   Number of Davidson start vectors     ....     2
   Converg. threshold I  (grad. norm)   ....   5.000e-05
   Converg. threshold II (energy diff.) ....   1.000e-06
   Grad. Scal. Fac. for Micro threshold ....   0.100
   Minimum threshold for Micro iter.    ....   0.010
   NR start threshold (gradient norm)   ....   0.001
   Initial trust radius                 ....   0.400
   Minimum AH scaling param. (alpha)    ....   1.000
   Maximum AH scaling param. (alpha)    .... 1000.000
   Orbital update algorithm             .... Taylor
   White noise on init. David. guess    .... on
   Maximum white noise                  ....   0.010
   Quad. conv. algorithm                .... NR
 SOSCF                  CNVSOSCF        .... off
 Level Shifting         CNVShift        .... off
 Zerner damping         CNVZerner       .... off
 Static damping         CNVDamp         .... off
 Fernandez-Rico         CNVRico         .... off

SCF Procedure:
 Maximum # iterations   MaxIter         ....   400
 SCF integral mode      SCFMode         .... Direct
   Integral package                     .... SHARK and LIBINT hybrid scheme
 Reset frequency        DirectResetFreq ....    20
 Integral Threshold     Thresh          ....  1.000e-10 Eh
 Primitive CutOff       TCut            ....  1.000e-11 Eh

Convergence Tolerance:
 Convergence Check Mode ConvCheckMode   .... All-Criteria
 Convergence forced     ConvForced      .... 0
 Energy Change          TolE            ....  1.000e-06 Eh
 Max Density Change     TolMaxP         ....  1.000e-05
 RMS Density Change     TolRMSP         ....  1.000e-06


Diagonalization of the overlap matrix:
Smallest eigenvalue                        ... 3.027e-04
Time for diagonalization                   ...    0.120 sec
Threshold for overlap eigenvalues          ... 1.000e-08
Number of eigenvalues below threshold      ... 0
Time for construction of square roots      ...    0.117 sec
Total time needed                          ...    0.240 sec

Time for model grid setup =    0.987 sec

------------------------------
INITIAL GUESS: MODEL POTENTIAL
------------------------------
Loading Hartree-Fock densities                     ... done
  calling /home/ehlert/src/miniconda3/envs/orca500/Programs/ORCA501/orca pbeSP_atom79.inp > pbeSP_atom79.out in order to generate an atomic fitting density for atom 0 (Au with ECP) on-the-fly... 
    atom 0 (Au), assumed electronic state with S=2: 1s2 2s2 2p6 3s2 3p6 4s2 3d10 4p6 5s2 4d10 5p6 6s1 4f14 5d10           ... done
Calculating cut-offs                               ... done
Initializing the effective Hamiltonian             ... done
Setting up the integral package (SHARK)            ... done
Starting the Coulomb interaction                   ... done (   1.1 sec)
Reading the grid                                   ... done
Mapping shells                                     ... done
Starting the XC term evaluation                    ... done (   1.2 sec)
  promolecular density results
     # of electrons  =   1131.014515135
     EX              =  -5172.138347516
     EC              =    -68.917258961
     EX+EC           =  -5241.055606477
Transforming the Hamiltonian                       ... done (   0.1 sec)
Diagonalizing the Hamiltonian                      ... done (   0.2 sec)
Back transforming the eigenvectors                 ... done (   0.0 sec)
Now organizing SCF variables                       ... done
                      ------------------
                      INITIAL GUESS DONE (   4.7 sec)
                      ------------------
-------------------
DFT GRID GENERATION
-------------------

General Integration Accuracy     IntAcc      ... 4.388
Radial Grid Type                 RadialGrid  ... OptM3 with GC (2021)
Angular Grid (max. ang.)         AngularGrid ... 4 (Lebedev-302)
Angular grid pruning method      GridPruning ... 4 (adaptive)
Weight generation scheme         WeightScheme... Becke
Basis function cutoff            BFCut       ... 1.0000e-10
Integration weight cutoff        WCut        ... 1.0000e-14
Angular grids for H and He will be reduced by one unit
Partially contracted basis set               ... off
Rotationally invariant grid construction     ... off

Total number of grid points                  ...   165784
Total number of batches                      ...     2600
Average number of points per batch           ...       63
Average number of grid points per atom       ...    11052
Time for grid setup =    3.063 sec

--------------
SCF ITERATIONS
--------------
ITER       Energy         Delta-E        Max-DP      RMS-DP      [F,P]   Gradient Norm
               ***  Starting incremental Fock matrix formation  ***
                             ****Resetting KDIIS****
                             ****Turning on KDIIS(Cayley)****
  0  -3050.1993672154   0.000000000000 0.33060861  0.00140863  0.4219957   0.220840233
  1  -3051.4105106699  -1.211143454528 0.65021507  0.00180180  0.3015581   0.166866755
  2  -3051.9199977641  -0.509487094140 0.18789663  0.00129699  0.2381994   0.125036908
  3  -3052.1766663274  -0.256668563315 0.17234585  0.00148318  0.1390870   0.073319236
  4  -3052.2470938945  -0.070427567076 0.05038860  0.00059160  0.0532588   0.025240302
  5  -3052.3061147329  -0.059020838464 0.27550716  0.00072793  0.0309274   0.008449090
  6  -3052.3332418479  -0.027127114986 0.07444407  0.00085166  0.0399338   0.007428423
  7  -3052.3614238365  -0.028181988525 0.02669162  0.00029675  0.0139665   0.006907082
  8  -3052.3575541945   0.003869641998 0.05024300  0.00035455  0.0095348   0.010315672
  9  -3052.3741653280  -0.016611133526 0.00960239  0.00012066  0.0078776   0.003012089
 10  -3052.3751603377  -0.000995009711 0.00664885  0.00009494  0.0051849   0.002737377
 11  -3052.3763881536  -0.001227815890 0.00652606  0.00007905  0.0023753   0.001467149
 12  -3052.3767169032  -0.000328749642 0.00811174  0.00004790  0.0016688   0.001781729
 13  -3052.3769042359  -0.000187332721 0.00971715  0.00005391  0.0020409   0.001197828
 14  -3052.3771477275  -0.000243491574 0.00324031  0.00002697  0.0016143   0.000931945
 15  -3052.3771028854   0.000044842141 0.00274310  0.00002810  0.0019342   0.001220400
 16  -3052.3772595835  -0.000156698135 0.00171131  0.00001866  0.0012504   0.000563096
 17  -3052.3773098910  -0.000050307480 0.00182930  0.00002622  0.0010512   0.000381932
 18  -3052.3773686179  -0.000058726895 0.00323737  0.00001640  0.0010313   0.000349241
 19  -3052.3773749630  -0.000006345089 0.00318446  0.00001752  0.0009391   0.000443962
               *** Restarting incremental Fock matrix formation ***
                             ****Resetting KDIIS****
 20  -3052.3774087424  -0.000033779461 0.00033153  0.00000252  0.0008603   0.000291632
 21  -3052.3774159812  -0.000007238723 0.00043547  0.00000342  0.0008521   0.000201503
 22  -3052.3774221122  -0.000006131022 0.00078790  0.00000853  0.0008343   0.000170056
 23  -3052.3774344234  -0.000012311213 0.00411705  0.00004133  0.0007692   0.000144623
 24  -3052.3774712664  -0.000036843046 0.00266808  0.00002762  0.0005532   0.000240310
 25  -3052.3774892660  -0.000017999543 0.00203110  0.00000569  0.0003286   0.000063241
                          ***Energy convergence achieved***
 26  -3052.3774890738   0.000000192225 0.00085205  0.00000798  0.0003491   0.000119118
 27  -3052.3774928037  -0.000003729959 0.00121231  0.00001113  0.0002810   0.000033340
 28  -3052.3774957545  -0.000002950794 0.00153361  0.00001410  0.0002055   0.000064732
 29  -3052.3774983719  -0.000002617426 0.00051819  0.00000462  0.0001046   0.000029816
                          ***Energy convergence achieved***
 30  -3052.3774990655  -0.000000693542 0.00015260  0.00000188  0.0000746   0.000024123
 31  -3052.3774991050  -0.000000039508 0.00037339  0.00000352  0.0000775   0.000037076
 32  -3052.3774994303  -0.000000325300 0.00020077  0.00000206  0.0000712   0.000019739
 33  -3052.3774996075  -0.000000177230 0.00049947  0.00000458  0.0000580   0.000022359
 34  -3052.3774998117  -0.000000204191 0.00021805  0.00000222  0.0000480   0.000017618
 35  -3052.3774997210   0.000000090706 0.00019699  0.00000190  0.0000483   0.000028287
 36  -3052.3774998306  -0.000000109632 0.00014429  0.00000156  0.0000382   0.000013868
                           ***RMSP convergence achieved***
 37  -3052.3774998980  -0.000000067408 0.00010156  0.00000096  0.0000346   0.000011379
 38  -3052.3774998458   0.000000052268 0.00016055  0.00000095  0.0000278   0.000013669
 39  -3052.3774998002   0.000000045624 0.00053478  0.00000101  0.0000263   0.000009937
               *** Restarting incremental Fock matrix formation ***
                             ****Resetting KDIIS****
                           ***RMSP convergence achieved***
 40  -3052.3774997480   0.000000052110 0.00011065  0.00000021  0.0000259   0.000006413
 41  -3052.3774996783   0.000000069725 0.00016498  0.00000038  0.0000255   0.000004936
 42  -3052.3774997112  -0.000000032901 0.00027427  0.00000067  0.0000245   0.000004309
 43  -3052.3774998625  -0.000000151248 0.00105838  0.00000252  0.0000231   0.000004024
                           ***RMSP convergence achieved***

            ***Energy convergence in two consecutive cycles with***
                    ***'reasonable' density convergence***
                       *** signaling convergence ***

                    *** KDIIS BlockDiag ( 0.265 sec) ***

               *****************************************************
               *                     SUCCESS                       *
               *           SCF CONVERGED AFTER  44 CYCLES          *
               *****************************************************


----------------
TOTAL SCF ENERGY
----------------

Total Energy       :        -3052.37749984 Eh          -83059.41443 eV

Components:
Nuclear Repulsion  :         5651.56719632 Eh          153786.96179 eV
Electronic Energy  :        -8703.94469616 Eh         -236846.37622 eV
One Electron Energy:       -16218.69126161 Eh         -441333.02617 eV
Two Electron Energy:         7514.74656545 Eh          204486.64995 eV

Virial components:
Potential Energy   :        -4842.43048786 Eh         -131769.23259 eV
Kinetic Energy     :         1790.05298803 Eh           48709.81816 eV
Virial Ratio       :            2.70518835


DFT components:
N(Alpha)           :      148.000021047414 electrons
N(Beta)            :      143.000024578084 electrons
N(Total)           :      291.000045625498 electrons
E(X)               :     -219.579623584932 Eh       
E(C)               :      -12.694870435695 Eh       
E(XC)              :     -232.274494020627 Eh       
DFET-embed. en.    :        0.000000000000 Eh       

---------------
SCF CONVERGENCE
---------------

  Last Energy change         ...    2.5669e-08  Tolerance :   1.0000e-06
  Last MAX-Density change    ...    9.7531e-05  Tolerance :   1.0000e-05
  Last RMS-Density change    ...    8.8720e-07  Tolerance :   1.0000e-06

             **** THE GBW FILE WAS UPDATED (pbeSP.gbw) ****
             **** DENSITY pbeSP.scfp WAS UPDATED ****
             **** ENERGY FILE WAS UPDATED (pbeSP.en.tmp) ****
----------------------
UHF SPIN CONTAMINATION
----------------------

Warning: in a DFT calculation there is little theoretical justification to 
         calculate <S**2> as in Hartree-Fock theory. We will do it anyways
         but you should keep in mind that the values have only limited relevance

Expectation value of <S**2>     :     8.770950
Ideal value S*(S+1) for S=2.5   :     8.750000
Deviation                       :     0.020950

             **** THE GBW FILE WAS UPDATED (pbeSP.gbw) ****
             **** DENSITY pbeSP.scfp WAS UPDATED ****
----------------
ORBITAL ENERGIES
----------------
                 SPIN UP ORBITALS
  NO   OCC          E(Eh)            E(eV) 
   0   1.0000    -234.202290     -6372.9683 
   1   1.0000     -26.896328      -731.8863 
   2   1.0000     -23.046688      -627.1323 
   3   1.0000     -23.043713      -627.0513 
   4   1.0000     -23.043370      -627.0420 
   5   1.0000      -4.043531      -110.0301 
   6   1.0000      -4.032977      -109.7429 
   7   1.0000      -4.032494      -109.7297 
   8   1.0000      -4.031642      -109.7066 
   9   1.0000      -4.031575      -109.7047 
  10   1.0000      -4.031109      -109.6921 
  11   1.0000      -4.025476      -109.5388 
  12   1.0000      -4.025002      -109.5259 
  13   1.0000      -4.024946      -109.5244 
  14   1.0000      -4.024846      -109.5216 
  15   1.0000      -4.024710      -109.5179 
  16   1.0000      -4.024699      -109.5176 
  17   1.0000      -4.024023      -109.4992 
  18   1.0000      -4.023976      -109.4979 
  19   1.0000      -3.109006       -84.6004 
  20   1.0000      -2.258768       -61.4642 
  21   1.0000      -2.257213       -61.4219 
  22   1.0000      -2.254064       -61.3362 
  23   1.0000      -2.251657       -61.2707 
  24   1.0000      -2.250769       -61.2465 
  25   1.0000      -2.247709       -61.1633 
  26   1.0000      -2.247663       -61.1620 
  27   1.0000      -2.246775       -61.1379 
  28   1.0000      -2.244937       -61.0878 
  29   1.0000      -2.244848       -61.0854 
  30   1.0000      -2.244186       -61.0674 
  31   1.0000      -2.243532       -61.0496 
  32   1.0000      -2.243471       -61.0480 
  33   1.0000      -2.243031       -61.0360 
  34   1.0000      -2.242377       -61.0182 
  35   1.0000      -2.241925       -61.0059 
  36   1.0000      -2.241706       -60.9999 
  37   1.0000      -2.241547       -60.9956 
  38   1.0000      -2.240317       -60.9621 
  39   1.0000      -2.240101       -60.9563 
  40   1.0000      -2.239862       -60.9497 
  41   1.0000      -2.239693       -60.9451 
  42   1.0000      -2.239022       -60.9269 
  43   1.0000      -2.238806       -60.9210 
  44   1.0000      -2.238668       -60.9173 
  45   1.0000      -2.238624       -60.9161 
  46   1.0000      -2.237975       -60.8984 
  47   1.0000      -2.237746       -60.8922 
  48   1.0000      -2.237699       -60.8909 
  49   1.0000      -2.237563       -60.8872 
  50   1.0000      -2.237358       -60.8816 
  51   1.0000      -2.236918       -60.8696 
  52   1.0000      -2.236692       -60.8635 
  53   1.0000      -2.236567       -60.8601 
  54   1.0000      -2.236471       -60.8575 
  55   1.0000      -2.236259       -60.8517 
  56   1.0000      -2.235706       -60.8367 
  57   1.0000      -2.235397       -60.8282 
  58   1.0000      -2.234947       -60.8160 
  59   1.0000      -2.234840       -60.8131 
  60   1.0000      -2.233901       -60.7875 
  61   1.0000      -2.233849       -60.7861 
  62   1.0000      -2.015466       -54.8436 
  63   1.0000      -2.009993       -54.6947 
  64   1.0000      -2.009732       -54.6876 
  65   1.0000      -0.435213       -11.8428 
  66   1.0000      -0.393937       -10.7196 
  67   1.0000      -0.390473       -10.6253 
  68   1.0000      -0.386711       -10.5229 
  69   1.0000      -0.380996       -10.3674 
  70   1.0000      -0.375300       -10.2124 
  71   1.0000      -0.369026       -10.0417 
  72   1.0000      -0.367709       -10.0059 
  73   1.0000      -0.365900        -9.9566 
  74   1.0000      -0.363173        -9.8824 
  75   1.0000      -0.363044        -9.8789 
  76   1.0000      -0.355498        -9.6736 
  77   1.0000      -0.355450        -9.6723 
  78   1.0000      -0.354206        -9.6384 
  79   1.0000      -0.350685        -9.5426 
  80   1.0000      -0.348755        -9.4901 
  81   1.0000      -0.347971        -9.4688 
  82   1.0000      -0.344320        -9.3694 
  83   1.0000      -0.341136        -9.2828 
  84   1.0000      -0.339282        -9.2323 
  85   1.0000      -0.337260        -9.1773 
  86   1.0000      -0.335622        -9.1327 
  87   1.0000      -0.331458        -9.0194 
  88   1.0000      -0.327978        -8.9247 
  89   1.0000      -0.327490        -8.9115 
  90   1.0000      -0.325253        -8.8506 
  91   1.0000      -0.324753        -8.8370 
  92   1.0000      -0.319958        -8.7065 
  93   1.0000      -0.318996        -8.6803 
  94   1.0000      -0.318136        -8.6569 
  95   1.0000      -0.314504        -8.5581 
  96   1.0000      -0.311952        -8.4886 
  97   1.0000      -0.309722        -8.4280 
  98   1.0000      -0.306763        -8.3475 
  99   1.0000      -0.305129        -8.3030 
 100   1.0000      -0.302693        -8.2367 
 101   1.0000      -0.298994        -8.1360 
 102   1.0000      -0.297478        -8.0948 
 103   1.0000      -0.293971        -7.9994 
 104   1.0000      -0.293146        -7.9769 
 105   1.0000      -0.289595        -7.8803 
 106   1.0000      -0.288994        -7.8639 
 107   1.0000      -0.287448        -7.8219 
 108   1.0000      -0.285133        -7.7589 
 109   1.0000      -0.284518        -7.7421 
 110   1.0000      -0.280179        -7.6241 
 111   1.0000      -0.279475        -7.6049 
 112   1.0000      -0.279200        -7.5974 
 113   1.0000      -0.276251        -7.5172 
 114   1.0000      -0.274153        -7.4601 
 115   1.0000      -0.273164        -7.4332 
 116   1.0000      -0.272360        -7.4113 
 117   1.0000      -0.271108        -7.3772 
 118   1.0000      -0.270046        -7.3483 
 119   1.0000      -0.269716        -7.3394 
 120   1.0000      -0.269534        -7.3344 
 121   1.0000      -0.267091        -7.2679 
 122   1.0000      -0.265237        -7.2175 
 123   1.0000      -0.261692        -7.1210 
 124   1.0000      -0.260186        -7.0800 
 125   1.0000      -0.257790        -7.0148 
 126   1.0000      -0.257067        -6.9952 
 127   1.0000      -0.256450        -6.9784 
 128   1.0000      -0.255137        -6.9426 
 129   1.0000      -0.254850        -6.9348 
 130   1.0000      -0.253428        -6.8961 
 131   1.0000      -0.251484        -6.8432 
 132   1.0000      -0.251125        -6.8335 
 133   1.0000      -0.249469        -6.7884 
 134   1.0000      -0.248708        -6.7677 
 135   1.0000      -0.247951        -6.7471 
 136   1.0000      -0.246555        -6.7091 
 137   1.0000      -0.245137        -6.6705 
 138   1.0000      -0.244976        -6.6661 
 139   1.0000      -0.244340        -6.6488 
 140   1.0000      -0.243325        -6.6212 
 141   1.0000      -0.242636        -6.6025 
 142   1.0000      -0.242340        -6.5944 
 143   1.0000      -0.229261        -6.2385 
 144   1.0000      -0.216970        -5.9040 
 145   1.0000      -0.208303        -5.6682 
 146   1.0000      -0.196369        -5.3435 
 147   1.0000      -0.194634        -5.2963 
 148   0.0000      -0.172689        -4.6991 
 149   0.0000      -0.149526        -4.0688 
 150   0.0000      -0.137119        -3.7312 
 151   0.0000      -0.132705        -3.6111 
 152   0.0000      -0.118426        -3.2225 
 153   0.0000      -0.112202        -3.0532 
 154   0.0000      -0.111067        -3.0223 
 155   0.0000      -0.075777        -2.0620 
 156   0.0000      -0.069331        -1.8866 
 157   0.0000      -0.068919        -1.8754 
 158   0.0000      -0.066787        -1.8174 
 159   0.0000      -0.059562        -1.6208 
 160   0.0000      -0.039942        -1.0869 
 161   0.0000      -0.035241        -0.9589 
 162   0.0000      -0.030734        -0.8363 
 163   0.0000      -0.027535        -0.7493 
 164   0.0000      -0.014245        -0.3876 
 165   0.0000       0.001818         0.0495 
 166   0.0000       0.003477         0.0946 
 167   0.0000       0.019536         0.5316 
 168   0.0000       0.019981         0.5437 
 169   0.0000       0.024026         0.6538 
 170   0.0000       0.029915         0.8140 
 171   0.0000       0.031679         0.8620 
 172   0.0000       0.037575         1.0225 
 173   0.0000       0.041588         1.1317 
 174   0.0000       0.048634         1.3234 
 175   0.0000       0.057331         1.5601 
 176   0.0000       0.059560         1.6207 
 177   0.0000       0.061036         1.6609 
 178   0.0000       0.064635         1.7588 
 179   0.0000       0.067130         1.8267 
 180   0.0000       0.070687         1.9235 
 181   0.0000       0.072426         1.9708 
 182   0.0000       0.079521         2.1639 
 183   0.0000       0.084066         2.2875 
 184   0.0000       0.084505         2.2995 
 185   0.0000       0.093088         2.5331 
 186   0.0000       0.094199         2.5633 
 187   0.0000       0.105643         2.8747 
 188   0.0000       0.110419         3.0047 
 189   0.0000       0.115323         3.1381 
 190   0.0000       0.118910         3.2357 
 191   0.0000       0.125578         3.4171 
 192   0.0000       0.131874         3.5885 
 193   0.0000       0.133335         3.6282 
 194   0.0000       0.142308         3.8724 
 195   0.0000       0.147448         4.0123 
 196   0.0000       0.150729         4.1015 
 197   0.0000       0.156589         4.2610 
 198   0.0000       0.158983         4.3261 
 199   0.0000       0.163359         4.4452 
 200   0.0000       0.164131         4.4662 
 201   0.0000       0.167806         4.5662 
 202   0.0000       0.170514         4.6399 
 203   0.0000       0.171743         4.6734 
 204   0.0000       0.183502         4.9933 
 205   0.0000       0.183880         5.0036 
 206   0.0000       0.192722         5.2442 
 207   0.0000       0.199075         5.4171 
 208   0.0000       0.201423         5.4810 
 209   0.0000       0.210429         5.7261 
 210   0.0000       0.214408         5.8343 
 211   0.0000       0.218645         5.9496 
 212   0.0000       0.221367         6.0237 
 213   0.0000       0.225989         6.1495 
 214   0.0000       0.227197         6.1823 
 215   0.0000       0.234867         6.3911 
 216   0.0000       0.238744         6.4966 
 217   0.0000       0.239842         6.5264 
 218   0.0000       0.251933         6.8554 
 219   0.0000       0.255979         6.9655 
 220   0.0000       0.260374         7.0851 
 221   0.0000       0.263546         7.1714 
 222   0.0000       0.268495         7.3061 
 223   0.0000       0.278608         7.5813 
 224   0.0000       0.280872         7.6429 
 225   0.0000       0.285073         7.7572 
 226   0.0000       0.287170         7.8143 
 227   0.0000       0.294016         8.0006 
 228   0.0000       0.294802         8.0220 
 229   0.0000       0.303935         8.2705 
 230   0.0000       0.310543         8.4503 
 231   0.0000       0.312003         8.4900 
 232   0.0000       0.313713         8.5366 
 233   0.0000       0.317451         8.6383 
 234   0.0000       0.318002         8.6533 
 235   0.0000       0.326070         8.8728 
 236   0.0000       0.329230         8.9588 
 237   0.0000       0.329937         8.9780 
 238   0.0000       0.338309         9.2059 
 239   0.0000       0.338584         9.2133 
 240   0.0000       0.343833         9.3562 
 241   0.0000       0.354014         9.6332 
 242   0.0000       0.354777         9.6540 
 243   0.0000       0.357411         9.7256 
 244   0.0000       0.359007         9.7691 
 245   0.0000       0.369391        10.0516 
 246   0.0000       0.377929        10.2840 
 247   0.0000       0.379646        10.3307 
 248   0.0000       0.384735        10.4692 
 249   0.0000       0.394674        10.7396 
 250   0.0000       0.395253        10.7554 
 251   0.0000       0.405977        11.0472 
 252   0.0000       0.407124        11.0784 
 253   0.0000       0.413639        11.2557 
 254   0.0000       0.416525        11.3342 
 255   0.0000       0.418846        11.3974 
 256   0.0000       0.425515        11.5789 
 257   0.0000       0.427168        11.6238 
 258   0.0000       0.433294        11.7905 
 259   0.0000       0.438937        11.9441 
 260   0.0000       0.445025        12.1098 
 261   0.0000       0.449209        12.2236 
 262   0.0000       0.451673        12.2907 
 263   0.0000       0.462743        12.5919 
 264   0.0000       0.463694        12.6178 
 265   0.0000       0.467180        12.7126 
 266   0.0000       0.467510        12.7216 
 267   0.0000       0.473405        12.8820 
 268   0.0000       0.474574        12.9138 
 269   0.0000       0.476178        12.9575 
 270   0.0000       0.480699        13.0805 
 271   0.0000       0.483534        13.1576 
 272   0.0000       0.490374        13.3438 
 273   0.0000       0.499105        13.5813 
 274   0.0000       0.504051        13.7159 
 275   0.0000       0.504991        13.7415 
 276   0.0000       0.505639        13.7591 
 277   0.0000       0.512120        13.9355 
 278   0.0000       0.514540        14.0013 
 279   0.0000       0.516148        14.0451 
 280   0.0000       0.525503        14.2997 
 281   0.0000       0.530174        14.4268 
 282   0.0000       0.531448        14.4614 
 283   0.0000       0.536587        14.6013 
 284   0.0000       0.537314        14.6211 
 285   0.0000       0.539915        14.6918 
 286   0.0000       0.546629        14.8745 
 287   0.0000       0.551338        15.0027 
 288   0.0000       0.557304        15.1650 
 289   0.0000       0.584051        15.8928 
 290   0.0000       0.589479        16.0405 
 291   0.0000       0.624349        16.9894 
 292   0.0000       0.639358        17.3978 
 293   0.0000       0.665029        18.0964 
 294   0.0000       0.666274        18.1302 
 295   0.0000       0.679007        18.4767 
 296   0.0000       0.679461        18.4891 
 297   0.0000       0.686765        18.6878 
 298   0.0000       0.692085        18.8326 
 299   0.0000       0.705117        19.1872 
 300   0.0000       0.723268        19.6811 
 301   0.0000       0.725687        19.7470 
 302   0.0000       0.734978        19.9998 
 303   0.0000       0.744007        20.2455 
 304   0.0000       0.760159        20.6850 
 305   0.0000       0.764766        20.8103 
 306   0.0000       0.767001        20.8712 
 307   0.0000       0.786648        21.4058 
 308   0.0000       0.788927        21.4678 
 309   0.0000       0.790711        21.5163 
 310   0.0000       0.802557        21.8387 
 311   0.0000       0.805160        21.9095 
 312   0.0000       0.837046        22.7772 
 313   0.0000       0.838826        22.8256 
 314   0.0000       0.841410        22.8959 
 315   0.0000       0.855756        23.2863 
 316   0.0000       0.866311        23.5735 
 317   0.0000       0.869362        23.6566 
 318   0.0000       0.880195        23.9513 
 319   0.0000       0.883013        24.0280 
 320   0.0000       0.893562        24.3151 
 321   0.0000       0.894417        24.3383 
 322   0.0000       0.895507        24.3680 
 323   0.0000       0.911153        24.7937 
 324   0.0000       0.913151        24.8481 
 325   0.0000       0.926003        25.1978 
 326   0.0000       0.926515        25.2118 
 327   0.0000       0.937877        25.5209 
 328   0.0000       0.956106        26.0170 
 329   0.0000       0.971620        26.4391 
 330   0.0000       1.004077        27.3223 
 331   0.0000       1.024368        27.8745 
 332   0.0000       1.028363        27.9832 
 333   0.0000       1.124255        30.5925 
 334   0.0000       1.156809        31.4784 
 335   0.0000       1.188991        32.3541 
 336   0.0000       1.196364        32.5547 
 337   0.0000       1.201295        32.6889 
 338   0.0000       1.213298        33.0155 
 339   0.0000       1.218986        33.1703 
 340   0.0000       1.240322        33.7509 
 341   0.0000       1.257053        34.2061 
 342   0.0000       1.268398        34.5149 
 343   0.0000       1.273257        34.6471 
 344   0.0000       1.283396        34.9230 
 345   0.0000       1.285235        34.9730 
 346   0.0000       1.296604        35.2824 
 347   0.0000       1.298867        35.3440 
 348   0.0000       1.305389        35.5215 
 349   0.0000       1.321007        35.9464 
 350   0.0000       1.323162        36.0051 
 351   0.0000       1.329452        36.1762 
 352   0.0000       1.331118        36.2216 
 353   0.0000       1.336567        36.3698 
 354   0.0000       1.339208        36.4417 
 355   0.0000       1.341831        36.5131 
 356   0.0000       1.368007        37.2254 
 357   0.0000       1.384428        37.6722 
 358   0.0000       1.385488        37.7010 
 359   0.0000       1.394191        37.9379 
 360   0.0000       1.395412        37.9711 
 361   0.0000       1.398659        38.0594 
 362   0.0000       1.403379        38.1879 
 363   0.0000       1.405427        38.2436 
 364   0.0000       1.412579        38.4382 
 365   0.0000       1.416945        38.5570 
 366   0.0000       1.418630        38.6029 
 367   0.0000       1.427267        38.8379 
 368   0.0000       1.427930        38.8559 
 369   0.0000       1.429572        38.9006 
 370   0.0000       1.434005        39.0212 
 371   0.0000       1.441118        39.2148 
 372   0.0000       1.442901        39.2633 
 373   0.0000       1.443829        39.2886 
 374   0.0000       1.446151        39.3518 
 375   0.0000       1.449473        39.4422 
 376   0.0000       1.453434        39.5499 
 377   0.0000       1.454706        39.5846 
 378   0.0000       1.456562        39.6351 
 379   0.0000       1.458609        39.6908 
 380   0.0000       1.460392        39.7393 
 381   0.0000       1.463797        39.8319 
 382   0.0000       1.465775        39.8858 
 383   0.0000       1.471546        40.0428 
 384   0.0000       1.474447        40.1217 
 385   0.0000       1.476718        40.1835 
 386   0.0000       1.477355        40.2009 
 387   0.0000       1.479738        40.2657 
 388   0.0000       1.481695        40.3190 
 389   0.0000       1.482906        40.3519 
 390   0.0000       1.484036        40.3827 
 391   0.0000       1.486225        40.4422 
 392   0.0000       1.487495        40.4768 
 393   0.0000       1.487745        40.4836 
 394   0.0000       1.488128        40.4940 
 395   0.0000       1.492337        40.6086 
 396   0.0000       1.493822        40.6490 
 397   0.0000       1.494394        40.6645 
 398   0.0000       1.495970        40.7074 
 399   0.0000       1.496764        40.7290 
 400   0.0000       1.499462        40.8024 
 401   0.0000       1.499656        40.8077 
 402   0.0000       1.501285        40.8520 
 403   0.0000       1.504030        40.9267 
 404   0.0000       1.505756        40.9737 
 405   0.0000       1.506457        40.9928 
 406   0.0000       1.508403        41.0457 
 407   0.0000       1.509393        41.0727 
 408   0.0000       1.510413        41.1004 
 409   0.0000       1.510465        41.1018 
 410   0.0000       1.511905        41.1410 
 411   0.0000       1.513327        41.1797 
 412   0.0000       1.515857        41.2486 
 413   0.0000       1.516570        41.2680 
 414   0.0000       1.516930        41.2778 
 415   0.0000       1.518075        41.3089 
 416   0.0000       1.518884        41.3309 
 417   0.0000       1.519729        41.3539 
 418   0.0000       1.523333        41.4520 
 419   0.0000       1.523977        41.4695 
 420   0.0000       1.525633        41.5146 
 421   0.0000       1.526777        41.5457 
 422   0.0000       1.527111        41.5548 
 423   0.0000       1.531176        41.6654 
 424   0.0000       1.531906        41.6853 
 425   0.0000       1.535841        41.7924 
 426   0.0000       1.537094        41.8265 
 427   0.0000       1.540343        41.9149 
 428   0.0000       1.543749        42.0075 
 429   0.0000       1.544491        42.0277 
 430   0.0000       1.545718        42.0611 
 431   0.0000       1.548612        42.1399 
 432   0.0000       1.554222        42.2925 
 433   0.0000       1.555006        42.3139 
 434   0.0000       1.556500        42.3545 
 435   0.0000       1.559648        42.4402 
 436   0.0000       1.563968        42.5577 
 437   0.0000       1.564269        42.5659 
 438   0.0000       1.568753        42.6879 
 439   0.0000       1.569775        42.7158 
 440   0.0000       1.570028        42.7226 
 441   0.0000       1.573573        42.8191 
 442   0.0000       1.574999        42.8579 
 443   0.0000       1.578758        42.9602 
 444   0.0000       1.580673        43.0123 
 445   0.0000       1.585721        43.1497 
 446   0.0000       1.587616        43.2012 
 447   0.0000       1.587964        43.2107 
 448   0.0000       1.590015        43.2665 
 449   0.0000       1.590294        43.2741 
 450   0.0000       1.595000        43.4022 
 451   0.0000       1.598519        43.4979 
 452   0.0000       1.602183        43.5976 
 453   0.0000       1.606164        43.7059 
 454   0.0000       1.606328        43.7104 
 455   0.0000       1.612953        43.8907 
 456   0.0000       1.613884        43.9160 
 457   0.0000       1.614492        43.9326 
 458   0.0000       1.616066        43.9754 
 459   0.0000       1.616653        43.9914 
 460   0.0000       1.620629        44.0995 
 461   0.0000       1.625156        44.2227 
 462   0.0000       1.629362        44.3372 
 463   0.0000       1.630025        44.3552 
 464   0.0000       1.641853        44.6771 
 465   0.0000       1.642785        44.7024 
 466   0.0000       1.645447        44.7749 
 467   0.0000       1.652275        44.9607 
 468   0.0000       1.660930        45.1962 
 469   0.0000       1.666976        45.3607 
 470   0.0000       1.667659        45.3793 
 471   0.0000       1.685633        45.8684 
 472   0.0000       1.693915        46.0938 
 473   0.0000       1.698613        46.2216 
 474   0.0000       1.702219        46.3197 
 475   0.0000       1.709888        46.5284 
 476   0.0000       1.721307        46.8391 
 477   0.0000       1.725236        46.9461 
 478   0.0000       1.736175        47.2437 
 479   0.0000       1.737386        47.2767 
 480   0.0000       1.750476        47.6329 
 481   0.0000       1.762488        47.9597 
 482   0.0000       1.769469        48.1497 
 483   0.0000       1.771222        48.1974 
 484   0.0000       1.774420        48.2844 
 485   0.0000       1.780226        48.4424 
 486   0.0000       1.785637        48.5896 
 487   0.0000       1.792974        48.7893 
 488   0.0000       1.794214        48.8230 
 489   0.0000       1.803881        49.0861 
 490   0.0000       1.805714        49.1360 
 491   0.0000       1.810980        49.2793 
 492   0.0000       1.818247        49.4770 
 493   0.0000       1.827158        49.7195 
 494   0.0000       1.850376        50.3513 
 495   0.0000       1.852793        50.4171 
 496   0.0000       1.853287        50.4305 
 497   0.0000       1.868489        50.8442 
 498   0.0000       1.881112        51.1877 
 499   0.0000       1.901837        51.7516 
 500   0.0000       1.920735        52.2658 
 501   0.0000       1.930492        52.5314 
 502   0.0000       1.946992        52.9804 
 503   0.0000       2.083379        56.6916 
 504   0.0000       2.090340        56.8810 
 505   0.0000       2.149444        58.4894 
 506   0.0000       2.207940        60.0811 
 507   0.0000       2.253978        61.3339 
 508   0.0000       2.263149        61.5834 
 509   0.0000       2.275230        61.9122 
 510   0.0000       2.343476        63.7692 
 511   0.0000       2.411388        65.6172 
 512   0.0000       2.432957        66.2041 
 513   0.0000       2.440664        66.4138 
 514   0.0000       2.459096        66.9154 
 515   0.0000       2.462058        66.9960 
 516   0.0000       2.474685        67.3396 
 517   0.0000       2.496641        67.9371 
 518   0.0000       2.504480        68.1504 
 519   0.0000       2.518761        68.5390 
 520   0.0000       2.559374        69.6441 
 521   0.0000       2.564936        69.7955 
 522   0.0000       3.020477        82.1914 
 523   0.0000       3.244068        88.2756 
 524   0.0000       3.244103        88.2765 
 525   0.0000       3.248773        88.4036 
 526   0.0000       3.252225        88.4975 
 527   0.0000       3.254699        88.5649 
 528   0.0000       3.261649        88.7540 
 529   0.0000       3.262017        88.7640 
 530   0.0000       3.355863        91.3177 
 531   0.0000       3.382554        92.0440 
 532   0.0000       3.423968        93.1709 
 533   0.0000       3.449067        93.8539 
 534   0.0000       3.479299        94.6765 
 535   0.0000      23.719335       645.4359 
 536   0.0000      23.845727       648.8752 
 537   0.0000      24.012552       653.4148 
 538   0.0000      24.157072       657.3474 
 539   0.0000      24.360614       662.8860 
 540   0.0000      24.482724       666.2088 
 541   0.0000      24.584166       668.9692 
 542   0.0000      24.754239       673.5971 
 543   0.0000      24.769483       674.0119 
 544   0.0000      25.085503       682.6113 
 545   0.0000      25.207134       685.9210 
 546   0.0000      25.363265       690.1695 
 547   0.0000      25.418709       691.6782 
 548   0.0000      25.441854       692.3080 
 549   0.0000      25.696545       699.2385 
 550   0.0000      25.773820       701.3413 
 551   0.0000      25.901764       704.8228 
 552   0.0000      25.949529       706.1226 
 553   0.0000      26.037898       708.5272 
 554   0.0000      26.252825       714.3757 
 555   0.0000      26.315126       716.0710 
 556   0.0000      26.388407       718.0651 
 557   0.0000      26.451158       719.7726 
 558   0.0000      26.469562       720.2734 
 559   0.0000      26.492889       720.9081 
 560   0.0000      26.693009       726.3537 
 561   0.0000      26.756691       728.0866 
 562   0.0000      26.810723       729.5569 
 563   0.0000      26.873550       731.2665 
 564   0.0000      27.090195       737.1617 
 565   0.0000      27.148838       738.7574 
 566   0.0000      27.160093       739.0637 
 567   0.0000      27.460511       747.2385 
 568   0.0000      27.531421       749.1680 
 569   0.0000      27.628624       751.8131 
 570   0.0000      27.713463       754.1217 
 571   0.0000      28.013005       762.2726 
 572   0.0000      28.097939       764.5838 
 573   0.0000      28.674170       780.2638 
 574   0.0000      29.415536       800.4374 
 575   0.0000      30.460962       828.8849 
 576   0.0000      31.229853       849.8075 
 577   0.0000      43.890422      1194.3191 
 578   0.0000      43.988008      1196.9746 
 579   0.0000      44.039805      1198.3840 
 580   0.0000      44.048366      1198.6170 
 581   0.0000      44.071229      1199.2391 
 582   0.0000      44.109640      1200.2843 
 583   0.0000      44.133546      1200.9348 
 584   0.0000      44.142273      1201.1723 
 585   0.0000      44.153233      1201.4706 
 586   0.0000      44.173310      1202.0169 
 587   0.0000      44.176976      1202.1166 
 588   0.0000      44.208838      1202.9837 
 589   0.0000      44.241126      1203.8622 
 590   0.0000      44.265845      1204.5349 
 591   0.0000     205.084693      5580.6382 
 592   0.0000     205.123935      5581.7060 
 593   0.0000     205.144474      5582.2649 
 594   0.0000     205.149249      5582.3949 
 595   0.0000     205.159589      5582.6762 
 596   0.0000     205.176649      5583.1405 
 597   0.0000     205.190995      5583.5308 
 598   0.0000     205.191097      5583.5336 
 599   0.0000     205.193276      5583.5929 
 600   0.0000     205.204078      5583.8868 
 601   0.0000     205.204690      5583.9035 
 602   0.0000     205.214807      5584.1788 
 603   0.0000     205.229004      5584.5651 
 604   0.0000     205.230384      5584.6027 

                 SPIN DOWN ORBITALS
  NO   OCC          E(Eh)            E(eV) 
   0   1.0000    -234.201570     -6372.9487 
   1   1.0000     -26.828338      -730.0362 
   2   1.0000     -22.994554      -625.7136 
   3   1.0000     -22.992374      -625.6543 
   4   1.0000     -22.991959      -625.6430 
   5   1.0000      -4.042449      -110.0006 
   6   1.0000      -4.032200      -109.7217 
   7   1.0000      -4.031732      -109.7090 
   8   1.0000      -4.030870      -109.6856 
   9   1.0000      -4.030805      -109.6838 
  10   1.0000      -4.030164      -109.6663 
  11   1.0000      -4.025072      -109.5278 
  12   1.0000      -4.024851      -109.5218 
  13   1.0000      -4.024664      -109.5167 
  14   1.0000      -4.024543      -109.5134 
  15   1.0000      -4.024066      -109.5004 
  16   1.0000      -4.023864      -109.4949 
  17   1.0000      -4.023012      -109.4717 
  18   1.0000      -4.022960      -109.4703 
  19   1.0000      -2.941971       -80.0551 
  20   1.0000      -2.257359       -61.4259 
  21   1.0000      -2.256259       -61.3959 
  22   1.0000      -2.252931       -61.3054 
  23   1.0000      -2.250740       -61.2458 
  24   1.0000      -2.249900       -61.2229 
  25   1.0000      -2.246824       -61.1392 
  26   1.0000      -2.246785       -61.1381 
  27   1.0000      -2.245730       -61.1094 
  28   1.0000      -2.243932       -61.0605 
  29   1.0000      -2.243853       -61.0584 
  30   1.0000      -2.243428       -61.0468 
  31   1.0000      -2.242944       -61.0336 
  32   1.0000      -2.242494       -61.0214 
  33   1.0000      -2.242098       -61.0106 
  34   1.0000      -2.241693       -60.9996 
  35   1.0000      -2.241104       -60.9836 
  36   1.0000      -2.240957       -60.9795 
  37   1.0000      -2.240749       -60.9739 
  38   1.0000      -2.239814       -60.9484 
  39   1.0000      -2.239302       -60.9345 
  40   1.0000      -2.238993       -60.9261 
  41   1.0000      -2.238716       -60.9186 
  42   1.0000      -2.238566       -60.9145 
  43   1.0000      -2.238414       -60.9103 
  44   1.0000      -2.237874       -60.8956 
  45   1.0000      -2.237497       -60.8854 
  46   1.0000      -2.237371       -60.8820 
  47   1.0000      -2.237246       -60.8786 
  48   1.0000      -2.237204       -60.8774 
  49   1.0000      -2.237020       -60.8724 
  50   1.0000      -2.236760       -60.8653 
  51   1.0000      -2.236708       -60.8639 
  52   1.0000      -2.236381       -60.8550 
  53   1.0000      -2.236082       -60.8469 
  54   1.0000      -2.235967       -60.8437 
  55   1.0000      -2.235679       -60.8359 
  56   1.0000      -2.235205       -60.8230 
  57   1.0000      -2.234808       -60.8122 
  58   1.0000      -2.234162       -60.7946 
  59   1.0000      -2.234075       -60.7923 
  60   1.0000      -2.232928       -60.7611 
  61   1.0000      -2.232881       -60.7598 
  62   1.0000      -1.849781       -50.3351 
  63   1.0000      -1.846936       -50.2577 
  64   1.0000      -1.846456       -50.2446 
  65   1.0000      -0.428091       -11.6489 
  66   1.0000      -0.391954       -10.6656 
  67   1.0000      -0.386405       -10.5146 
  68   1.0000      -0.385118       -10.4796 
  69   1.0000      -0.375001       -10.2043 
  70   1.0000      -0.370377       -10.0785 
  71   1.0000      -0.365968        -9.9585 
  72   1.0000      -0.363450        -9.8900 
  73   1.0000      -0.360110        -9.7991 
  74   1.0000      -0.360025        -9.7968 
  75   1.0000      -0.358545        -9.7565 
  76   1.0000      -0.352981        -9.6051 
  77   1.0000      -0.352041        -9.5795 
  78   1.0000      -0.350961        -9.5501 
  79   1.0000      -0.348803        -9.4914 
  80   1.0000      -0.347759        -9.4630 
  81   1.0000      -0.345405        -9.3989 
  82   1.0000      -0.342851        -9.3295 
  83   1.0000      -0.339778        -9.2458 
  84   1.0000      -0.338028        -9.1982 
  85   1.0000      -0.334718        -9.1081 
  86   1.0000      -0.332225        -9.0403 
  87   1.0000      -0.327385        -8.9086 
  88   1.0000      -0.326414        -8.8822 
  89   1.0000      -0.326084        -8.8732 
  90   1.0000      -0.323935        -8.8147 
  91   1.0000      -0.320012        -8.7080 
  92   1.0000      -0.317538        -8.6407 
  93   1.0000      -0.316064        -8.6005 
  94   1.0000      -0.313546        -8.5320 
  95   1.0000      -0.310138        -8.4393 
  96   1.0000      -0.308232        -8.3874 
  97   1.0000      -0.306123        -8.3300 
  98   1.0000      -0.304741        -8.2924 
  99   1.0000      -0.297594        -8.0979 
 100   1.0000      -0.297305        -8.0901 
 101   1.0000      -0.294364        -8.0101 
 102   1.0000      -0.294200        -8.0056 
 103   1.0000      -0.290158        -7.8956 
 104   1.0000      -0.288921        -7.8619 
 105   1.0000      -0.286129        -7.7860 
 106   1.0000      -0.285761        -7.7760 
 107   1.0000      -0.284965        -7.7543 
 108   1.0000      -0.280929        -7.6445 
 109   1.0000      -0.279357        -7.6017 
 110   1.0000      -0.279157        -7.5962 
 111   1.0000      -0.277234        -7.5439 
 112   1.0000      -0.276406        -7.5214 
 113   1.0000      -0.274821        -7.4782 
 114   1.0000      -0.272663        -7.4195 
 115   1.0000      -0.271259        -7.3813 
 116   1.0000      -0.269682        -7.3384 
 117   1.0000      -0.269494        -7.3333 
 118   1.0000      -0.268698        -7.3116 
 119   1.0000      -0.267905        -7.2901 
 120   1.0000      -0.267640        -7.2829 
 121   1.0000      -0.265225        -7.2171 
 122   1.0000      -0.264224        -7.1899 
 123   1.0000      -0.260577        -7.0906 
 124   1.0000      -0.258931        -7.0459 
 125   1.0000      -0.256452        -6.9784 
 126   1.0000      -0.255692        -6.9577 
 127   1.0000      -0.255383        -6.9493 
 128   1.0000      -0.253851        -6.9076 
 129   1.0000      -0.251821        -6.8524 
 130   1.0000      -0.250468        -6.8156 
 131   1.0000      -0.250106        -6.8057 
 132   1.0000      -0.248223        -6.7545 
 133   1.0000      -0.247612        -6.7379 
 134   1.0000      -0.245203        -6.6723 
 135   1.0000      -0.244356        -6.6493 
 136   1.0000      -0.243384        -6.6228 
 137   1.0000      -0.242303        -6.5934 
 138   1.0000      -0.229966        -6.2577 
 139   1.0000      -0.221228        -6.0199 
 140   1.0000      -0.212951        -5.7947 
 141   1.0000      -0.205200        -5.5838 
 142   1.0000      -0.204610        -5.5677 
 143   0.0000      -0.177081        -4.8186 
 144   0.0000      -0.148624        -4.0443 
 145   0.0000      -0.145345        -3.9550 
 146   0.0000      -0.141448        -3.8490 
 147   0.0000      -0.129004        -3.5104 
 148   0.0000      -0.128109        -3.4860 
 149   0.0000      -0.121805        -3.3145 
 150   0.0000      -0.118841        -3.2338 
 151   0.0000      -0.116833        -3.1792 
 152   0.0000      -0.110414        -3.0045 
 153   0.0000      -0.109582        -2.9819 
 154   0.0000      -0.103679        -2.8212 
 155   0.0000      -0.070505        -1.9185 
 156   0.0000      -0.066702        -1.8150 
 157   0.0000      -0.064410        -1.7527 
 158   0.0000      -0.063600        -1.7307 
 159   0.0000      -0.053207        -1.4478 
 160   0.0000      -0.035686        -0.9711 
 161   0.0000      -0.033307        -0.9063 
 162   0.0000      -0.026408        -0.7186 
 163   0.0000      -0.020249        -0.5510 
 164   0.0000      -0.009454        -0.2572 
 165   0.0000       0.006190         0.1684 
 166   0.0000       0.008213         0.2235 
 167   0.0000       0.020746         0.5645 
 168   0.0000       0.021394         0.5822 
 169   0.0000       0.029415         0.8004 
 170   0.0000       0.033298         0.9061 
 171   0.0000       0.038516         1.0481 
 172   0.0000       0.040190         1.0936 
 173   0.0000       0.042939         1.1684 
 174   0.0000       0.050138         1.3643 
 175   0.0000       0.061998         1.6871 
 176   0.0000       0.062879         1.7110 
 177   0.0000       0.063353         1.7239 
 178   0.0000       0.066958         1.8220 
 179   0.0000       0.069220         1.8836 
 180   0.0000       0.072296         1.9673 
 181   0.0000       0.074584         2.0295 
 182   0.0000       0.083002         2.2586 
 183   0.0000       0.087192         2.3726 
 184   0.0000       0.087435         2.3792 
 185   0.0000       0.094772         2.5789 
 186   0.0000       0.096119         2.6155 
 187   0.0000       0.107576         2.9273 
 188   0.0000       0.111607         3.0370 
 189   0.0000       0.117452         3.1960 
 190   0.0000       0.124358         3.3840 
 191   0.0000       0.133630         3.6363 
 192   0.0000       0.135544         3.6884 
 193   0.0000       0.137125         3.7314 
 194   0.0000       0.144092         3.9209 
 195   0.0000       0.149804         4.0764 
 196   0.0000       0.153226         4.1695 
 197   0.0000       0.163163         4.4399 
 198   0.0000       0.163727         4.4552 
 199   0.0000       0.168631         4.5887 
 200   0.0000       0.170959         4.6520 
 201   0.0000       0.177320         4.8251 
 202   0.0000       0.178222         4.8497 
 203   0.0000       0.180385         4.9085 
 204   0.0000       0.185694         5.0530 
 205   0.0000       0.186571         5.0768 
 206   0.0000       0.200399         5.4531 
 207   0.0000       0.202460         5.5092 
 208   0.0000       0.203819         5.5462 
 209   0.0000       0.212569         5.7843 
 210   0.0000       0.216284         5.8854 
 211   0.0000       0.220430         5.9982 
 212   0.0000       0.227249         6.1838 
 213   0.0000       0.227723         6.1967 
 214   0.0000       0.229228         6.2376 
 215   0.0000       0.236365         6.4318 
 216   0.0000       0.240357         6.5404 
 217   0.0000       0.242264         6.5923 
 218   0.0000       0.253018         6.8850 
 219   0.0000       0.257263         7.0005 
 220   0.0000       0.262221         7.1354 
 221   0.0000       0.264971         7.2102 
 222   0.0000       0.270090         7.3495 
 223   0.0000       0.279667         7.6101 
 224   0.0000       0.282115         7.6767 
 225   0.0000       0.287949         7.8355 
 226   0.0000       0.288635         7.8542 
 227   0.0000       0.295901         8.0519 
 228   0.0000       0.296499         8.0682 
 229   0.0000       0.305682         8.3180 
 230   0.0000       0.312154         8.4941 
 231   0.0000       0.313048         8.5185 
 232   0.0000       0.315062         8.5733 
 233   0.0000       0.319918         8.7054 
 234   0.0000       0.321479         8.7479 
 235   0.0000       0.327766         8.9190 
 236   0.0000       0.331072         9.0089 
 237   0.0000       0.331573         9.0226 
 238   0.0000       0.340229         9.2581 
 239   0.0000       0.341395         9.2898 
 240   0.0000       0.345277         9.3955 
 241   0.0000       0.355515         9.6741 
 242   0.0000       0.356257         9.6942 
 243   0.0000       0.359038         9.7699 
 244   0.0000       0.360296         9.8042 
 245   0.0000       0.371494        10.1089 
 246   0.0000       0.380782        10.3616 
 247   0.0000       0.384437        10.4611 
 248   0.0000       0.387244        10.5375 
 249   0.0000       0.397671        10.8212 
 250   0.0000       0.399873        10.8811 
 251   0.0000       0.409025        11.1301 
 252   0.0000       0.409726        11.1492 
 253   0.0000       0.415066        11.2945 
 254   0.0000       0.418082        11.3766 
 255   0.0000       0.421362        11.4658 
 256   0.0000       0.427230        11.6255 
 257   0.0000       0.429361        11.6835 
 258   0.0000       0.435600        11.8533 
 259   0.0000       0.440287        11.9808 
 260   0.0000       0.446563        12.1516 
 261   0.0000       0.451717        12.2919 
 262   0.0000       0.453625        12.3438 
 263   0.0000       0.465675        12.6717 
 264   0.0000       0.466009        12.6808 
 265   0.0000       0.471371        12.8267 
 266   0.0000       0.473965        12.8972 
 267   0.0000       0.478282        13.0147 
 268   0.0000       0.479739        13.0544 
 269   0.0000       0.480662        13.0795 
 270   0.0000       0.483063        13.1448 
 271   0.0000       0.485632        13.2147 
 272   0.0000       0.492667        13.4062 
 273   0.0000       0.501273        13.6403 
 274   0.0000       0.506549        13.7839 
 275   0.0000       0.508221        13.8294 
 276   0.0000       0.511976        13.9316 
 277   0.0000       0.513698        13.9784 
 278   0.0000       0.517544        14.0831 
 279   0.0000       0.518626        14.1125 
 280   0.0000       0.529998        14.4220 
 281   0.0000       0.532659        14.4944 
 282   0.0000       0.536178        14.5901 
 283   0.0000       0.538994        14.6668 
 284   0.0000       0.540695        14.7131 
 285   0.0000       0.545233        14.8365 
 286   0.0000       0.548095        14.9144 
 287   0.0000       0.554141        15.0789 
 288   0.0000       0.559491        15.2245 
 289   0.0000       0.591221        16.0879 
 290   0.0000       0.599331        16.3086 
 291   0.0000       0.630095        17.1458 
 292   0.0000       0.647340        17.6150 
 293   0.0000       0.669027        18.2051 
 294   0.0000       0.674669        18.3587 
 295   0.0000       0.682864        18.5817 
 296   0.0000       0.687157        18.6985 
 297   0.0000       0.691249        18.8098 
 298   0.0000       0.694888        18.9089 
 299   0.0000       0.708165        19.2701 
 300   0.0000       0.726871        19.7792 
 301   0.0000       0.729483        19.8502 
 302   0.0000       0.738784        20.1033 
 303   0.0000       0.746872        20.3234 
 304   0.0000       0.761744        20.7281 
 305   0.0000       0.766830        20.8665 
 306   0.0000       0.776951        21.1419 
 307   0.0000       0.790474        21.5099 
 308   0.0000       0.791682        21.5428 
 309   0.0000       0.794161        21.6102 
 310   0.0000       0.807431        21.9713 
 311   0.0000       0.808502        22.0005 
 312   0.0000       0.840955        22.8836 
 313   0.0000       0.842864        22.9355 
 314   0.0000       0.845817        23.0159 
 315   0.0000       0.864822        23.5330 
 316   0.0000       0.870596        23.6901 
 317   0.0000       0.880445        23.9581 
 318   0.0000       0.882636        24.0177 
 319   0.0000       0.888418        24.1751 
 320   0.0000       0.896800        24.4032 
 321   0.0000       0.898209        24.4415 
[...]
      f-1     :     0.000838
      f+2     :     0.001078
      f-2     :     0.001097
      f+3     :     0.000843
      f-3     :     0.001277
  5 Aus       :     2.644797  s :     2.644797
      pz      :     2.112940  p :     6.374209
      px      :     2.112857
      py      :     2.148411
      dz2     :     1.977262  d :     9.887736
      dxz     :     1.979523
      dyz     :     1.972900
      dx2y2   :     1.990475
      dxy     :     1.967576
      f0      :     0.000569  f :     0.005149
      f+1     :     0.000750
      f-1     :     0.000488
      f+2     :     0.000816
      f-2     :     0.000724
      f+3     :     0.000880
      f-3     :     0.000922
  6 Aus       :     2.617147  s :     2.617147
      pz      :     2.153966  p :     6.440272
      px      :     2.166618
      py      :     2.119688
      dz2     :     1.962923  d :     9.851157
      dxz     :     1.995079
      dyz     :     1.973657
      dx2y2   :     1.971669
      dxy     :     1.947828
      f0      :     0.000481  f :     0.004972
      f+1     :     0.000850
      f-1     :     0.000626
      f+2     :     0.000613
      f-2     :     0.000542
      f+3     :     0.001101
      f-3     :     0.000759
  7 Aus       :     2.519074  s :     2.519074
      pz      :     2.115359  p :     6.584302
      px      :     2.249500
      py      :     2.219443
      dz2     :     1.948329  d :     9.886386
      dxz     :     1.982543
      dyz     :     1.997959
      dx2y2   :     1.985264
      dxy     :     1.972291
      f0      :     0.000847  f :     0.006329
      f+1     :     0.000867
      f-1     :     0.000726
      f+2     :     0.001001
      f-2     :     0.000899
      f+3     :     0.000783
      f-3     :     0.001206
  8 Aus       :     2.616154  s :     2.616154
      pz      :     2.132095  p :     6.460814
      px      :     2.106416
      py      :     2.222304
      dz2     :     1.970560  d :     9.852239
      dxz     :     1.956410
      dyz     :     1.976101
      dx2y2   :     1.950710
      dxy     :     1.998459
      f0      :     0.000528  f :     0.005007
      f+1     :     0.000603
      f-1     :     0.000625
      f+2     :     0.000689
      f-2     :     0.000814
      f+3     :     0.000971
      f-3     :     0.000778
  9 Aus       :     2.559400  s :     2.559400
      pz      :     2.164263  p :     6.500401
      px      :     2.205633
      py      :     2.130506
      dz2     :     1.990646  d :     9.881320
      dxz     :     1.977100
      dyz     :     1.958688
      dx2y2   :     1.966542
      dxy     :     1.988345
      f0      :     0.000902  f :     0.005889
      f+1     :     0.001104
      f-1     :     0.000662
      f+2     :     0.000751
      f-2     :     0.000620
      f+3     :     0.000816
      f-3     :     0.001034
 10 Aus       :     2.601944  s :     2.601944
      pz      :     2.150552  p :     6.439402
      px      :     2.152982
      py      :     2.135869
      dz2     :     1.976946  d :     9.843969
      dxz     :     1.977811
      dyz     :     1.944260
      dx2y2   :     1.978330
      dxy     :     1.966621
      f0      :     0.000813  f :     0.005504
      f+1     :     0.001178
      f-1     :     0.000748
      f+2     :     0.000678
      f-2     :     0.000604
      f+3     :     0.000561
      f-3     :     0.000922
 11 Aus       :     2.619168  s :     2.619168
      pz      :     2.089679  p :     6.439430
      px      :     2.153682
      py      :     2.196069
      dz2     :     1.939468  d :     9.850577
      dxz     :     1.981319
      dyz     :     1.981401
      dx2y2   :     1.976321
      dxy     :     1.972068
      f0      :     0.000684  f :     0.004967
      f+1     :     0.000651
      f-1     :     0.000713
      f+2     :     0.000697
      f-2     :     0.000919
      f+3     :     0.000475
      f-3     :     0.000828
 12 Aus       :     2.615275  s :     2.615275
      pz      :     2.203914  p :     6.462013
      px      :     2.160505
      py      :     2.097594
      dz2     :     1.970013  d :     9.853458
      dxz     :     1.982393
      dyz     :     1.974095
      dx2y2   :     1.977556
      dxy     :     1.949401
      f0      :     0.000764  f :     0.005026
      f+1     :     0.000917
      f-1     :     0.000586
      f+2     :     0.000714
      f-2     :     0.000782
      f+3     :     0.000700
      f-3     :     0.000563
 13 Aus       :     2.517493  s :     2.517493
      pz      :     2.214444  p :     6.585046
      px      :     2.277229
      py      :     2.093372
      dz2     :     1.976981  d :     9.887218
      dxz     :     1.982304
      dyz     :     1.991759
      dx2y2   :     1.954752
      dxy     :     1.981422
      f0      :     0.000630  f :     0.006311
      f+1     :     0.001184
      f-1     :     0.000779
      f+2     :     0.000876
      f-2     :     0.000712
      f+3     :     0.001086
      f-3     :     0.001044
 14 Mns       :     6.266213  s :     6.266213
      pz      :     4.199497  p :    12.577341
      px      :     4.175056
      py      :     4.202788
      dz2     :     1.328249  d :     6.684663
      dxz     :     1.298923
      dyz     :     1.407335
      dx2y2   :     1.297799
      dxy     :     1.352357
      f0      :     0.000173  f :     0.000911
      f+1     :     0.000092
      f-1     :     0.000136
      f+2     :     0.000142
      f-2     :     0.000117
      f+3     :     0.000158
      f-3     :     0.000093

SPIN
  0 Aus       :    -0.076191  s :    -0.076191
      pz      :     0.002448  p :    -0.009345
      px      :    -0.001403
      py      :    -0.010389
      dz2     :    -0.003937  d :    -0.006382
      dxz     :    -0.013345
      dyz     :    -0.000260
      dx2y2   :     0.005433
      dxy     :     0.005727
      f0      :     0.000016  f :     0.000130
      f+1     :     0.000002
      f-1     :     0.000011
      f+2     :     0.000002
      f-2     :     0.000005
      f+3     :     0.000063
      f-3     :     0.000031
  1 Aus       :     0.020470  s :     0.020470
      pz      :    -0.016161  p :    -0.028470
      px      :     0.000142
      py      :    -0.012451
      dz2     :    -0.000990  d :    -0.019950
      dxz     :    -0.004603
      dyz     :    -0.003955
      dx2y2   :    -0.002224
      dxy     :    -0.008178
      f0      :    -0.000004  f :    -0.000089
      f+1     :     0.000004
      f-1     :    -0.000039
      f+2     :     0.000006
      f-2     :    -0.000039
      f+3     :    -0.000001
      f-3     :    -0.000017
  2 Aus       :    -0.077404  s :    -0.077404
      pz      :    -0.016661  p :    -0.008385
      px      :     0.004265
      py      :     0.004011
      dz2     :     0.001149  d :    -0.005936
      dxz     :     0.004247
      dyz     :    -0.002677
      dx2y2   :    -0.006658
      dxy     :    -0.001998
      f0      :    -0.000004  f :     0.000138
      f+1     :     0.000032
      f-1     :    -0.000003
      f+2     :     0.000057
      f-2     :     0.000039
      f+3     :     0.000021
      f-3     :    -0.000004
  3 Aus       :     0.021464  s :     0.021464
      pz      :    -0.002968  p :    -0.048136
      px      :    -0.014583
      py      :    -0.030585
      dz2     :    -0.010242  d :    -0.050792
      dxz     :    -0.003959
      dyz     :    -0.024808
      dx2y2   :    -0.005447
      dxy     :    -0.006335
      f0      :    -0.000046  f :    -0.000165
      f+1     :    -0.000017
      f-1     :    -0.000031
      f+2     :     0.000003
      f-2     :    -0.000014
      f+3     :    -0.000004
      f-3     :    -0.000056
  4 Aus       :    -0.064702  s :    -0.064702
      pz      :    -0.010358  p :    -0.030900
      px      :    -0.014548
      py      :    -0.005993
      dz2     :     0.005275  d :     0.027399
      dxz     :     0.006050
      dyz     :     0.008458
      dx2y2   :    -0.001040
      dxy     :     0.008657
      f0      :     0.000020  f :     0.000255
      f+1     :     0.000055
      f-1     :     0.000011
      f+2     :     0.000064
      f-2     :     0.000060
      f+3     :     0.000023
      f-3     :     0.000023
  5 Aus       :     0.021305  s :     0.021305
      pz      :    -0.042870  p :    -0.048618
      px      :    -0.000696
      py      :    -0.005053
      dz2     :    -0.008449  d :    -0.050568
      dxz     :    -0.017151
      dyz     :    -0.015341
      dx2y2   :    -0.002404
      dxy     :    -0.007223
      f0      :    -0.000006  f :    -0.000165
      f+1     :    -0.000060
      f-1     :    -0.000001
      f+2     :     0.000004
      f-2     :    -0.000047
      f+3     :    -0.000030
      f-3     :    -0.000023
  6 Aus       :    -0.034981  s :    -0.034981
      pz      :    -0.037760  p :    -0.067761
      px      :    -0.012819
      py      :    -0.017182
      dz2     :     0.001759  d :     0.012178
      dxz     :     0.000461
      dyz     :     0.001337
      dx2y2   :    -0.002619
      dxy     :     0.011241
      f0      :     0.000012  f :     0.000209
      f+1     :    -0.000028
      f-1     :     0.000025
      f+2     :     0.000007
      f-2     :     0.000040
      f+3     :     0.000124
      f-3     :     0.000029
  7 Aus       :    -0.068232  s :    -0.068232
      pz      :    -0.001543  p :    -0.016664
      px      :    -0.007532
      py      :    -0.007589
      dz2     :     0.011349  d :     0.008507
      dxz     :     0.007046
      dyz     :     0.000939
      dx2y2   :    -0.006832
      dxy     :    -0.003995
      f0      :     0.000142  f :     0.000208
      f+1     :     0.000056
      f-1     :     0.000045
      f+2     :    -0.000016
      f-2     :    -0.000005
      f+3     :    -0.000005
      f-3     :    -0.000009
  8 Aus       :    -0.017950  s :    -0.017950
      pz      :    -0.031407  p :    -0.032205
      px      :     0.000353
      py      :    -0.001151
      dz2     :     0.001142  d :     0.009714
      dxz     :    -0.001445
      dyz     :     0.000339
      dx2y2   :     0.008005
      dxy     :     0.001673
      f0      :     0.000023  f :     0.000202
      f+1     :     0.000037
      f-1     :    -0.000037
      f+2     :     0.000101
      f-2     :    -0.000001
      f+3     :     0.000065
      f-3     :     0.000014
  9 Aus       :     0.005536  s :     0.005536
      pz      :    -0.015605  p :    -0.032081
      px      :    -0.005627
      py      :    -0.010849
      dz2     :    -0.004676  d :    -0.007284
      dxz     :    -0.004595
      dyz     :     0.005725
      dx2y2   :    -0.004147
      dxy     :     0.000410
      f0      :     0.000014  f :     0.000106
      f+1     :    -0.000018
      f-1     :     0.000021
      f+2     :     0.000063
      f-2     :     0.000021
      f+3     :     0.000007
      f-3     :    -0.000003
 10 Aus       :    -0.055982  s :    -0.055982
      pz      :    -0.036107  p :    -0.096341
      px      :    -0.041370
      py      :    -0.018864
      dz2     :    -0.013646  d :    -0.002431
      dxz     :    -0.001691
      dyz     :     0.011885
      dx2y2   :     0.005352
      dxy     :    -0.004332
      f0      :     0.000005  f :     0.000182
      f+1     :    -0.000024
      f-1     :     0.000056
      f+2     :     0.000113
      f-2     :     0.000025
      f+3     :     0.000011
      f-3     :    -0.000004
 11 Aus       :    -0.032388  s :    -0.032388
      pz      :    -0.004654  p :    -0.067639
      px      :    -0.032938
      py      :    -0.030047
      dz2     :     0.012556  d :     0.012371
      dxz     :     0.001761
      dyz     :    -0.000257
      dx2y2   :    -0.001102
      dxy     :    -0.000587
      f0      :     0.000167  f :     0.000208
      f+1     :     0.000047
      f-1     :     0.000091
      f+2     :    -0.000013
      f-2     :     0.000010
      f+3     :    -0.000026
      f-3     :    -0.000067
 12 Aus       :    -0.017209  s :    -0.017209
      pz      :    -0.001977  p :    -0.032357
      px      :    -0.012116
      py      :    -0.018265
      dz2     :     0.001477  d :     0.008251
      dxz     :    -0.002282
      dyz     :     0.003905
      dx2y2   :    -0.001126
      dxy     :     0.006277
      f0      :     0.000006  f :     0.000183
      f+1     :    -0.000004
      f-1     :     0.000022
      f+2     :    -0.000000
      f-2     :     0.000065
      f+3     :     0.000066
      f-3     :     0.000027
 13 Aus       :    -0.069260  s :    -0.069260
      pz      :    -0.010089  p :    -0.016682
      px      :     0.003831
      py      :    -0.010424
      dz2     :     0.001214  d :     0.008052
      dxz     :    -0.006003
      dyz     :    -0.001104
      dx2y2   :     0.008583
      dxy     :     0.005361
      f0      :     0.000018  f :     0.000204
      f+1     :    -0.000001
      f-1     :     0.000034
      f+2     :     0.000006
      f-2     :     0.000001
      f+3     :     0.000079
      f-3     :     0.000067
 14 Mns       :     0.018861  s :     0.018861
      pz      :     0.009991  p :     0.032088
      px      :     0.011263
      py      :     0.010834
      dz2     :     0.756118  d :     3.985383
      dxz     :     0.794627
      dyz     :     0.794020
      dx2y2   :     0.805345
      dxy     :     0.835274
      f0      :     0.000008  f :     0.000042
      f+1     :     0.000004
      f-1     :     0.000008
      f+2     :     0.000005
      f-2     :     0.000005
      f+3     :     0.000008
      f-3     :     0.000005


                      *****************************
                      * MAYER POPULATION ANALYSIS *
                      *****************************

  NA   - Mulliken gross atomic population
  ZA   - Total nuclear charge
  QA   - Mulliken gross atomic charge
  VA   - Mayer's total valence
  BVA  - Mayer's bonded valence
  FA   - Mayer's free valence

  ATOM       NA         ZA         QA         VA         BVA        FA
  0 Au    19.1207    19.0000    -0.1207     2.0948     2.0623     0.0325
  1 Au    18.7765    19.0000     0.2235     1.5975     1.5938     0.0037
  2 Au    19.1253    19.0000    -0.1253     2.1055     2.0721     0.0334
  3 Au    18.6648    19.0000     0.3352     1.5432     1.5373     0.0059
  4 Au    19.3546    19.0000    -0.3546     2.2369     2.2163     0.0207
  5 Au    18.6593    19.0000     0.3407     1.5401     1.5342     0.0059
  6 Au    18.6857    19.0000     0.3143     1.5095     1.5019     0.0076
  7 Au    18.8998    19.0000     0.1002     1.8936     1.8715     0.0221
  8 Au    18.6507    19.0000     0.3493     1.5576     1.5555     0.0022
  9 Au    18.7546    19.0000     0.2454     1.6549     1.6531     0.0018
 10 Au    18.6392    19.0000     0.3608     1.5560     1.5347     0.0213
 11 Au    18.6867    19.0000     0.3133     1.5066     1.4996     0.0069
 12 Au    18.6518    19.0000     0.3482     1.5614     1.5594     0.0020
 13 Au    18.9030    19.0000     0.0970     1.9019     1.8790     0.0229
 14 Mn    27.4272    25.0000    -2.4272     8.6893     5.1427     3.5466

  Mayer bond orders larger than 0.100000
B(  0-Au,  1-Au) :   0.3139 B(  0-Au,  2-Au) :   0.1945 B(  0-Au,  3-Au) :   0.2882 
B(  0-Au,  6-Au) :   0.1975 B(  0-Au,  7-Au) :   0.1258 B(  0-Au, 10-Au) :   0.2811 
B(  0-Au, 14-Mn) :   0.4229 B(  1-Au,  2-Au) :   0.3110 B(  1-Au,  3-Au) :   0.2195 
B(  1-Au,  4-Au) :   0.2152 B(  1-Au,  5-Au) :   0.2190 B(  2-Au,  5-Au) :   0.2935 
B(  2-Au, 10-Au) :   0.2815 B(  2-Au, 11-Au) :   0.1956 B(  2-Au, 13-Au) :   0.1299 
B(  2-Au, 14-Mn) :   0.4278 B(  3-Au,  4-Au) :   0.3112 B(  3-Au,  7-Au) :   0.3445 
B(  4-Au,  5-Au) :   0.3073 B(  4-Au,  7-Au) :   0.1860 B(  4-Au,  9-Au) :   0.2916 
B(  4-Au, 13-Au) :   0.1917 B(  4-Au, 14-Mn) :   0.4390 B(  5-Au, 13-Au) :   0.3448 
B(  6-Au,  7-Au) :   0.1744 B(  6-Au,  8-Au) :   0.2333 B(  6-Au, 10-Au) :   0.1068 
B(  6-Au, 14-Mn) :   0.5073 B(  7-Au,  8-Au) :   0.2098 B(  7-Au,  9-Au) :   0.1721 
B(  7-Au, 14-Mn) :   0.4299 B(  8-Au,  9-Au) :   0.1558 B(  8-Au, 12-Au) :   0.2287 
B(  8-Au, 14-Mn) :   0.4245 B(  9-Au, 12-Au) :   0.1597 B(  9-Au, 13-Au) :   0.1713 
B(  9-Au, 14-Mn) :   0.4239 B( 10-Au, 11-Au) :   0.1078 B( 10-Au, 14-Mn) :   0.4470 
B( 11-Au, 12-Au) :   0.2348 B( 11-Au, 13-Au) :   0.1706 B( 11-Au, 14-Mn) :   0.5070 
B( 12-Au, 13-Au) :   0.2154 B( 12-Au, 14-Mn) :   0.4183 B( 13-Au, 14-Mn) :   0.4276 


-------
TIMINGS
-------

Total SCF time: 0 days 0 hours 2 min 17 sec 

Total time                  ....     137.124 sec
Sum of individual times     ....     133.322 sec  ( 97.2%)

Fock matrix formation       ....     120.573 sec  ( 87.9%)
  Split-RI-J                ....      39.857 sec  ( 33.1% of F)
  XC integration            ....      79.359 sec  ( 65.8% of F)
    Basis function eval.    ....       8.260 sec  ( 10.4% of XC)
    Density eval.           ....      33.666 sec  ( 42.4% of XC)
    XC-Functional eval.     ....       1.180 sec  (  1.5% of XC)
    XC-Potential eval.      ....      20.763 sec  ( 26.2% of XC)
Diagonalization             ....       8.241 sec  (  6.0%)
Density matrix formation    ....       0.361 sec  (  0.3%)
Population analysis         ....       0.544 sec  (  0.4%)
Initial guess               ....       0.675 sec  (  0.5%)
Orbital Transformation      ....       0.000 sec  (  0.0%)
Orbital Orthonormalization  ....       0.606 sec  (  0.4%)
DIIS solution               ....       0.000 sec  (  0.0%)
Grid generation             ....       2.928 sec  (  2.1%)

Maximum memory used throughout the entire SCF-calculation: 99.8 MB

-------------------------   --------------------
FINAL SINGLE POINT ENERGY     -3052.360867837320
-------------------------   --------------------


                            ***************************************
                            *     ORCA property calculations      *
                            ***************************************

                                    ---------------------
                                    Active property flags
                                    ---------------------
   (+) Dipole Moment


------------------------------------------------------------------------------
                       ORCA ELECTRIC PROPERTIES CALCULATION
------------------------------------------------------------------------------

Dipole Moment Calculation                       ... on
Quadrupole Moment Calculation                   ... off
Polarizability Calculation                      ... off
GBWName                                         ... pbeSP_job2.gbw
Electron density                                ... pbeSP_job2.scfp
The origin for moment calculation is the CENTER OF MASS  = (14.511098, 14.862213 14.216826)

-------------
DIPOLE MOMENT
-------------
                                X             Y             Z
Electronic contribution:    -26.00720       0.42603     -11.97798
Nuclear contribution   :     25.94152      -0.38655      11.91869
                        -----------------------------------------
Total Dipole Moment    :     -0.06568       0.03947      -0.05929
                        -----------------------------------------
Magnitude (a.u.)       :      0.09689
Magnitude (Debye)      :      0.24626



--------------------
Rotational spectrum 
--------------------
 
Rotational constants in cm-1:     0.001136     0.001034     0.000930 
Rotational constants in MHz :    34.062748    30.998246    27.876844 

 Dipole components along the rotational axes: 
x,y,z [a.u.] :    -0.053635     0.004335    -0.080568 
x,y,z [Debye]:    -0.136330     0.011018    -0.204787 

 

Timings for individual modules:

Sum of individual times         ...      160.491 sec (=   2.675 min)
GTO integral calculation        ...       23.109 sec (=   0.385 min)  14.4 %
SCF iterations                  ...      137.382 sec (=   2.290 min)  85.6 %



                             ****ORCA TERMINATED NORMALLY****
TOTAL RUN TIME: 0 days 0 hours 7 minutes 34 seconds 240 msec
