
                                 *****************
                                 * O   R   C   A *
                                 *****************

                                            #,                                       
                                            ###                                      
                                            ####                                     
                                            #####                                    
                                            ######                                   
                                           ########,                                 
                                     ,,################,,,,,                         
                               ,,#################################,,                 
                          ,,##########################################,,             
                       ,#########################################, ''#####,          
                    ,#############################################,,   '####,        
                  ,##################################################,,,,####,       
                ,###########''''           ''''###############################       
              ,#####''   ,,,,##########,,,,          '''####'''          '####       
            ,##' ,,,,###########################,,,                        '##       
           ' ,,###''''                  '''############,,,                           
         ,,##''                                '''############,,,,        ,,,,,,###''
      ,#''                                            '''#######################'''  
     '                                                          ''''####''''         
             ,#######,   #######,   ,#######,      ##                                
            ,#'     '#,  ##    ##  ,#'     '#,    #''#        ######   ,####,        
            ##       ##  ##   ,#'  ##            #'  '#       #        #'  '#        
            ##       ##  #######   ##           ,######,      #####,   #    #        
            '#,     ,#'  ##    ##  '#,     ,#' ,#      #,         ##   #,  ,#        
             '#######'   ##     ##  '#######'  #'      '#     #####' # '####'        



                  #######################################################
                  #                        -***-                        #
                  #          Department of theory and spectroscopy      #
                  #    Directorship and core code : Frank Neese         #
                  #        Max Planck Institute fuer Kohlenforschung    #
                  #                Kaiser Wilhelm Platz 1               #
                  #                 D-45470 Muelheim/Ruhr               #
                  #                      Germany                        #
                  #                                                     #
                  #                  All rights reserved                #
                  #                        -***-                        #
                  #######################################################


                         Program Version 5.0.3 -  RELEASE  -


 With contributions from (in alphabetic order):
   Daniel Aravena         : Magnetic Suceptibility
   Michael Atanasov       : Ab Initio Ligand Field Theory (pilot matlab implementation)
   Alexander A. Auer      : GIAO ZORA, VPT2 properties, NMR spectrum
   Ute Becker             : Parallelization
   Giovanni Bistoni       : ED, misc. LED, open-shell LED, HFLD
   Martin Brehm           : Molecular dynamics
   Dmytro Bykov           : SCF Hessian
   Vijay G. Chilkuri      : MRCI spin determinant printing, contributions to CSF-ICE
   Dipayan Datta          : RHF DLPNO-CCSD density
   Achintya Kumar Dutta   : EOM-CC, STEOM-CC
   Dmitry Ganyushin       : Spin-Orbit,Spin-Spin,Magnetic field MRCI
   Miquel Garcia          : C-PCM and meta-GGA Hessian, CC/C-PCM, Gaussian charge scheme
   Yang Guo               : DLPNO-NEVPT2, F12-NEVPT2, CIM, IAO-localization
   Andreas Hansen         : Spin unrestricted coupled pair/coupled cluster methods
   Benjamin Helmich-Paris : MC-RPA, TRAH-SCF, COSX integrals
   Lee Huntington         : MR-EOM, pCC
   Robert Izsak           : Overlap fitted RIJCOSX, COSX-SCS-MP3, EOM
   Marcus Kettner         : VPT2
   Christian Kollmar      : KDIIS, OOCD, Brueckner-CCSD(T), CCSD density, CASPT2, CASPT2-K
   Simone Kossmann        : Meta GGA functionals, TD-DFT gradient, OOMP2, MP2 Hessian
   Martin Krupicka        : Initial AUTO-CI
   Lucas Lang             : DCDCAS
   Marvin Lechner         : AUTO-CI (C++ implementation), FIC-MRCC
   Dagmar Lenk            : GEPOL surface, SMD
   Dimitrios Liakos       : Extrapolation schemes; Compound Job, initial MDCI parallelization
   Dimitrios Manganas     : Further ROCIS development; embedding schemes
   Dimitrios Pantazis     : SARC Basis sets
   Anastasios Papadopoulos: AUTO-CI, single reference methods and gradients
   Taras Petrenko         : DFT Hessian,TD-DFT gradient, ASA, ECA, R-Raman, ABS, FL, XAS/XES, NRVS
   Peter Pinski           : DLPNO-MP2, DLPNO-MP2 Gradient
   Christoph Reimann      : Effective Core Potentials
   Marius Retegan         : Local ZFS, SOC
   Christoph Riplinger    : Optimizer, TS searches, QM/MM, DLPNO-CCSD(T), (RO)-DLPNO pert. Triples
   Tobias Risthaus        : Range-separated hybrids, TD-DFT gradient, RPA, STAB
   Michael Roemelt        : Original ROCIS implementation
   Masaaki Saitow         : Open-shell DLPNO-CCSD energy and density
   Barbara Sandhoefer     : DKH picture change effects
   Avijit Sen             : IP-ROCIS
   Kantharuban Sivalingam : CASSCF convergence, NEVPT2, FIC-MRCI
   Bernardo de Souza      : ESD, SOC TD-DFT
   Georgi Stoychev        : AutoAux, RI-MP2 NMR, DLPNO-MP2 response
   Willem Van den Heuvel  : Paramagnetic NMR
   Boris Wezisla          : Elementary symmetry handling
   Frank Wennmohs         : Technical directorship


 We gratefully acknowledge several colleagues who have allowed us to
 interface, adapt or use parts of their codes:
   Stefan Grimme, W. Hujo, H. Kruse, P. Pracht,  : VdW corrections, initial TS optimization,
                  C. Bannwarth, S. Ehlert          DFT functionals, gCP, sTDA/sTD-DF
   Ed Valeev, F. Pavosevic, A. Kumar             : LibInt (2-el integral package), F12 methods
   Garnet Chan, S. Sharma, J. Yang, R. Olivares  : DMRG
   Ulf Ekstrom                                   : XCFun DFT Library
   Mihaly Kallay                                 : mrcc  (arbitrary order and MRCC methods)
   Jiri Pittner, Ondrej Demel                    : Mk-CCSD
   Frank Weinhold                                : gennbo (NPA and NBO analysis)
   Christopher J. Cramer and Donald G. Truhlar   : smd solvation model
   Lars Goerigk                                  : TD-DFT with DH, B97 family of functionals
   V. Asgeirsson, H. Jonsson                     : NEB implementation
   FAccTs GmbH                                   : IRC, NEB, NEB-TS, DLPNO-Multilevel, CI-OPT
                                                   MM, QMMM, 2- and 3-layer-ONIOM, Crystal-QMMM,
                                                   LR-CPCM, SF, NACMEs, symmetry and pop. for TD-DFT,
                                                   nearIR, NL-DFT gradient (VV10), updates on ESD,
                                                   ML-optimized integration grids
   S Lehtola, MJT Oliveira, MAL Marques          : LibXC Library
   Liviu Ungur et al                             : ANISO software


 Your calculation uses the libint2 library for the computation of 2-el integrals
 For citations please refer to: http://libint.valeyev.net

 Your ORCA version has been built with support for libXC version: 5.1.0
 For citations please refer to: https://tddft.org/programs/libxc/

 This ORCA versions uses:
   CBLAS   interface :  Fast vector & matrix operations
   LAPACKE interface :  Fast linear algebra routines
   SCALAPACK package :  Parallel linear algebra routines
   Shared memory     :  Shared parallel matrices
   BLAS/LAPACK       :  OpenBLAS 0.3.15  USE64BITINT DYNAMIC_ARCH NO_AFFINITY Sandybridge SINGLE_THREADED
        Core in use  :  Sandybridge
   Copyright (c) 2011-2014, The OpenBLAS Project




***************************************
The coordinates will be read from file: pbe.xyz
***************************************


================================================================================

cite the ECPs for Au [Def2-ECP] as follows:
Ce-Yb(ecp-28): M. Dolg, H. Stoll, H.Preuss, J. Chem. Phys., 1989, 90, 1730-1734.
Y-Cd(ecp-28), Hf-Hg(ecp-46): D. Andrae,U. Haeussermann, M. Dolg, H. Stoll, H. Preuss, Theor. Chim. Acta, 1990, 77, 123-141.
In-Sb(ecp-28), Tl-Bi(ecp-46): B. Metz, H. Stoll, M. Dolg, J. Chem. Phys., 2000, 113, 2563-2569.
Te-Xe(ecp-28), Po-Rn(ecp-46): K. A. Peterson, D. Figgen, E. Goll, H. Stoll, M. Dolg, J. Chem. Phys., 2003, 119, 11113-11123.
Rb(ecp-28), Cs(ecp-46): T. Leininger, A. Nicklass, W. Kuechle, H. Stoll, M. Dolg, A. Bergner, Chem. Phys. Lett., 1996, 255, 274-280.
Sr(ecp-28), Ba(ecp-46): M. Kaupp, P. V. Schleyer, H. Stoll and H. Preuss, J. Chem. Phys., 1991, 94, 1360-1366.
La(ecp-46): M. Dolg, H. Stoll, A. Savin, H. Preuss, Theor. Chim. Acta, 1989, 75, 173-194.
Lu(ecp-28): X. Cao, M. Dolg, J. Chem. Phys., 2001, 115, 7348-7355.

ECP parameters for Au [Def2-ECP] have been obtained from:
TURBOMOLE (7.0.2)

----- Orbital basis set information -----
Your calculation utilizes the basis: def2-TZVP
   F. Weigend and R. Ahlrichs, Phys. Chem. Chem. Phys. 7, 3297 (2005).

----- AuxJ basis set information -----
Your calculation utilizes the auxiliary basis: def2/J
   F. Weigend, Phys. Chem. Chem. Phys. 8, 1057 (2006).

================================================================================
                                        WARNINGS
                       Please study these warnings very carefully!
================================================================================


WARNING: your system is open-shell and RHF/RKS was chosen
  ===> : WILL SWITCH to UHF/UKS


INFO   : the flag for use of the SHARK integral package has been found!



***************************************
The coordinates will be read from file: pbe.xyz
***************************************


================================================================================

cite the ECPs for Au [Def2-ECP] as follows:
Ce-Yb(ecp-28): M. Dolg, H. Stoll, H.Preuss, J. Chem. Phys., 1989, 90, 1730-1734.
Y-Cd(ecp-28), Hf-Hg(ecp-46): D. Andrae,U. Haeussermann, M. Dolg, H. Stoll, H. Preuss, Theor. Chim. Acta, 1990, 77, 123-141.
In-Sb(ecp-28), Tl-Bi(ecp-46): B. Metz, H. Stoll, M. Dolg, J. Chem. Phys., 2000, 113, 2563-2569.
Te-Xe(ecp-28), Po-Rn(ecp-46): K. A. Peterson, D. Figgen, E. Goll, H. Stoll, M. Dolg, J. Chem. Phys., 2003, 119, 11113-11123.
Rb(ecp-28), Cs(ecp-46): T. Leininger, A. Nicklass, W. Kuechle, H. Stoll, M. Dolg, A. Bergner, Chem. Phys. Lett., 1996, 255, 274-280.
Sr(ecp-28), Ba(ecp-46): M. Kaupp, P. V. Schleyer, H. Stoll and H. Preuss, J. Chem. Phys., 1991, 94, 1360-1366.
La(ecp-46): M. Dolg, H. Stoll, A. Savin, H. Preuss, Theor. Chim. Acta, 1989, 75, 173-194.
Lu(ecp-28): X. Cao, M. Dolg, J. Chem. Phys., 2001, 115, 7348-7355.

ECP parameters for Au [Def2-ECP] have been obtained from:
TURBOMOLE (7.0.2)

----- Orbital basis set information -----
Your calculation utilizes the basis: def2-TZVP
   F. Weigend and R. Ahlrichs, Phys. Chem. Chem. Phys. 7, 3297 (2005).

----- AuxJ basis set information -----
Your calculation utilizes the auxiliary basis: def2/J
   F. Weigend, Phys. Chem. Chem. Phys. 8, 1057 (2006).

================================================================================
                                        WARNINGS
                       Please study these warnings very carefully!
================================================================================


INFO   : the flag for use of the SHARK integral package has been found!

================================================================================
                                       INPUT FILE
================================================================================
NAME = pbeSP.inp
|  1> !PBE def2-TZVP VERYSLOWCONV
|  2> !KDIIS
|  3> 
|  4> %scf
|  5>   AutoTRAHIter 200
|  6>   maxiter 400
|  7> end
|  8> 
|  9> 
| 10> %pal nprocs 6 end 
| 11> 
| 12> *xyzfile 0 6 pbe.xyz
| 13> 
| 14> $new_job
| 15> 
| 16> !PBE def2-TZVP VERYSLOWCONV
| 17> !KDIIS
| 18> 
| 19> %scf
| 20>   AutoTRAHIter 200
| 21>   maxiter 400
| 22> end
| 23>  
| 24> 
| 25> %pal nprocs 6 end 
| 26> 
| 27> *xyzfile 0 4 pbe.xyz
| 28> 
| 29> 
| 30> 
| 31> 
| 32> 
| 33>                          ****END OF INPUT****
================================================================================


                 $$$$$$$$$$$$$$$$$$$$$$$$$$$$$$$$$$$$$$$$$$$$$$ 
                 $ THERE ARE  2 JOBS TO BE PROCESSED THIS RUN $
                 $$$$$$$$$$$$$$$$$$$$$$$$$$$$$$$$$$$$$$$$$$$$$$ 




                 $$$$$$$$$$$$$$$$  JOB NUMBER  1 $$$$$$$$$$$$$$


                       ****************************
                       * Single Point Calculation *
                       ****************************

---------------------------------
CARTESIAN COORDINATES (ANGSTROEM)
---------------------------------
  Au     4.264621    5.552259    6.848960
  Au     8.015262    9.862266    7.969594
  Au     9.723380    9.107442    5.846305
  Au     4.656485    7.895376    8.509740
  Au     5.989329   10.072230    9.948679
  Au     6.140165    6.143541    4.841868
  Au     7.050532    8.749463    5.457020
  Au     4.385024    8.124637    5.720842
  Au     5.368732   10.223154    7.208894
  Au     9.539022    7.627135    8.279984
  Au     5.867558    7.505934   11.024300
  Au     7.892467    6.004408    9.862039
  Au     8.721921    6.475980    5.756566
  Au     5.195456    5.322627    9.418857
  Au     9.598401    4.880657    7.974562
  Au     6.943108    4.981530    7.256653
  Mn     8.168444    8.637665   10.313475

----------------------------
CARTESIAN COORDINATES (A.U.)
----------------------------
  NO LB      ZA    FRAG     MASS         X           Y           Z
   0 Au   19.0000*   0   196.966    8.058965   10.492249   12.942659
   1 Au   19.0000*   0   196.966   15.146650   18.636981   15.060350
   2 Au   19.0000*   0   196.966   18.374525   17.210571   11.047916
   3 Au   19.0000*   0   196.966    8.799482   14.920099   16.081077
   4 Au   19.0000*   0   196.966   11.318192   19.033755   18.800278
   5 Au   19.0000*   0   196.966   11.603231   11.609610    9.149805
   6 Au   19.0000*   0   196.966   13.323574   16.534089   10.312273
   7 Au   19.0000*   0   196.966    8.286495   15.353338   10.810825
   8 Au   19.0000*   0   196.966   10.145433   19.318961   13.622835
   9 Au   19.0000*   0   196.966   18.026139   14.413196   15.646901
  10 Au   19.0000*   0   196.966   11.088078   14.184160   20.832907
  11 Au   19.0000*   0   196.966   14.914600   11.346687   18.636553
  12 Au   19.0000*   0   196.966   16.482042   12.237829   10.878334
  13 Au   19.0000*   0   196.966    9.817989   10.058307   17.799060
  14 Au   19.0000*   0   196.966   18.138349    9.223104   15.069739
  15 Au   19.0000*   0   196.966   13.120573    9.413728   13.713087
  16 Mn   25.0000    0    54.940   15.436123   16.322821   19.489643
* core charge reduced due to ECP

--------------------------------
INTERNAL COORDINATES (ANGSTROEM)
--------------------------------
 Au     0   0   0     0.000000000000     0.00000000     0.00000000
 Au     1   0   0     5.822309531604     0.00000000     0.00000000
 Au     2   1   0     2.827681000174    92.69396538     0.00000000
 Au     1   2   3     2.898610942031    37.27295603   185.88884272
 Au     2   1   3     2.839940812789    74.29500344   181.62192927
 Au     1   2   3     2.809928755509    63.36768959   344.95621533
 Au     3   2   1     2.724666519241    63.24180059    34.44681499
 Au     7   3   2     2.750443877301   165.20159817   315.08520207
 Au     8   7   3     2.754224958304    62.13439063    70.39281436
 Au     2   1   3     2.722865569976    76.98410020   299.69766110
 Au     5   2   1     2.785257609917   103.42604626    52.26618542
 Au    11   5   2     2.775911281674   107.74638008     4.96090848
 Au     6   1   2     2.759103224055   114.40104965    45.49870814
 Au     1   2   3     2.742909773573    70.30765047   121.54472995
 Au    10   2   1     2.764046385626   144.59557693     7.67162364
 Au    15  10   2     2.752480399400    88.37721168   354.65133499
 Mn     5   2   1     2.634311042547    57.73315866    90.83736715

---------------------------
INTERNAL COORDINATES (A.U.)
---------------------------
 Au     0   0   0     0.000000000000     0.00000000     0.00000000
 Au     1   0   0    11.002570481651     0.00000000     0.00000000
 Au     2   1   0     5.343542684421    92.69396538     0.00000000
 Au     1   2   3     5.477580849226    37.27295603   185.88884272
 Au     2   1   3     5.366710372717    74.29500344   181.62192927
 Au     1   2   3     5.309995803742    63.36768959   344.95621533
 Au     3   2   1     5.148873527629    63.24180059    34.44681499
 Au     7   3   2     5.197585674820   165.20159817   315.08520207
 Au     8   7   3     5.204730882404    62.13439063    70.39281436
 Au     2   1   3     5.145470226738    76.98410020   299.69766110
 Au     5   2   1     5.263374095163   103.42604626    52.26618542
 Au    11   5   2     5.245712094427   107.74638008     4.96090848
 Au     6   1   2     5.213949468684   114.40104965    45.49870814
 Au     1   2   3     5.183348282110    70.30765047   121.54472995
 Au    10   2   1     5.223290690289   144.59557693     7.67162364
 Au    15  10   2     5.201434143853    88.37721168   354.65133499
 Mn     5   2   1     4.978126421978    57.73315866    90.83736715

---------------------
BASIS SET INFORMATION
---------------------
There are 2 groups of distinct atoms

 Group   1 Type Au  : 8s7p6d1f contracted to 6s4p3d1f pattern {311111/4111/411/1}
 Group   2 Type Mn  : 17s11p7d1f contracted to 6s4p4d1f pattern {842111/6311/4111/1}

Atom   0Au   basis set group =>   1
Atom   1Au   basis set group =>   1
Atom   2Au   basis set group =>   1
Atom   3Au   basis set group =>   1
Atom   4Au   basis set group =>   1
Atom   5Au   basis set group =>   1
Atom   6Au   basis set group =>   1
Atom   7Au   basis set group =>   1
Atom   8Au   basis set group =>   1
Atom   9Au   basis set group =>   1
Atom  10Au   basis set group =>   1
Atom  11Au   basis set group =>   1
Atom  12Au   basis set group =>   1
Atom  13Au   basis set group =>   1
Atom  14Au   basis set group =>   1
Atom  15Au   basis set group =>   1
Atom  16Mn   basis set group =>   2
---------------------------------
AUXILIARY/J BASIS SET INFORMATION
---------------------------------
There are 2 groups of distinct atoms

 Group   1 Type Au  : 11s5p5d3f3g contracted to 8s5p5d2f3g pattern {41111111/11111/11111/21/111}
 Group   2 Type Mn  : 19s5p5d3f3g contracted to 8s5p5d2f3g pattern {121111111/11111/11111/21/111}

Atom   0Au   basis set group =>   1
Atom   1Au   basis set group =>   1
Atom   2Au   basis set group =>   1
Atom   3Au   basis set group =>   1
Atom   4Au   basis set group =>   1
Atom   5Au   basis set group =>   1
Atom   6Au   basis set group =>   1
Atom   7Au   basis set group =>   1
Atom   8Au   basis set group =>   1
Atom   9Au   basis set group =>   1
Atom  10Au   basis set group =>   1
Atom  11Au   basis set group =>   1
Atom  12Au   basis set group =>   1
Atom  13Au   basis set group =>   1
Atom  14Au   basis set group =>   1
Atom  15Au   basis set group =>   1
Atom  16Mn   basis set group =>   2
-------------------------
ECP PARAMETER INFORMATION
-------------------------

 Group 1, Type Au ECP Def2-ECP (replacing 60 core electrons, lmax=3)

Atom   0Au   ECP group =>   1
Atom   1Au   ECP group =>   1
Atom   2Au   ECP group =>   1
Atom   3Au   ECP group =>   1
Atom   4Au   ECP group =>   1
Atom   5Au   ECP group =>   1
Atom   6Au   ECP group =>   1
Atom   7Au   ECP group =>   1
Atom   8Au   ECP group =>   1
Atom   9Au   ECP group =>   1
Atom  10Au   ECP group =>   1
Atom  11Au   ECP group =>   1
Atom  12Au   ECP group =>   1
Atom  13Au   ECP group =>   1
Atom  14Au   ECP group =>   1
Atom  15Au   ECP group =>   1



           ************************************************************
           *        Program running with 6 parallel MPI-processes     *
           *              working on a common directory               *
           ************************************************************
------------------------------------------------------------------------------
                           ORCA GTO INTEGRAL CALCULATION
                           -- RI-GTO INTEGRALS CHOSEN --
------------------------------------------------------------------------------
------------------------------------------------------------------------------
                   ___                                                        
                  /   \      - P O W E R E D   B Y -                         
                 /     \                                                     
                 |  |  |   _    _      __       _____    __    __             
                 |  |  |  | |  | |    /  \     |  _  \  |  |  /  |          
                  \  \/   | |  | |   /    \    | | | |  |  | /  /          
                 / \  \   | |__| |  /  /\  \   | |_| |  |  |/  /          
                |  |  |   |  __  | /  /__\  \  |    /   |      \           
                |  |  |   | |  | | |   __   |  |    \   |  |\   \          
                \     /   | |  | | |  |  |  |  | |\  \  |  | \   \       
                 \___/    |_|  |_| |__|  |__|  |_| \__\ |__|  \__/        
                                                                              
                      - O R C A' S   B I G   F R I E N D -                    
                                      &                                       
                       - I N T E G R A L  F E E D E R -                       
                                                                              
 v1 FN, 2020, v2 2021                                                         
------------------------------------------------------------------------------


Reading SHARK input file pbeSP.SHARKINP.tmp ... ok
----------------------
SHARK INTEGRAL PACKAGE
----------------------

Number of atoms                             ...     17
Number of basis functions                   ...    685
Number of shells                            ...    239
Maximum angular momentum                    ...      3
Integral batch strategy                     ... SHARK/LIBINT Hybrid
RI-J (if used) integral strategy            ... SPLIT-RIJ (Revised 2003 algorithm where possible)
Printlevel                                  ...      1
Contraction scheme used                     ... SEGMENTED contraction
Coulomb Range Separation                    ... NOT USED
Exchange Range Separation                   ... NOT USED
Finite Nucleus Model                        ... NOT USED
Auxiliary Coulomb fitting basis             ... AVAILABLE
   # of basis functions in Aux-J            ...   1513
   # of shells in Aux-J                     ...    391
   Maximum angular momentum in Aux-J        ...      4
Auxiliary J/K fitting basis                 ... NOT available
Auxiliary Correlation fitting basis         ... NOT available
Auxiliary 'external' fitting basis          ... NOT available
Integral threshold                          ...     1.000000e-10
Primitive cut-off                           ...     1.000000e-11
Primitive pair pre-selection threshold      ...     1.000000e-11

Calculating pre-screening integrals         ... done (  0.4 sec) Dimension = 239
Organizing shell pair data                  ... done (  1.0 sec)
Shell pair information
Total number of shell pairs                 ...     28680
Shell pairs after pre-screening             ...     21781
Total number of primitive shell pairs       ...     75765
Primitive shell pairs kept                  ...     40607
          la=0 lb=0:   3478 shell pairs
          la=1 lb=0:   4952 shell pairs
          la=1 lb=1:   1862 shell pairs
          la=2 lb=0:   4317 shell pairs
          la=2 lb=1:   3082 shell pairs
          la=2 lb=2:   1275 shell pairs
          la=3 lb=0:   1102 shell pairs
          la=3 lb=1:    852 shell pairs
          la=3 lb=2:    755 shell pairs
          la=3 lb=3:    106 shell pairs

Calculating one electron integrals          ... done (  0.1 sec)
Calculating ECP integrals                   ... done ( 27.3 sec)
Calculating RI/J V-Matrix + Cholesky decomp.... done (  0.2 sec)
Calculating Nuclear repulsion               ... done (  0.0 sec) ENN=   6779.561722129900 Eh

SHARK setup successfully completed in  29.8 seconds

Maximum memory used throughout the entire GTOINT-calculation: 40.4 MB


           ************************************************************
           *        Program running with 6 parallel MPI-processes     *
           *              working on a common directory               *
           ************************************************************
-------------------------------------------------------------------------------
                                 ORCA SCF
-------------------------------------------------------------------------------

------------
SCF SETTINGS
------------
Hamiltonian:
 Density Functional     Method          .... DFT(GTOs)
 Exchange Functional    Exchange        .... PBE
   PBE kappa parameter   XKappa         ....  0.804000
   PBE mue parameter    XMuePBE         ....  0.219520
 Correlation Functional Correlation     .... PBE
   PBE beta parameter  CBetaPBE         ....  0.066725
 LDA part of GGA corr.  LDAOpt          .... PW91-LDA
 Gradients option       PostSCFGGA      .... off
   Density functional embedding theory  .... OFF
   NL short-range parameter             ....  6.400000
 RI-approximation to the Coulomb term is turned on
   Number of AuxJ basis functions       .... 1513


General Settings:
 Integral files         IntName         .... pbeSP
 Hartree-Fock type      HFTyp           .... UHF
 Total Charge           Charge          ....    0
 Multiplicity           Mult            ....    6
 Number of Electrons    NEL             ....  329
 Basis Dimension        Dim             ....  685
 Nuclear Repulsion      ENuc            ....   6779.5617221299 Eh

Convergence Acceleration:
 DIIS                   CNVDIIS         .... off
 Trust-Rad. Augm. Hess. CNVTRAH         .... auto
   Auto Start mean grad. ratio tolernc. ....  1.125000
   Auto Start start iteration           ....   200
   Auto Start num. interpolation iter.  ....    10
   Max. Number of Micro iterations      ....    16
   Max. Number of Macro iterations      .... Maxiter - #DIIS iter
   Number of Davidson start vectors     ....     2
   Converg. threshold I  (grad. norm)   ....   5.000e-05
   Converg. threshold II (energy diff.) ....   1.000e-06
   Grad. Scal. Fac. for Micro threshold ....   0.100
   Minimum threshold for Micro iter.    ....   0.010
   NR start threshold (gradient norm)   ....   0.001
   Initial trust radius                 ....   0.400
   Minimum AH scaling param. (alpha)    ....   1.000
   Maximum AH scaling param. (alpha)    .... 1000.000
   Orbital update algorithm             .... Taylor
   White noise on init. David. guess    .... on
   Maximum white noise                  ....   0.010
   Quad. conv. algorithm                .... NR
 SOSCF                  CNVSOSCF        .... off
 Level Shifting         CNVShift        .... off
 Zerner damping         CNVZerner       .... off
 Static damping         CNVDamp         .... off
 Fernandez-Rico         CNVRico         .... off

SCF Procedure:
 Maximum # iterations   MaxIter         ....   400
 SCF integral mode      SCFMode         .... Direct
   Integral package                     .... SHARK and LIBINT hybrid scheme
 Reset frequency        DirectResetFreq ....    20
 Integral Threshold     Thresh          ....  1.000e-10 Eh
 Primitive CutOff       TCut            ....  1.000e-11 Eh

Convergence Tolerance:
 Convergence Check Mode ConvCheckMode   .... All-Criteria
 Convergence forced     ConvForced      .... 0
 Energy Change          TolE            ....  1.000e-06 Eh
 Max Density Change     TolMaxP         ....  1.000e-05
 RMS Density Change     TolRMSP         ....  1.000e-06


Diagonalization of the overlap matrix:
Smallest eigenvalue                        ... 4.284e-04
Time for diagonalization                   ...    0.147 sec
Threshold for overlap eigenvalues          ... 1.000e-08
Number of eigenvalues below threshold      ... 0
Time for construction of square roots      ...    0.163 sec
Total time needed                          ...    0.313 sec

Time for model grid setup =    1.120 sec

------------------------------
INITIAL GUESS: MODEL POTENTIAL
------------------------------
Loading Hartree-Fock densities                     ... done
  calling /home/ehlert/src/miniconda3/envs/orca500/Programs/ORCA501/orca pbeSP_atom79.inp > pbeSP_atom79.out in order to generate an atomic fitting density for atom 0 (Au with ECP) on-the-fly... 
    atom 0 (Au), assumed electronic state with S=2: 1s2 2s2 2p6 3s2 3p6 4s2 3d10 4p6 5s2 4d10 5p6 6s1 4f14 5d10           ... done
Calculating cut-offs                               ... done
Initializing the effective Hamiltonian             ... done
Setting up the integral package (SHARK)            ... done
Starting the Coulomb interaction                   ... done (   1.4 sec)
Reading the grid                                   ... done
Mapping shells                                     ... done
Starting the XC term evaluation                    ... done (   1.3 sec)
  promolecular density results
     # of electrons  =   1289.014247067
     EX              =  -5903.695718751
     EC              =    -78.590536148
     EX+EC           =  -5982.286254898
Transforming the Hamiltonian                       ... done (   0.2 sec)
Diagonalizing the Hamiltonian                      ... done (   0.2 sec)
Back transforming the eigenvectors                 ... done (   0.1 sec)
Now organizing SCF variables                       ... done
                      ------------------
                      INITIAL GUESS DONE (   5.4 sec)
                      ------------------
-------------------
DFT GRID GENERATION
-------------------

General Integration Accuracy     IntAcc      ... 4.388
Radial Grid Type                 RadialGrid  ... OptM3 with GC (2021)
Angular Grid (max. ang.)         AngularGrid ... 4 (Lebedev-302)
Angular grid pruning method      GridPruning ... 4 (adaptive)
Weight generation scheme         WeightScheme... Becke
Basis function cutoff            BFCut       ... 1.0000e-10
Integration weight cutoff        WCut        ... 1.0000e-14
Angular grids for H and He will be reduced by one unit
Partially contracted basis set               ... off
Rotationally invariant grid construction     ... off

Total number of grid points                  ...   187259
Total number of batches                      ...     2934
Average number of points per batch           ...       63
Average number of grid points per atom       ...    11015
Time for grid setup =    3.473 sec

--------------
SCF ITERATIONS
--------------
ITER       Energy         Delta-E        Max-DP      RMS-DP      [F,P]   Gradient Norm
               ***  Starting incremental Fock matrix formation  ***
                             ****Resetting KDIIS****
                             ****Turning on KDIIS(Cayley)****
  0  -3321.7444300397   0.000000000000 0.16160190  0.00092608  0.3900578   0.214888226
  1  -3322.9417858734  -1.197355833622 0.08243095  0.00095635  0.3358909   0.165784051
  2  -3323.4851635351  -0.543377661758 0.09639687  0.00109685  0.2652984   0.125730692
  3  -3323.7787036236  -0.293540088523 0.15345733  0.00136845  0.1548127   0.075124620
  4  -3323.8729130970  -0.094209473388 0.05873931  0.00059002  0.0321938   0.024478161
  5  -3323.9262780676  -0.053364970577 0.04914917  0.00054053  0.0262835   0.010725869
  6  -3323.9517611467  -0.025483079053 0.10463648  0.00066238  0.0442897   0.013035572
  7  -3323.9823151634  -0.030554016716 0.02696092  0.00023020  0.0299359   0.008058756
  8  -3323.9896774816  -0.007362318273 0.08237956  0.00043047  0.0117375   0.007299533
  9  -3324.0147259954  -0.025048513759 0.02094608  0.00020121  0.0183824   0.002994334
 10  -3324.0179093075  -0.003183312138 0.04046191  0.00023503  0.0198231   0.005644204
 11  -3324.0266430303  -0.008733722760 0.02639595  0.00023060  0.0130302   0.002051621
 12  -3324.0301292816  -0.003486251306 0.01240842  0.00010246  0.0088608   0.003064922
 13  -3324.0312145799  -0.001085298246 0.02381507  0.00016936  0.0115124   0.002594395
 14  -3324.0335827021  -0.002368122237 0.01841471  0.00010958  0.0070453   0.001148775
 15  -3324.0343311512  -0.000748449108 0.01026751  0.00007885  0.0043476   0.001523233
 16  -3324.0348059929  -0.000474841653 0.00525666  0.00004052  0.0052025   0.001291078
 17  -3324.0349564303  -0.000150437421 0.01629015  0.00010191  0.0047068   0.001137221
 18  -3324.0354575917  -0.000501161400 0.00775598  0.00006161  0.0028537   0.000883714
 19  -3324.0355178017  -0.000060210052 0.00755912  0.00005846  0.0029635   0.001507598
               *** Restarting incremental Fock matrix formation ***
                             ****Resetting KDIIS****
 20  -3324.0355280187  -0.000010216969 0.00053916  0.00000574  0.0032412   0.000670570
 21  -3324.0355733423  -0.000045323626 0.00111589  0.00000716  0.0030538   0.000436884
 22  -3324.0356068393  -0.000033497011 0.00351155  0.00002255  0.0029357   0.000379011
 23  -3324.0356928994  -0.000086060073 0.02328542  0.00014982  0.0025387   0.000330928
 24  -3324.0359855722  -0.000292672786 0.00122725  0.00000843  0.0006913   0.000363300
 25  -3324.0360020646  -0.000016492374 0.00156277  0.00001127  0.0004600   0.000139792
 26  -3324.0360084983  -0.000006433711 0.00030829  0.00000299  0.0003274   0.000111347
 27  -3324.0360107427  -0.000002244456 0.00125137  0.00000794  0.0002400   0.000053216
 28  -3324.0360133680  -0.000002625306 0.00032975  0.00000248  0.0001228   0.000060837
                          ***Energy convergence achieved***
 29  -3324.0360140507  -0.000000682699 0.00056847  0.00000402  0.0000842   0.000053095
 30  -3324.0360146630  -0.000000612294 0.00043959  0.00000312  0.0000679   0.000029096
 31  -3324.0360147894  -0.000000126381 0.00034787  0.00000236  0.0001045   0.000051022
                           ***RMSP convergence achieved***

            ***Energy convergence in two consecutive cycles with***
                    ***'reasonable' density convergence***
                       *** signaling convergence ***

                    *** KDIIS BlockDiag ( 0.566 sec) ***

               *****************************************************
               *                     SUCCESS                       *
               *           SCF CONVERGED AFTER  32 CYCLES          *
               *****************************************************


----------------
TOTAL SCF ENERGY
----------------

Total Energy       :        -3324.03601512 Eh          -90451.61844 eV

Components:
Nuclear Repulsion  :         6779.56172213 Eh          184481.25330 eV
Electronic Energy  :       -10103.59773725 Eh         -274932.87175 eV
One Electron Energy:       -18950.77216930 Eh         -515676.72722 eV
Two Electron Energy:         8847.17443204 Eh          240743.85548 eV

Virial components:
Potential Energy   :        -5205.61680195 Eh         -141652.03463 eV
Kinetic Energy     :         1881.58078683 Eh           51200.41619 eV
Virial Ratio       :            2.76661881


DFT components:
N(Alpha)           :      167.000087563271 electrons
N(Beta)            :      162.000088978508 electrons
N(Total)           :      329.000176541779 electrons
E(X)               :     -243.667251062732 Eh       
E(C)               :      -14.342700120251 Eh       
E(XC)              :     -258.009951182983 Eh       
DFET-embed. en.    :        0.000000000000 Eh       

---------------
SCF CONVERGENCE
---------------

  Last Energy change         ...   -3.3227e-07  Tolerance :   1.0000e-06
  Last MAX-Density change    ...    5.5405e-05  Tolerance :   1.0000e-05
  Last RMS-Density change    ...    5.6246e-07  Tolerance :   1.0000e-06

             **** THE GBW FILE WAS UPDATED (pbeSP.gbw) ****
             **** DENSITY pbeSP.scfp WAS UPDATED ****
             **** ENERGY FILE WAS UPDATED (pbeSP.en.tmp) ****
----------------------
UHF SPIN CONTAMINATION
----------------------

Warning: in a DFT calculation there is little theoretical justification to 
         calculate <S**2> as in Hartree-Fock theory. We will do it anyways
         but you should keep in mind that the values have only limited relevance

Expectation value of <S**2>     :     8.782277
Ideal value S*(S+1) for S=2.5   :     8.750000
Deviation                       :     0.032277

             **** THE GBW FILE WAS UPDATED (pbeSP.gbw) ****
             **** DENSITY pbeSP.scfp WAS UPDATED ****
----------------
ORBITAL ENERGIES
----------------
                 SPIN UP ORBITALS
  NO   OCC          E(Eh)            E(eV) 
   0   1.0000    -234.222016     -6373.5051 
   1   1.0000     -26.920160      -732.5348 
   2   1.0000     -23.069259      -627.7465 
   3   1.0000     -23.067708      -627.7042 
   4   1.0000     -23.067341      -627.6943 
   5   1.0000      -4.037362      -109.8622 
   6   1.0000      -4.037181      -109.8573 
   7   1.0000      -4.037160      -109.8567 
   8   1.0000      -4.035569      -109.8134 
   9   1.0000      -4.035564      -109.8133 
  10   1.0000      -4.024216      -109.5045 
  11   1.0000      -4.023308      -109.4798 
  12   1.0000      -4.022817      -109.4664 
  13   1.0000      -4.022549      -109.4591 
  14   1.0000      -4.022265      -109.4514 
  15   1.0000      -4.021786      -109.4384 
  16   1.0000      -4.021432      -109.4287 
  17   1.0000      -4.020841      -109.4127 
  18   1.0000      -4.019938      -109.3881 
  19   1.0000      -4.018066      -109.3371 
  20   1.0000      -4.016094      -109.2835 
  21   1.0000      -3.132914       -85.2509 
  22   1.0000      -2.255197       -61.3670 
  23   1.0000      -2.254318       -61.3431 
  24   1.0000      -2.254074       -61.3365 
  25   1.0000      -2.253361       -61.3171 
  26   1.0000      -2.252932       -61.3054 
  27   1.0000      -2.252289       -61.2879 
  28   1.0000      -2.250960       -61.2517 
  29   1.0000      -2.249647       -61.2160 
  30   1.0000      -2.248238       -61.1777 
  31   1.0000      -2.246907       -61.1414 
  32   1.0000      -2.246478       -61.1298 
  33   1.0000      -2.244468       -61.0751 
  34   1.0000      -2.243311       -61.0436 
  35   1.0000      -2.242526       -61.0222 
  36   1.0000      -2.242295       -61.0159 
  37   1.0000      -2.241783       -61.0020 
  38   1.0000      -2.241595       -60.9969 
  39   1.0000      -2.240239       -60.9600 
  40   1.0000      -2.239517       -60.9403 
  41   1.0000      -2.239385       -60.9368 
  42   1.0000      -2.239127       -60.9298 
  43   1.0000      -2.237674       -60.8902 
  44   1.0000      -2.237030       -60.8727 
  45   1.0000      -2.236410       -60.8558 
  46   1.0000      -2.236317       -60.8533 
  47   1.0000      -2.236093       -60.8472 
  48   1.0000      -2.235742       -60.8376 
  49   1.0000      -2.234716       -60.8097 
  50   1.0000      -2.234606       -60.8067 
  51   1.0000      -2.234426       -60.8018 
  52   1.0000      -2.234160       -60.7946 
  53   1.0000      -2.233518       -60.7771 
  54   1.0000      -2.233329       -60.7720 
  55   1.0000      -2.233177       -60.7678 
  56   1.0000      -2.233026       -60.7637 
  57   1.0000      -2.232707       -60.7550 
  58   1.0000      -2.232692       -60.7546 
  59   1.0000      -2.232396       -60.7466 
  60   1.0000      -2.232168       -60.7404 
  61   1.0000      -2.231576       -60.7243 
  62   1.0000      -2.230916       -60.7063 
  63   1.0000      -2.230614       -60.6981 
  64   1.0000      -2.230278       -60.6890 
  65   1.0000      -2.229690       -60.6729 
  66   1.0000      -2.229528       -60.6685 
  67   1.0000      -2.229227       -60.6604 
  68   1.0000      -2.227969       -60.6261 
  69   1.0000      -2.222569       -60.4792 
  70   1.0000      -2.038604       -55.4732 
  71   1.0000      -2.033950       -55.3466 
  72   1.0000      -2.033310       -55.3292 
  73   1.0000      -0.417032       -11.3480 
  74   1.0000      -0.389350       -10.5947 
  75   1.0000      -0.387536       -10.5454 
  76   1.0000      -0.386970       -10.5300 
  77   1.0000      -0.372813       -10.1448 
  78   1.0000      -0.372141       -10.1265 
  79   1.0000      -0.369420       -10.0524 
  80   1.0000      -0.368222       -10.0198 
  81   1.0000      -0.365400        -9.9430 
  82   1.0000      -0.361796        -9.8450 
  83   1.0000      -0.360583        -9.8120 
  84   1.0000      -0.359066        -9.7707 
  85   1.0000      -0.358996        -9.7688 
  86   1.0000      -0.357585        -9.7304 
  87   1.0000      -0.356119        -9.6905 
  88   1.0000      -0.351968        -9.5775 
  89   1.0000      -0.349755        -9.5173 
  90   1.0000      -0.348028        -9.4703 
  91   1.0000      -0.347013        -9.4427 
  92   1.0000      -0.346345        -9.4245 
  93   1.0000      -0.345056        -9.3894 
  94   1.0000      -0.342347        -9.3157 
  95   1.0000      -0.339733        -9.2446 
  96   1.0000      -0.336382        -9.1534 
  97   1.0000      -0.335945        -9.1415 
  98   1.0000      -0.333667        -9.0795 
  99   1.0000      -0.330837        -9.0025 
 100   1.0000      -0.330065        -8.9815 
 101   1.0000      -0.328875        -8.9491 
 102   1.0000      -0.326699        -8.8899 
 103   1.0000      -0.322047        -8.7633 
 104   1.0000      -0.320192        -8.7129 
 105   1.0000      -0.319114        -8.6835 
 106   1.0000      -0.316748        -8.6191 
 107   1.0000      -0.311447        -8.4749 
 108   1.0000      -0.308728        -8.4009 
 109   1.0000      -0.308215        -8.3870 
 110   1.0000      -0.306293        -8.3347 
 111   1.0000      -0.305751        -8.3199 
 112   1.0000      -0.304180        -8.2772 
 113   1.0000      -0.301293        -8.1986 
 114   1.0000      -0.299837        -8.1590 
 115   1.0000      -0.296954        -8.0805 
 116   1.0000      -0.294088        -8.0025 
 117   1.0000      -0.292092        -7.9482 
 118   1.0000      -0.291313        -7.9270 
 119   1.0000      -0.289290        -7.8720 
 120   1.0000      -0.287967        -7.8360 
 121   1.0000      -0.286205        -7.7880 
 122   1.0000      -0.285037        -7.7562 
 123   1.0000      -0.283812        -7.7229 
 124   1.0000      -0.282814        -7.6958 
 125   1.0000      -0.280079        -7.6213 
 126   1.0000      -0.277658        -7.5555 
 127   1.0000      -0.276453        -7.5227 
 128   1.0000      -0.275289        -7.4910 
 129   1.0000      -0.274372        -7.4660 
 130   1.0000      -0.272190        -7.4067 
 131   1.0000      -0.271487        -7.3875 
 132   1.0000      -0.269487        -7.3331 
 133   1.0000      -0.267938        -7.2910 
 134   1.0000      -0.266323        -7.2470 
 135   1.0000      -0.263818        -7.1789 
 136   1.0000      -0.263486        -7.1698 
 137   1.0000      -0.262113        -7.1325 
 138   1.0000      -0.260909        -7.0997 
 139   1.0000      -0.260106        -7.0778 
 140   1.0000      -0.259791        -7.0693 
 141   1.0000      -0.259309        -7.0562 
 142   1.0000      -0.257139        -6.9971 
 143   1.0000      -0.256557        -6.9813 
 144   1.0000      -0.255085        -6.9412 
 145   1.0000      -0.253932        -6.9098 
 146   1.0000      -0.253565        -6.8999 
 147   1.0000      -0.251901        -6.8546 
 148   1.0000      -0.251369        -6.8401 
 149   1.0000      -0.249309        -6.7840 
 150   1.0000      -0.248296        -6.7565 
 151   1.0000      -0.247635        -6.7385 
 152   1.0000      -0.245479        -6.6798 
 153   1.0000      -0.244899        -6.6640 
 154   1.0000      -0.243313        -6.6209 
 155   1.0000      -0.242665        -6.6033 
 156   1.0000      -0.241487        -6.5712 
 157   1.0000      -0.239740        -6.5237 
 158   1.0000      -0.238489        -6.4896 
 159   1.0000      -0.236012        -6.4222 
 160   1.0000      -0.234429        -6.3791 
 161   1.0000      -0.232960        -6.3392 
 162   1.0000      -0.226385        -6.1602 
 163   1.0000      -0.215698        -5.8694 
 164   1.0000      -0.213863        -5.8195 
 165   1.0000      -0.209523        -5.7014 
 166   1.0000      -0.191826        -5.2199 
 167   0.0000      -0.159064        -4.3283 
 168   0.0000      -0.139711        -3.8017 
 169   0.0000      -0.134219        -3.6523 
 170   0.0000      -0.133840        -3.6420 
 171   0.0000      -0.129202        -3.5158 
 172   0.0000      -0.125784        -3.4227 
 173   0.0000      -0.118275        -3.2184 
 174   0.0000      -0.115650        -3.1470 
 175   0.0000      -0.084437        -2.2977 
 176   0.0000      -0.071996        -1.9591 
 177   0.0000      -0.065489        -1.7820 
 178   0.0000      -0.045424        -1.2360 
 179   0.0000      -0.043540        -1.1848 
 180   0.0000      -0.042461        -1.1554 
 181   0.0000      -0.039142        -1.0651 
 182   0.0000      -0.035935        -0.9778 
 183   0.0000      -0.026564        -0.7229 
 184   0.0000      -0.017080        -0.4648 
 185   0.0000      -0.015530        -0.4226 
 186   0.0000      -0.010826        -0.2946 
 187   0.0000      -0.006836        -0.1860 
 188   0.0000       0.000230         0.0063 
 189   0.0000       0.009510         0.2588 
 190   0.0000       0.020210         0.5499 
 191   0.0000       0.023796         0.6475 
 192   0.0000       0.037924         1.0320 
 193   0.0000       0.053731         1.4621 
 194   0.0000       0.054341         1.4787 
 195   0.0000       0.055129         1.5001 
 196   0.0000       0.056939         1.5494 
 197   0.0000       0.059461         1.6180 
 198   0.0000       0.061345         1.6693 
 199   0.0000       0.064283         1.7492 
 200   0.0000       0.066205         1.8015 
 201   0.0000       0.067510         1.8370 
 202   0.0000       0.068475         1.8633 
 203   0.0000       0.072627         1.9763 
 204   0.0000       0.073847         2.0095 
 205   0.0000       0.075405         2.0519 
 206   0.0000       0.080177         2.1817 
 207   0.0000       0.084658         2.3037 
 208   0.0000       0.086037         2.3412 
 209   0.0000       0.092300         2.5116 
 210   0.0000       0.097926         2.6647 
 211   0.0000       0.101163         2.7528 
 212   0.0000       0.108252         2.9457 
 213   0.0000       0.112645         3.0652 
 214   0.0000       0.123793         3.3686 
 215   0.0000       0.128355         3.4927 
 216   0.0000       0.134720         3.6659 
 217   0.0000       0.143188         3.8963 
 218   0.0000       0.145707         3.9649 
 219   0.0000       0.149863         4.0780 
 220   0.0000       0.150121         4.0850 
 221   0.0000       0.153385         4.1738 
 222   0.0000       0.155020         4.2183 
 223   0.0000       0.155362         4.2276 
 224   0.0000       0.161009         4.3813 
 225   0.0000       0.161409         4.3922 
 226   0.0000       0.169135         4.6024 
 227   0.0000       0.170700         4.6450 
 228   0.0000       0.175546         4.7769 
 229   0.0000       0.182842         4.9754 
 230   0.0000       0.185500         5.0477 
 231   0.0000       0.191435         5.2092 
 232   0.0000       0.199140         5.4189 
 233   0.0000       0.201441         5.4815 
 234   0.0000       0.203497         5.5374 
 235   0.0000       0.204941         5.5767 
 236   0.0000       0.215020         5.8510 
 237   0.0000       0.218433         5.9439 
 238   0.0000       0.221891         6.0380 
 239   0.0000       0.224907         6.1200 
 240   0.0000       0.228883         6.2282 
 241   0.0000       0.232636         6.3303 
 242   0.0000       0.235236         6.4011 
 243   0.0000       0.242095         6.5877 
 244   0.0000       0.242519         6.5993 
 245   0.0000       0.245793         6.6884 
 246   0.0000       0.247710         6.7405 
 247   0.0000       0.250061         6.8045 
 248   0.0000       0.251060         6.8317 
 249   0.0000       0.260525         7.0892 
 250   0.0000       0.261139         7.1060 
 251   0.0000       0.274000         7.4559 
 252   0.0000       0.274712         7.4753 
 253   0.0000       0.276833         7.5330 
 254   0.0000       0.284703         7.7472 
 255   0.0000       0.290034         7.8922 
 256   0.0000       0.296373         8.0647 
 257   0.0000       0.301407         8.2017 
 258   0.0000       0.304048         8.2736 
 259   0.0000       0.307036         8.3549 
 260   0.0000       0.310908         8.4602 
 261   0.0000       0.317415         8.6373 
 262   0.0000       0.318093         8.6557 
 263   0.0000       0.321755         8.7554 
 264   0.0000       0.325973         8.8702 
 265   0.0000       0.330080         8.9819 
 266   0.0000       0.331081         9.0092 
 267   0.0000       0.337346         9.1797 
 268   0.0000       0.338293         9.2054 
 269   0.0000       0.338448         9.2096 
 270   0.0000       0.344700         9.3798 
 271   0.0000       0.347631         9.4595 
 272   0.0000       0.348739         9.4897 
 273   0.0000       0.358513         9.7556 
 274   0.0000       0.360638         9.8135 
 275   0.0000       0.366992         9.9864 
 276   0.0000       0.368218        10.0197 
 277   0.0000       0.374459        10.1895 
 278   0.0000       0.377153        10.2629 
 279   0.0000       0.378502        10.2996 
 280   0.0000       0.380062        10.3420 
 281   0.0000       0.385811        10.4985 
 282   0.0000       0.388153        10.5622 
 283   0.0000       0.393453        10.7064 
 284   0.0000       0.394808        10.7433 
 285   0.0000       0.402771        10.9599 
 286   0.0000       0.404102        10.9962 
 287   0.0000       0.412944        11.2368 
 288   0.0000       0.422210        11.4889 
 289   0.0000       0.424485        11.5508 
 290   0.0000       0.434422        11.8212 
 291   0.0000       0.439232        11.9521 
 292   0.0000       0.439892        11.9701 
 293   0.0000       0.446860        12.1597 
 294   0.0000       0.452124        12.3029 
 295   0.0000       0.453208        12.3324 
 296   0.0000       0.454392        12.3646 
 297   0.0000       0.456505        12.4221 
 298   0.0000       0.468428        12.7466 
 299   0.0000       0.470251        12.7962 
 300   0.0000       0.472180        12.8487 
 301   0.0000       0.474638        12.9156 
 302   0.0000       0.479402        13.0452 
 303   0.0000       0.480972        13.0879 
 304   0.0000       0.486955        13.2507 
 305   0.0000       0.488641        13.2966 
 306   0.0000       0.492629        13.4051 
 307   0.0000       0.493391        13.4258 
 308   0.0000       0.498751        13.5717 
 309   0.0000       0.501019        13.6334 
 310   0.0000       0.506201        13.7744 
 311   0.0000       0.508812        13.8455 
 312   0.0000       0.516040        14.0422 
 313   0.0000       0.517080        14.0705 
 314   0.0000       0.520110        14.1529 
 315   0.0000       0.523805        14.2534 
 316   0.0000       0.525803        14.3078 
 317   0.0000       0.530699        14.4411 
 318   0.0000       0.538588        14.6557 
 319   0.0000       0.539512        14.6809 
 320   0.0000       0.544776        14.8241 
 321   0.0000       0.549605        14.9555 
 322   0.0000       0.560722        15.2580 
 323   0.0000       0.583879        15.8882 
 324   0.0000       0.588009        16.0005 
 325   0.0000       0.590471        16.0675 
 326   0.0000       0.599359        16.3094 
 327   0.0000       0.615945        16.7607 
 328   0.0000       0.625380        17.0175 
 329   0.0000       0.659891        17.9566 
 330   0.0000       0.671945        18.2846 
 331   0.0000       0.676466        18.4076 
 332   0.0000       0.680938        18.5293 
 333   0.0000       0.687500        18.7078 
 334   0.0000       0.698380        19.0039 
 335   0.0000       0.702652        19.1201 
 336   0.0000       0.709239        19.2994 
 337   0.0000       0.712411        19.3857 
 338   0.0000       0.718556        19.5529 
 339   0.0000       0.730256        19.8713 
 340   0.0000       0.739641        20.1267 
 341   0.0000       0.757321        20.6077 
 342   0.0000       0.759000        20.6534 
 343   0.0000       0.770617        20.9696 
 344   0.0000       0.775792        21.1104 
 345   0.0000       0.779012        21.1980 
 346   0.0000       0.790102        21.4998 
 347   0.0000       0.796740        21.6804 
 348   0.0000       0.799035        21.7429 
 349   0.0000       0.805281        21.9128 
 350   0.0000       0.810686        22.0599 
 351   0.0000       0.820056        22.3149 
 352   0.0000       0.827717        22.5233 
 353   0.0000       0.834184        22.6993 
 354   0.0000       0.835265        22.7287 
 355   0.0000       0.846622        23.0378 
 356   0.0000       0.852737        23.2042 
 357   0.0000       0.863324        23.4922 
 358   0.0000       0.868826        23.6419 
 359   0.0000       0.874513        23.7967 
 360   0.0000       0.885396        24.0929 
 361   0.0000       0.885855        24.1053 
 362   0.0000       0.890517        24.2322 
 363   0.0000       0.902119        24.5479 
 364   0.0000       0.905494        24.6398 
 365   0.0000       0.917764        24.9736 
 366   0.0000       0.918446        24.9922 
 367   0.0000       0.931776        25.3549 
 368   0.0000       0.938265        25.5315 
 369   0.0000       0.939171        25.5562 
 370   0.0000       0.946374        25.7521 
 371   0.0000       0.958861        26.0919 
 372   0.0000       0.963747        26.2249 
 373   0.0000       0.970711        26.4144 
 374   0.0000       0.981200        26.6998 
 375   0.0000       0.991113        26.9695 
 376   0.0000       1.011156        27.5149 
 377   0.0000       1.017056        27.6755 
 378   0.0000       1.021943        27.8085 
 379   0.0000       1.050541        28.5867 
 380   0.0000       1.073766        29.2187 
 381   0.0000       1.189124        32.3577 
 382   0.0000       1.194692        32.5092 
 383   0.0000       1.214708        33.0539 
 384   0.0000       1.223286        33.2873 
 385   0.0000       1.229534        33.4573 
 386   0.0000       1.237825        33.6829 
 387   0.0000       1.247245        33.9393 
 388   0.0000       1.252720        34.0882 
 389   0.0000       1.268877        34.5279 
 390   0.0000       1.277623        34.7659 
 391   0.0000       1.281129        34.8613 
 392   0.0000       1.298643        35.3379 
 393   0.0000       1.300688        35.3935 
 394   0.0000       1.308305        35.6008 
 395   0.0000       1.308904        35.6171 
 396   0.0000       1.325442        36.0671 
 397   0.0000       1.332614        36.2623 
 398   0.0000       1.334745        36.3202 
 399   0.0000       1.343119        36.5481 
 400   0.0000       1.351879        36.7865 
 401   0.0000       1.358284        36.9608 
 402   0.0000       1.362843        37.0848 
 403   0.0000       1.369116        37.2556 
 404   0.0000       1.371506        37.3206 
 405   0.0000       1.373254        37.3681 
 406   0.0000       1.374679        37.4069 
 407   0.0000       1.383092        37.6358 
 408   0.0000       1.387201        37.7477 
 409   0.0000       1.392106        37.8811 
 410   0.0000       1.397437        38.0262 
 411   0.0000       1.399989        38.0956 
 412   0.0000       1.403846        38.2006 
 413   0.0000       1.411062        38.3969 
 414   0.0000       1.413319        38.4584 
 415   0.0000       1.419657        38.6308 
 416   0.0000       1.421550        38.6823 
 417   0.0000       1.423349        38.7313 
 418   0.0000       1.425864        38.7997 
 419   0.0000       1.435815        39.0705 
 420   0.0000       1.436977        39.1021 
 421   0.0000       1.440097        39.1870 
 422   0.0000       1.445505        39.3342 
 423   0.0000       1.446937        39.3731 
 424   0.0000       1.447868        39.3985 
 425   0.0000       1.449177        39.4341 
 426   0.0000       1.452494        39.5244 
 427   0.0000       1.454782        39.5866 
 428   0.0000       1.457085        39.6493 
 429   0.0000       1.458533        39.6887 
 430   0.0000       1.462470        39.7958 
 431   0.0000       1.464926        39.8627 
 432   0.0000       1.467246        39.9258 
 433   0.0000       1.467863        39.9426 
 434   0.0000       1.470088        40.0031 
 435   0.0000       1.472094        40.0577 
 436   0.0000       1.472918        40.0801 
 437   0.0000       1.475130        40.1403 
 438   0.0000       1.476402        40.1749 
 439   0.0000       1.477835        40.2139 
 440   0.0000       1.479891        40.2699 
 441   0.0000       1.482124        40.3306 
 442   0.0000       1.487014        40.4637 
 443   0.0000       1.487317        40.4720 
 444   0.0000       1.488546        40.5054 
 445   0.0000       1.490214        40.5508 
 446   0.0000       1.493306        40.6349 
 447   0.0000       1.493660        40.6445 
 448   0.0000       1.496557        40.7234 
 449   0.0000       1.497432        40.7472 
 450   0.0000       1.498816        40.7848 
 451   0.0000       1.499366        40.7998 
 452   0.0000       1.499725        40.8096 
 453   0.0000       1.500257        40.8241 
 454   0.0000       1.502046        40.8727 
 455   0.0000       1.502888        40.8957 
 456   0.0000       1.503228        40.9049 
 457   0.0000       1.505437        40.9650 
 458   0.0000       1.506871        41.0040 
 459   0.0000       1.507087        41.0099 
 460   0.0000       1.507544        41.0224 
 461   0.0000       1.510118        41.0924 
 462   0.0000       1.511656        41.1342 
 463   0.0000       1.513396        41.1816 
 464   0.0000       1.514226        41.2042 
 465   0.0000       1.515739        41.2454 
 466   0.0000       1.517979        41.3063 
 467   0.0000       1.518877        41.3307 
 468   0.0000       1.519939        41.3596 
 469   0.0000       1.520756        41.3819 
 470   0.0000       1.522357        41.4254 
 471   0.0000       1.523504        41.4566 
 472   0.0000       1.525271        41.5047 
 473   0.0000       1.526521        41.5388 
 474   0.0000       1.527535        41.5663 
 475   0.0000       1.528956        41.6050 
 476   0.0000       1.530319        41.6421 
 477   0.0000       1.531393        41.6713 
 478   0.0000       1.532213        41.6936 
 479   0.0000       1.534402        41.7532 
 480   0.0000       1.536685        41.8153 
 481   0.0000       1.536975        41.8232 
 482   0.0000       1.539681        41.8969 
 483   0.0000       1.542138        41.9637 
 484   0.0000       1.542825        41.9824 
 485   0.0000       1.550501        42.1913 
 486   0.0000       1.552633        42.2493 
 487   0.0000       1.556161        42.3453 
 488   0.0000       1.557527        42.3825 
 489   0.0000       1.559890        42.4468 
 490   0.0000       1.563173        42.5361 
 491   0.0000       1.564967        42.5849 
 492   0.0000       1.566820        42.6353 
 493   0.0000       1.570806        42.7438 
 494   0.0000       1.572119        42.7795 
 495   0.0000       1.574964        42.8570 
 496   0.0000       1.575204        42.8635 
 497   0.0000       1.578567        42.9550 
 498   0.0000       1.579952        42.9927 
 499   0.0000       1.582123        43.0517 
 500   0.0000       1.582409        43.0595 
 501   0.0000       1.583367        43.0856 
 502   0.0000       1.587173        43.1892 
 503   0.0000       1.589495        43.2524 
 504   0.0000       1.591612        43.3100 
 505   0.0000       1.593814        43.3699 
 506   0.0000       1.595113        43.4052 
 507   0.0000       1.600446        43.5503 
 508   0.0000       1.602687        43.6113 
 509   0.0000       1.604714        43.6665 
 510   0.0000       1.606674        43.7198 
 511   0.0000       1.610493        43.8237 
 512   0.0000       1.613319        43.9006 
 513   0.0000       1.615123        43.9497 
 514   0.0000       1.617113        44.0039 
 515   0.0000       1.621677        44.1281 
 516   0.0000       1.622392        44.1475 
 517   0.0000       1.624752        44.2117 
 518   0.0000       1.627001        44.2729 
 519   0.0000       1.627197        44.2783 
 520   0.0000       1.629818        44.3496 
 521   0.0000       1.633894        44.4605 
 522   0.0000       1.635483        44.5037 
 523   0.0000       1.636063        44.5195 
 524   0.0000       1.644189        44.7407 
 525   0.0000       1.648917        44.8693 
 526   0.0000       1.651243        44.9326 
 527   0.0000       1.654313        45.0162 
 528   0.0000       1.657251        45.0961 
 529   0.0000       1.662430        45.2370 
 530   0.0000       1.667629        45.3785 
 531   0.0000       1.670566        45.4584 
 532   0.0000       1.676305        45.6146 
 533   0.0000       1.681288        45.7502 
 534   0.0000       1.687562        45.9209 
 535   0.0000       1.688466        45.9455 
 536   0.0000       1.695316        46.1319 
 537   0.0000       1.699496        46.2456 
 538   0.0000       1.712304        46.5942 
 539   0.0000       1.721368        46.8408 
 540   0.0000       1.722416        46.8693 
 541   0.0000       1.731696        47.1218 
 542   0.0000       1.733573        47.1729 
 543   0.0000       1.743052        47.4308 
 544   0.0000       1.749947        47.6185 
 545   0.0000       1.757513        47.8243 
 546   0.0000       1.759492        47.8782 
 547   0.0000       1.770438        48.1761 
 548   0.0000       1.772610        48.2352 
 549   0.0000       1.778792        48.4034 
 550   0.0000       1.782601        48.5071 
 551   0.0000       1.790832        48.7310 
 552   0.0000       1.792544        48.7776 
 553   0.0000       1.798198        48.9315 
 554   0.0000       1.801465        49.0204 
 555   0.0000       1.811500        49.2934 
 556   0.0000       1.813896        49.3586 
 557   0.0000       1.815389        49.3992 
 558   0.0000       1.820877        49.5486 
 559   0.0000       1.825701        49.6799 
 560   0.0000       1.831412        49.8353 
 561   0.0000       1.835579        49.9486 
 562   0.0000       1.845288        50.2128 
 563   0.0000       1.854572        50.4655 
 564   0.0000       1.857693        50.5504 
 565   0.0000       1.861375        50.6506 
 566   0.0000       1.862733        50.6876 
 567   0.0000       1.869164        50.8625 
 568   0.0000       1.879805        51.1521 
 569   0.0000       1.902690        51.7748 
 570   0.0000       1.915430        52.1215 
 571   0.0000       1.920909        52.2706 
 572   0.0000       1.946308        52.9617 
 573   0.0000       1.950833        53.0849 
 574   0.0000       1.996571        54.3295 
 575   0.0000       2.013053        54.7780 
 576   0.0000       2.089705        56.8638 
 577   0.0000       2.276748        61.9535 
 578   0.0000       2.291978        62.3679 
 579   0.0000       2.293993        62.4227 
 580   0.0000       2.362078        64.2754 
 581   0.0000       2.420274        65.8590 
 582   0.0000       2.434991        66.2595 
 583   0.0000       2.459312        66.9213 
 584   0.0000       2.479220        67.4630 
 585   0.0000       2.501810        68.0777 
 586   0.0000       2.507440        68.2309 
 587   0.0000       2.531897        68.8964 
 588   0.0000       2.536796        69.0297 
 589   0.0000       2.563669        69.7610 
 590   0.0000       2.586782        70.3899 
 591   0.0000       2.595353        70.6231 
 592   0.0000       2.702903        73.5497 
 593   0.0000       3.125779        85.0568 
 594   0.0000       3.170139        86.2639 
 595   0.0000       3.172691        86.3333 
 596   0.0000       3.202550        87.1458 
 597   0.0000       3.204186        87.1903 
 598   0.0000       3.216999        87.5390 
 599   0.0000       3.217592        87.5551 
 600   0.0000       3.230602        87.9092 
 601   0.0000       3.265697        88.8641 
 602   0.0000       3.273986        89.0897 
 603   0.0000       3.283773        89.3560 
 604   0.0000       3.294045        89.6355 
 605   0.0000      23.849709       648.9836 
 606   0.0000      24.096952       655.7114 
 607   0.0000      24.224166       659.1731 
 608   0.0000      24.292951       661.0448 
 609   0.0000      24.397743       663.8963 
 610   0.0000      24.427495       664.7059 
 611   0.0000      24.583975       668.9640 
 612   0.0000      24.614757       669.8016 
 613   0.0000      24.759489       673.7399 
 614   0.0000      24.796676       674.7519 
 615   0.0000      24.944533       678.7752 
 616   0.0000      24.995290       680.1564 
 617   0.0000      25.059871       681.9138 
 618   0.0000      25.213763       686.1014 
 619   0.0000      25.260021       687.3601 
 620   0.0000      25.419402       691.6971 
 621   0.0000      25.476569       693.2527 
 622   0.0000      25.517767       694.3737 
 623   0.0000      25.603901       696.7176 
 624   0.0000      25.671837       698.5662 
 625   0.0000      25.779849       701.5053 
 626   0.0000      25.900331       704.7838 
 627   0.0000      26.000703       707.5151 
 628   0.0000      26.063885       709.2344 
 629   0.0000      26.077844       709.6142 
 630   0.0000      26.119314       710.7427 
 631   0.0000      26.136765       711.2175 
 632   0.0000      26.248044       714.2456 
 633   0.0000      26.427559       719.1304 
 634   0.0000      26.439253       719.4487 
 635   0.0000      26.598478       723.7814 
 636   0.0000      26.613636       724.1939 
 637   0.0000      26.704847       726.6758 
 638   0.0000      26.782569       728.7907 
 639   0.0000      26.816762       729.7212 
 640   0.0000      26.878424       731.3991 
 641   0.0000      26.909093       732.2336 
 642   0.0000      26.956984       733.5368 
 643   0.0000      27.067020       736.5311 
 644   0.0000      27.111970       737.7542 
 645   0.0000      27.332010       743.7418 
 646   0.0000      27.448501       746.9117 
 647   0.0000      27.661826       752.7165 
 648   0.0000      27.731238       754.6054 
 649   0.0000      27.842484       757.6325 
 650   0.0000      27.986366       761.5477 
 651   0.0000      28.005516       762.0688 
 652   0.0000      28.211856       767.6836 
 653   0.0000      43.839081      1192.9220 
 654   0.0000      44.016066      1197.7381 
 655   0.0000      44.027856      1198.0589 
 656   0.0000      44.038365      1198.3448 
 657   0.0000      44.083454      1199.5718 
 658   0.0000      44.130750      1200.8588 
 659   0.0000      44.141955      1201.1637 
 660   0.0000      44.157161      1201.5774 
 661   0.0000      44.165224      1201.7968 
 662   0.0000      44.172023      1201.9819 
 663   0.0000      44.186940      1202.3878 
 664   0.0000      44.215663      1203.1694 
 665   0.0000      44.228755      1203.5256 
 666   0.0000      44.256120      1204.2702 
 667   0.0000      44.267746      1204.5866 
 668   0.0000      44.286273      1205.0907 
 669   0.0000     205.063591      5580.0640 
 670   0.0000     205.135363      5582.0170 
 671   0.0000     205.142045      5582.1988 
 672   0.0000     205.144715      5582.2715 
 673   0.0000     205.165446      5582.8356 
 674   0.0000     205.186479      5583.4080 
 675   0.0000     205.187928      5583.4474 
 676   0.0000     205.194419      5583.6240 
 677   0.0000     205.203611      5583.8741 
 678   0.0000     205.207730      5583.9862 
 679   0.0000     205.210363      5584.0579 
 680   0.0000     205.221968      5584.3737 
 681   0.0000     205.224421      5584.4404 
 682   0.0000     205.243790      5584.9675 
 683   0.0000     205.245906      5585.0250 
 684   0.0000     205.252313      5585.1994 

                 SPIN DOWN ORBITALS
  NO   OCC          E(Eh)            E(eV) 
   0   1.0000    -234.221125     -6373.4808 
   1   1.0000     -26.850402      -730.6366 
   2   1.0000     -23.015566      -626.2854 
   3   1.0000     -23.014956      -626.2688 
   4   1.0000     -23.014759      -626.2634 
   5   1.0000      -4.035974      -109.8244 
   6   1.0000      -4.035745      -109.8182 
   7   1.0000      -4.035718      -109.8175 
   8   1.0000      -4.034213      -109.7765 
   9   1.0000      -4.034021      -109.7713 
  10   1.0000      -4.024161      -109.5030 
  11   1.0000      -4.023346      -109.4808 
  12   1.0000      -4.022842      -109.4671 
  13   1.0000      -4.022499      -109.4578 
  14   1.0000      -4.022223      -109.4503 
  15   1.0000      -4.021548      -109.4319 
  16   1.0000      -4.021350      -109.4265 
  17   1.0000      -4.020586      -109.4057 
  18   1.0000      -4.019854      -109.3858 
  19   1.0000      -4.018072      -109.3373 
  20   1.0000      -4.016161      -109.2853 
  21   1.0000      -2.960549       -80.5606 
  22   1.0000      -2.253284       -61.3150 
  23   1.0000      -2.252185       -61.2851 
  24   1.0000      -2.252092       -61.2825 
  25   1.0000      -2.251663       -61.2709 
  26   1.0000      -2.251135       -61.2565 
  27   1.0000      -2.250034       -61.2265 
  28   1.0000      -2.249408       -61.2095 
  29   1.0000      -2.248076       -61.1733 
  30   1.0000      -2.246861       -61.1402 
  31   1.0000      -2.245621       -61.1064 
  32   1.0000      -2.245184       -61.0946 
  33   1.0000      -2.243247       -61.0419 
  34   1.0000      -2.242369       -61.0180 
  35   1.0000      -2.242282       -61.0156 
  36   1.0000      -2.241646       -60.9983 
  37   1.0000      -2.241428       -60.9923 
  38   1.0000      -2.240719       -60.9731 
  39   1.0000      -2.240125       -60.9569 
  40   1.0000      -2.239445       -60.9384 
  41   1.0000      -2.239335       -60.9354 
  42   1.0000      -2.239079       -60.9284 
  43   1.0000      -2.237643       -60.8894 
  44   1.0000      -2.237000       -60.8719 
  45   1.0000      -2.236276       -60.8522 
  46   1.0000      -2.236159       -60.8490 
  47   1.0000      -2.236052       -60.8461 
  48   1.0000      -2.235461       -60.8300 
  49   1.0000      -2.234618       -60.8071 
  50   1.0000      -2.234558       -60.8054 
  51   1.0000      -2.234352       -60.7998 
  52   1.0000      -2.233942       -60.7887 
  53   1.0000      -2.233435       -60.7749 
  54   1.0000      -2.233215       -60.7689 
  55   1.0000      -2.233033       -60.7639 
  56   1.0000      -2.232843       -60.7587 
  57   1.0000      -2.232621       -60.7527 
  58   1.0000      -2.232593       -60.7519 
  59   1.0000      -2.232311       -60.7443 
  60   1.0000      -2.231962       -60.7348 
  61   1.0000      -2.231571       -60.7241 
  62   1.0000      -2.230890       -60.7056 
  63   1.0000      -2.230631       -60.6986 
  64   1.0000      -2.230281       -60.6890 
  65   1.0000      -2.229672       -60.6725 
  66   1.0000      -2.229510       -60.6681 
  67   1.0000      -2.229182       -60.6591 
  68   1.0000      -2.227972       -60.6262 
  69   1.0000      -2.222572       -60.4793 
  70   1.0000      -1.867590       -50.8197 
  71   1.0000      -1.865084       -50.7515 
  72   1.0000      -1.864951       -50.7479 
  73   1.0000      -0.415041       -11.2938 
  74   1.0000      -0.388115       -10.5611 
  75   1.0000      -0.386508       -10.5174 
  76   1.0000      -0.384317       -10.4578 
  77   1.0000      -0.368604       -10.0302 
  78   1.0000      -0.366970        -9.9858 
  79   1.0000      -0.366050        -9.9607 
  80   1.0000      -0.365562        -9.9475 
  81   1.0000      -0.362992        -9.8775 
  82   1.0000      -0.359131        -9.7724 
  83   1.0000      -0.358066        -9.7435 
  84   1.0000      -0.357514        -9.7285 
  85   1.0000      -0.355953        -9.6860 
  86   1.0000      -0.354440        -9.6448 
  87   1.0000      -0.352770        -9.5994 
  88   1.0000      -0.349521        -9.5110 
  89   1.0000      -0.346790        -9.4366 
  90   1.0000      -0.345007        -9.3881 
  91   1.0000      -0.344252        -9.3676 
  92   1.0000      -0.342937        -9.3318 
  93   1.0000      -0.340552        -9.2669 
  94   1.0000      -0.337191        -9.1754 
  95   1.0000      -0.336692        -9.1619 
  96   1.0000      -0.334767        -9.1095 
  97   1.0000      -0.333731        -9.0813 
  98   1.0000      -0.330388        -8.9903 
  99   1.0000      -0.329249        -8.9593 
 100   1.0000      -0.327112        -8.9012 
 101   1.0000      -0.326141        -8.8747 
 102   1.0000      -0.324184        -8.8215 
 103   1.0000      -0.320881        -8.7316 
 104   1.0000      -0.317796        -8.6477 
 105   1.0000      -0.313032        -8.5180 
 106   1.0000      -0.309481        -8.4214 
 107   1.0000      -0.307749        -8.3743 
 108   1.0000      -0.306369        -8.3367 
 109   1.0000      -0.304955        -8.2982 
 110   1.0000      -0.302911        -8.2426 
 111   1.0000      -0.300825        -8.1859 
 112   1.0000      -0.298155        -8.1132 
 113   1.0000      -0.296877        -8.0784 
 114   1.0000      -0.295033        -8.0282 
 115   1.0000      -0.292490        -7.9590 
 116   1.0000      -0.289956        -7.8901 
 117   1.0000      -0.289751        -7.8845 
 118   1.0000      -0.287380        -7.8200 
 119   1.0000      -0.287036        -7.8106 
 120   1.0000      -0.284558        -7.7432 
 121   1.0000      -0.283280        -7.7084 
 122   1.0000      -0.282653        -7.6914 
 123   1.0000      -0.280564        -7.6345 
 124   1.0000      -0.278618        -7.5816 
 125   1.0000      -0.277577        -7.5532 
 126   1.0000      -0.274197        -7.4613 
 127   1.0000      -0.273505        -7.4425 
 128   1.0000      -0.271416        -7.3856 
 129   1.0000      -0.271189        -7.3794 
 130   1.0000      -0.267484        -7.2786 
 131   1.0000      -0.265253        -7.2179 
 132   1.0000      -0.263707        -7.1758 
 133   1.0000      -0.261340        -7.1114 
 134   1.0000      -0.260804        -7.0968 
 135   1.0000      -0.259719        -7.0673 
 136   1.0000      -0.259455        -7.0601 
 137   1.0000      -0.257994        -7.0204 
 138   1.0000      -0.257317        -7.0020 
 139   1.0000      -0.255695        -6.9578 
 140   1.0000      -0.254308        -6.9201 
 141   1.0000      -0.253504        -6.8982 
 142   1.0000      -0.252300        -6.8654 
 143   1.0000      -0.251669        -6.8483 
 144   1.0000      -0.250010        -6.8031 
 145   1.0000      -0.249398        -6.7865 
 146   1.0000      -0.248010        -6.7487 
 147   1.0000      -0.246118        -6.6972 
 148   1.0000      -0.244640        -6.6570 
 149   1.0000      -0.244070        -6.6415 
 150   1.0000      -0.242847        -6.6082 
 151   1.0000      -0.242581        -6.6010 
 152   1.0000      -0.241272        -6.5653 
 153   1.0000      -0.238310        -6.4847 
 154   1.0000      -0.236350        -6.4314 
 155   1.0000      -0.235130        -6.3982 
 156   1.0000      -0.234330        -6.3764 
 157   1.0000      -0.226238        -6.1562 
 158   1.0000      -0.214090        -5.8257 
 159   1.0000      -0.210816        -5.7366 
 160   1.0000      -0.208801        -5.6818 
 161   1.0000      -0.192952        -5.2505 
 162   0.0000      -0.162679        -4.4267 
 163   0.0000      -0.158588        -4.3154 
 164   0.0000      -0.156916        -4.2699 
 165   0.0000      -0.147485        -4.0133 
 166   0.0000      -0.145920        -3.9707 
 167   0.0000      -0.142977        -3.8906 
 168   0.0000      -0.133865        -3.6426 
 169   0.0000      -0.127777        -3.4770 
 170   0.0000      -0.126049        -3.4300 
 171   0.0000      -0.123797        -3.3687 
 172   0.0000      -0.121499        -3.3061 
 173   0.0000      -0.104028        -2.8307 
 174   0.0000      -0.102615        -2.7923 
 175   0.0000      -0.080073        -2.1789 
 176   0.0000      -0.067275        -1.8306 
 177   0.0000      -0.062497        -1.7006 
 178   0.0000      -0.040707        -1.1077 
 179   0.0000      -0.039200        -1.0667 
 180   0.0000      -0.038212        -1.0398 
 181   0.0000      -0.033818        -0.9202 
 182   0.0000      -0.027484        -0.7479 
 183   0.0000      -0.026055        -0.7090 
 184   0.0000      -0.012507        -0.3403 
 185   0.0000      -0.011310        -0.3078 
 186   0.0000      -0.007243        -0.1971 
 187   0.0000      -0.003617        -0.0984 
 188   0.0000       0.003551         0.0966 
 189   0.0000       0.012585         0.3424 
 190   0.0000       0.022143         0.6025 
 191   0.0000       0.024544         0.6679 
 192   0.0000       0.039283         1.0689 
 193   0.0000       0.054906         1.4941 
 194   0.0000       0.056453         1.5362 
 195   0.0000       0.057177         1.5559 
 196   0.0000       0.058909         1.6030 
 197   0.0000       0.061610         1.6765 
 198   0.0000       0.063214         1.7201 
 199   0.0000       0.066957         1.8220 
 200   0.0000       0.067980         1.8498 
 201   0.0000       0.069275         1.8851 
 202   0.0000       0.070622         1.9217 
 203   0.0000       0.073601         2.0028 
 204   0.0000       0.074995         2.0407 
 205   0.0000       0.078092         2.1250 
 206   0.0000       0.081296         2.2122 
 207   0.0000       0.087847         2.3904 
 208   0.0000       0.090680         2.4675 
 209   0.0000       0.094310         2.5663 
 210   0.0000       0.098884         2.6908 
 211   0.0000       0.111272         3.0279 
 212   0.0000       0.114285         3.1099 
 213   0.0000       0.119674         3.2565 
 214   0.0000       0.125757         3.4220 
 215   0.0000       0.129348         3.5197 
 216   0.0000       0.138284         3.7629 
 217   0.0000       0.145296         3.9537 
 218   0.0000       0.146440         3.9848 
 219   0.0000       0.151316         4.1175 
 220   0.0000       0.153392         4.1740 
 221   0.0000       0.158375         4.3096 
 222   0.0000       0.159377         4.3369 
 223   0.0000       0.161468         4.3938 
 224   0.0000       0.165328         4.4988 
 225   0.0000       0.166592         4.5332 
 226   0.0000       0.174666         4.7529 
 227   0.0000       0.177853         4.8396 
 228   0.0000       0.181841         4.9481 
 229   0.0000       0.186912         5.0861 
 230   0.0000       0.189026         5.1437 
 231   0.0000       0.193038         5.2528 
 232   0.0000       0.202604         5.5131 
 233   0.0000       0.205156         5.5826 
 234   0.0000       0.208326         5.6688 
 235   0.0000       0.214163         5.8277 
 236   0.0000       0.219344         5.9687 
 237   0.0000       0.221020         6.0143 
 238   0.0000       0.224716         6.1148 
 239   0.0000       0.226952         6.1757 
 240   0.0000       0.233033         6.3412 
 241   0.0000       0.234897         6.3919 
 242   0.0000       0.237267         6.4564 
 243   0.0000       0.242913         6.6100 
 244   0.0000       0.244156         6.6438 
 245   0.0000       0.248131         6.7520 
 246   0.0000       0.250595         6.8190 
 247   0.0000       0.252296         6.8653 
 248   0.0000       0.257013         6.9937 
 249   0.0000       0.261991         7.1291 
 250   0.0000       0.262747         7.1497 
 251   0.0000       0.275661         7.5011 
 252   0.0000       0.276829         7.5329 
 253   0.0000       0.278866         7.5883 
 254   0.0000       0.286796         7.8041 
 255   0.0000       0.292445         7.9578 
[...]
      py      :     2.290402
      dz2     :     1.964109  d :     9.862134
      dxz     :     1.975254
      dyz     :     1.964115
      dx2y2   :     1.982131
      dxy     :     1.976526
      f0      :     0.000848  f :     0.007117
      f+1     :     0.000821
      f-1     :     0.001459
      f+2     :     0.000754
      f-2     :     0.001086
      f+3     :     0.001033
      f-3     :     0.001116
 10 Aus       :     2.614951  s :     2.614951
      pz      :     2.112766  p :     6.515537
      px      :     2.163522
      py      :     2.239249
      dz2     :     1.979774  d :     9.836717
      dxz     :     1.965269
      dyz     :     1.998170
      dx2y2   :     1.953321
      dxy     :     1.940182
      f0      :     0.000822  f :     0.005725
      f+1     :     0.000693
      f-1     :     0.000764
      f+2     :     0.001005
      f-2     :     0.000890
      f+3     :     0.000708
      f-3     :     0.000842
 11 Aus       :     2.568667  s :     2.568667
      pz      :     2.180936  p :     6.625821
      px      :     2.250057
      py      :     2.194827
      dz2     :     1.981025  d :     9.859065
      dxz     :     1.986561
      dyz     :     1.968752
      dx2y2   :     1.957385
      dxy     :     1.965343
      f0      :     0.000823  f :     0.006511
      f+1     :     0.000957
      f-1     :     0.000729
      f+2     :     0.000776
      f-2     :     0.001276
      f+3     :     0.000896
      f-3     :     0.001053
 12 Aus       :     2.551133  s :     2.551133
      pz      :     2.159268  p :     6.578121
      px      :     2.188473
      py      :     2.230379
      dz2     :     2.000507  d :     9.925928
      dxz     :     1.971426
      dyz     :     1.993386
      dx2y2   :     1.994235
      dxy     :     1.966374
      f0      :     0.000761  f :     0.006600
      f+1     :     0.000822
      f-1     :     0.001077
      f+2     :     0.000762
      f-2     :     0.000994
      f+3     :     0.001281
      f-3     :     0.000902
 13 Aus       :     2.586491  s :     2.586491
      pz      :     2.205028  p :     6.488925
      px      :     2.143421
      py      :     2.140476
      dz2     :     1.983997  d :     9.884887
      dxz     :     1.968937
      dyz     :     1.976266
      dx2y2   :     1.971830
      dxy     :     1.983857
      f0      :     0.001066  f :     0.006268
      f+1     :     0.001158
      f-1     :     0.000802
      f+2     :     0.001052
      f-2     :     0.000637
      f+3     :     0.000739
      f-3     :     0.000814
 14 Aus       :     2.655613  s :     2.655613
      pz      :     2.142217  p :     6.354492
      px      :     2.105313
      py      :     2.106963
      dz2     :     1.972658  d :     9.874982
      dxz     :     1.981782
      dyz     :     1.985046
      dx2y2   :     1.950453
      dxy     :     1.985044
      f0      :     0.000520  f :     0.005050
      f+1     :     0.000652
      f-1     :     0.000704
      f+2     :     0.000866
      f-2     :     0.000662
      f+3     :     0.000790
      f-3     :     0.000855
 15 Aus       :     2.516373  s :     2.516373
      pz      :     2.250061  p :     6.639411
      px      :     2.304631
      py      :     2.084719
      dz2     :     1.975430  d :     9.935607
      dxz     :     1.976689
      dyz     :     2.000649
      dx2y2   :     1.997637
      dxy     :     1.985202
      f0      :     0.000930  f :     0.007382
      f+1     :     0.001527
      f-1     :     0.000799
      f+2     :     0.001072
      f-2     :     0.001036
      f+3     :     0.001186
      f-3     :     0.000831
 16 Mns       :     6.415528  s :     6.415528
      pz      :     4.144565  p :    12.509710
      px      :     4.171991
      py      :     4.193154
      dz2     :     1.221510  d :     5.899135
      dxz     :     1.155771
      dyz     :     1.135549
      dx2y2   :     1.158717
      dxy     :     1.227588
      f0      :     0.000097  f :     0.000718
      f+1     :     0.000098
      f-1     :     0.000123
      f+2     :     0.000081
      f-2     :     0.000090
      f+3     :     0.000083
      f-3     :     0.000146

SPIN
  0 Aus       :    -0.055533  s :    -0.055533
      pz      :    -0.006562  p :    -0.055736
      px      :    -0.024651
      py      :    -0.024522
      dz2     :    -0.001039  d :    -0.035825
      dxz     :    -0.001441
      dyz     :    -0.011294
      dx2y2   :    -0.021399
      dxy     :    -0.000651
      f0      :    -0.000005  f :    -0.000099
      f+1     :    -0.000005
      f-1     :    -0.000006
      f+2     :    -0.000041
      f-2     :    -0.000018
      f+3     :    -0.000011
      f-3     :    -0.000012
  1 Aus       :    -0.038263  s :    -0.038263
      pz      :     0.002019  p :    -0.024354
      px      :    -0.006556
      py      :    -0.019816
      dz2     :     0.007077  d :     0.021643
      dxz     :    -0.002143
      dyz     :     0.013645
      dx2y2   :     0.000771
      dxy     :     0.002294
      f0      :     0.000110  f :     0.000422
      f+1     :     0.000058
      f-1     :     0.000193
      f+2     :     0.000065
      f-2     :     0.000023
      f+3     :    -0.000009
      f-3     :    -0.000018
  2 Aus       :    -0.095580  s :    -0.095580
      pz      :    -0.017992  p :    -0.060447
      px      :    -0.020114
      py      :    -0.022341
      dz2     :    -0.003069  d :    -0.038371
      dxz     :    -0.003801
      dyz     :    -0.007822
      dx2y2   :    -0.021886
      dxy     :    -0.001793
      f0      :    -0.000011  f :    -0.000093
      f+1     :    -0.000011
      f-1     :    -0.000014
      f+2     :    -0.000007
      f-2     :    -0.000007
      f+3     :    -0.000031
      f-3     :    -0.000012
  3 Aus       :    -0.092675  s :    -0.092675
      pz      :     0.000444  p :    -0.009797
      px      :    -0.013640
      py      :     0.003398
      dz2     :    -0.010402  d :    -0.038238
      dxz     :    -0.004915
      dyz     :    -0.017195
      dx2y2   :    -0.004254
      dxy     :    -0.001471
      f0      :    -0.000001  f :    -0.000065
      f+1     :    -0.000003
      f-1     :    -0.000004
      f+2     :    -0.000006
      f-2     :    -0.000010
      f+3     :    -0.000036
      f-3     :    -0.000005
  4 Aus       :    -0.058618  s :    -0.058618
      pz      :    -0.034796  p :    -0.057396
      px      :    -0.007117
      py      :    -0.015484
      dz2     :     0.005238  d :     0.024353
      dxz     :    -0.001402
      dyz     :    -0.003992
      dx2y2   :     0.011328
      dxy     :     0.013181
      f0      :    -0.000020  f :     0.000349
      f+1     :     0.000056
      f-1     :     0.000025
      f+2     :     0.000001
      f-2     :     0.000046
      f+3     :     0.000078
      f-3     :     0.000164
  5 Aus       :    -0.007751  s :    -0.007751
      pz      :    -0.000496  p :    -0.026958
      px      :    -0.026242
      py      :    -0.000220
      dz2     :    -0.000276  d :    -0.010105
      dxz     :    -0.005850
      dyz     :    -0.001456
      dx2y2   :    -0.002645
      dxy     :     0.000122
      f0      :    -0.000001  f :    -0.000030
      f+1     :    -0.000002
      f-1     :    -0.000002
      f+2     :    -0.000007
      f-2     :    -0.000007
      f+3     :    -0.000006
      f-3     :    -0.000004
  6 Aus       :    -0.028517  s :    -0.028517
      pz      :    -0.007242  p :    -0.028828
      px      :    -0.000075
      py      :    -0.021511
      dz2     :    -0.005322  d :    -0.038344
      dxz     :    -0.000675
      dyz     :    -0.005033
      dx2y2   :    -0.020281
      dxy     :    -0.007032
      f0      :    -0.000007  f :    -0.000074
      f+1     :    -0.000006
      f-1     :    -0.000008
      f+2     :    -0.000022
      f-2     :     0.000004
      f+3     :    -0.000027
      f-3     :    -0.000006
  7 Aus       :    -0.025861  s :    -0.025861
      pz      :    -0.023517  p :    -0.048882
      px      :    -0.020548
      py      :    -0.004816
      dz2     :    -0.015266  d :    -0.023411
      dxz     :    -0.000467
      dyz     :     0.001130
      dx2y2   :    -0.007054
      dxy     :    -0.001754
      f0      :    -0.000018  f :    -0.000064
      f+1     :    -0.000015
      f-1     :    -0.000006
      f+2     :    -0.000000
      f-2     :     0.000000
      f+3     :    -0.000001
      f-3     :    -0.000024
  8 Aus       :    -0.011655  s :    -0.011655
      pz      :    -0.005374  p :    -0.052526
      px      :    -0.030176
      py      :    -0.016976
      dz2     :    -0.002246  d :    -0.040184
      dxz     :     0.000145
      dyz     :    -0.014644
      dx2y2   :    -0.015039
      dxy     :    -0.008399
      f0      :    -0.000019  f :    -0.000069
      f+1     :    -0.000008
      f-1     :     0.000003
      f+2     :    -0.000046
      f-2     :     0.000002
      f+3     :    -0.000000
      f-3     :     0.000000
  9 Aus       :    -0.044193  s :    -0.044193
      pz      :     0.004501  p :    -0.021959
      px      :    -0.021557
      py      :    -0.004903
      dz2     :     0.008048  d :     0.034152
      dxz     :     0.012362
      dyz     :     0.004049
      dx2y2   :     0.004246
      dxy     :     0.005446
      f0      :     0.000060  f :     0.000375
      f+1     :     0.000105
      f-1     :     0.000042
      f+2     :     0.000071
      f-2     :     0.000095
      f+3     :    -0.000018
      f-3     :     0.000019
 10 Aus       :    -0.008278  s :    -0.008278
      pz      :    -0.011225  p :    -0.034167
      px      :    -0.005229
      py      :    -0.017713
      dz2     :    -0.002596  d :     0.027129
      dxz     :     0.006359
      dyz     :     0.001504
      dx2y2   :     0.009440
      dxy     :     0.012422
      f0      :     0.000035  f :     0.000353
      f+1     :     0.000055
      f-1     :    -0.000021
      f+2     :     0.000023
      f-2     :     0.000058
      f+3     :     0.000027
      f-3     :     0.000175
 11 Aus       :    -0.032337  s :    -0.032337
      pz      :     0.001312  p :    -0.021290
      px      :    -0.009621
      py      :    -0.012980
      dz2     :     0.007388  d :     0.034859
      dxz     :    -0.003175
      dyz     :     0.002913
      dx2y2   :     0.019638
      dxy     :     0.008095
      f0      :     0.000029  f :     0.000359
      f+1     :    -0.000008
      f-1     :     0.000089
      f+2     :     0.000037
      f-2     :     0.000010
      f+3     :     0.000059
      f-3     :     0.000142
 12 Aus       :    -0.030746  s :    -0.030746
      pz      :    -0.001052  p :    -0.030036
      px      :    -0.026219
      py      :    -0.002765
      dz2     :    -0.002635  d :    -0.011437
      dxz     :    -0.001055
      dyz     :    -0.007078
      dx2y2   :    -0.001821
      dxy     :     0.001151
      f0      :     0.000000  f :    -0.000077
      f+1     :    -0.000011
      f-1     :    -0.000043
      f+2     :    -0.000007
      f-2     :    -0.000007
      f+3     :    -0.000007
      f-3     :    -0.000001
 13 Aus       :    -0.012590  s :    -0.012590
      pz      :    -0.000220  p :    -0.053526
      px      :    -0.021794
      py      :    -0.031513
      dz2     :    -0.002504  d :    -0.035214
      dxz     :     0.000551
      dyz     :    -0.007228
      dx2y2   :    -0.021355
      dxy     :    -0.004678
      f0      :    -0.000023  f :    -0.000047
      f+1     :    -0.000004
      f-1     :     0.000002
      f+2     :    -0.000003
      f-2     :     0.000001
      f+3     :    -0.000002
      f-3     :    -0.000017
 14 Aus       :    -0.062520  s :    -0.062520
      pz      :    -0.014522  p :    -0.058616
      px      :    -0.028747
      py      :    -0.015348
      dz2     :     0.000867  d :    -0.035632
      dxz     :    -0.003549
      dyz     :    -0.000673
      dx2y2   :    -0.030175
      dxy     :    -0.002102
      f0      :    -0.000017  f :    -0.000084
      f+1     :    -0.000003
      f-1     :    -0.000014
      f+2     :    -0.000005
      f-2     :    -0.000019
      f+3     :    -0.000004
      f-3     :    -0.000023
 15 Aus       :    -0.021451  s :    -0.021451
      pz      :    -0.009009  p :    -0.024733
      px      :    -0.002766
      py      :    -0.012958
      dz2     :    -0.016902  d :    -0.039511
      dxz     :    -0.009207
      dyz     :     0.000356
      dx2y2   :    -0.012837
      dxy     :    -0.000922
      f0      :     0.000001  f :    -0.000064
      f+1     :    -0.000006
      f-1     :    -0.000005
      f+2     :    -0.000010
      f-2     :    -0.000023
      f+3     :     0.000002
      f-3     :    -0.000022
 16 Mns       :     0.071944  s :     0.071944
      pz      :     0.000022  p :     0.036986
      px      :     0.017059
      py      :     0.019905
      dz2     :     0.832508  d :     4.329883
      dxz     :     0.883736
      dyz     :     0.901435
      dx2y2   :     0.878170
      dxy     :     0.834034
      f0      :     0.000011  f :     0.000051
      f+1     :     0.000007
      f-1     :     0.000006
      f+2     :     0.000007
      f-2     :     0.000006
      f+3     :     0.000006
      f-3     :     0.000008


                      *****************************
                      * MAYER POPULATION ANALYSIS *
                      *****************************

  NA   - Mulliken gross atomic population
  ZA   - Total nuclear charge
  QA   - Mulliken gross atomic charge
  VA   - Mayer's total valence
  BVA  - Mayer's bonded valence
  FA   - Mayer's free valence

  ATOM       NA         ZA         QA         VA         BVA        FA
  0 Au    18.6897    19.0000     0.3103     1.6980     1.6817     0.0163
  1 Au    19.2830    19.0000    -0.2830     2.1556     2.1389     0.0167
  2 Au    18.5243    19.0000     0.4757     1.4474     1.4099     0.0375
  3 Au    19.9992    19.0000    -0.9992     2.5980     2.5347     0.0633
  4 Au    18.6601    19.0000     0.3399     1.6637     1.6417     0.0219
  5 Au    18.7475    19.0000     0.2525     1.6424     1.6417     0.0007
  6 Au    19.4994    19.0000    -0.4994     2.3483     2.3429     0.0054
  7 Au    18.7000    19.0000     0.3000     1.7505     1.7456     0.0050
  8 Au    18.8038    19.0000     0.1962     1.8198     1.8137     0.0062
  9 Au    19.2287    19.0000    -0.2287     2.0205     2.0054     0.0150
 10 Au    18.6424    19.0000     0.3576     1.7180     1.7145     0.0036
 11 Au    19.1901    19.0000    -0.1901     2.0984     2.0880     0.0103
 12 Au    19.0508    19.0000    -0.0508     1.8745     1.8681     0.0064
 13 Au    18.8093    19.0000     0.1907     1.8236     1.8177     0.0059
 14 Au    18.4951    19.0000     0.5049     1.4383     1.4181     0.0202
 15 Au    19.6569    19.0000    -0.6569     2.4627     2.4566     0.0061
 16 Mn    25.0197    25.0000    -0.0197     7.0248     2.9453     4.0795

  Mayer bond orders larger than 0.100000
B(  0-Au,  3-Au) :   0.2461 B(  0-Au,  5-Au) :   0.2178 B(  0-Au,  7-Au) :   0.2498 
B(  0-Au, 13-Au) :   0.3240 B(  0-Au, 15-Au) :   0.3620 B(  1-Au,  2-Au) :   0.2611 
B(  1-Au,  4-Au) :   0.2113 B(  1-Au,  6-Au) :   0.3591 B(  1-Au,  8-Au) :   0.2864 
B(  1-Au,  9-Au) :   0.2550 B(  1-Au, 16-Mn) :   0.4913 B(  2-Au,  6-Au) :   0.3925 
B(  2-Au,  9-Au) :   0.1858 B(  2-Au, 12-Au) :   0.1721 B(  3-Au,  4-Au) :   0.2382 
B(  3-Au,  6-Au) :   0.1096 B(  3-Au,  7-Au) :   0.3319 B(  3-Au,  8-Au) :   0.4055 
B(  3-Au, 10-Au) :   0.3429 B(  3-Au, 13-Au) :   0.3840 B(  3-Au, 15-Au) :   0.1296 
B(  3-Au, 16-Mn) :   0.1064 B(  4-Au,  8-Au) :   0.2612 B(  4-Au, 10-Au) :   0.2349 
B(  4-Au, 16-Mn) :   0.4801 B(  5-Au,  6-Au) :   0.2725 B(  5-Au,  7-Au) :   0.2373 
B(  5-Au, 12-Au) :   0.3318 B(  5-Au, 15-Au) :   0.3145 B(  6-Au,  7-Au) :   0.3884 
B(  6-Au,  8-Au) :   0.2530 B(  6-Au, 12-Au) :   0.3015 B(  7-Au,  8-Au) :   0.2954 
B(  9-Au, 11-Au) :   0.2063 B(  9-Au, 12-Au) :   0.2788 B(  9-Au, 14-Au) :   0.2395 
B(  9-Au, 15-Au) :   0.1201 B(  9-Au, 16-Mn) :   0.4898 B( 10-Au, 11-Au) :   0.2661 
B( 10-Au, 13-Au) :   0.2659 B( 10-Au, 16-Mn) :   0.4060 B( 11-Au, 13-Au) :   0.2615 
B( 11-Au, 14-Au) :   0.3007 B( 11-Au, 15-Au) :   0.3485 B( 11-Au, 16-Mn) :   0.4730 
B( 12-Au, 14-Au) :   0.1469 B( 12-Au, 15-Au) :   0.3758 B( 13-Au, 15-Au) :   0.2798 
B( 14-Au, 15-Au) :   0.3357 

-------
TIMINGS
-------

Total SCF time: 0 days 0 hours 4 min 40 sec 

Total time                  ....     280.327 sec
Sum of individual times     ....     273.295 sec  ( 97.5%)

Fock matrix formation       ....     246.407 sec  ( 87.9%)
  Split-RI-J                ....      86.942 sec  ( 35.3% of F)
  XC integration            ....     156.907 sec  ( 63.7% of F)
    Basis function eval.    ....      17.805 sec  ( 11.3% of XC)
    Density eval.           ....      75.368 sec  ( 48.0% of XC)
    XC-Functional eval.     ....       2.150 sec  (  1.4% of XC)
    XC-Potential eval.      ....      44.259 sec  ( 28.2% of XC)
Diagonalization             ....      20.897 sec  (  7.5%)
Density matrix formation    ....       0.869 sec  (  0.3%)
Population analysis         ....       0.761 sec  (  0.3%)
Initial guess               ....       0.935 sec  (  0.3%)
Orbital Transformation      ....       0.000 sec  (  0.0%)
Orbital Orthonormalization  ....       0.852 sec  (  0.3%)
DIIS solution               ....       0.000 sec  (  0.0%)
Grid generation             ....       3.426 sec  (  1.2%)

Maximum memory used throughout the entire SCF-calculation: 118.2 MB

-------------------------   --------------------
FINAL SINGLE POINT ENERGY     -3324.006296445721
-------------------------   --------------------


                            ***************************************
                            *     ORCA property calculations      *
                            ***************************************

                                    ---------------------
                                    Active property flags
                                    ---------------------
   (+) Dipole Moment


------------------------------------------------------------------------------
                       ORCA ELECTRIC PROPERTIES CALCULATION
------------------------------------------------------------------------------

Dipole Moment Calculation                       ... on
Quadrupole Moment Calculation                   ... off
Polarizability Calculation                      ... off
GBWName                                         ... pbeSP_job2.gbw
Electron density                                ... pbeSP_job2.scfp
The origin for moment calculation is the CENTER OF MASS  = (12.958463, 14.038981 14.487491)

-------------
DIPOLE MOMENT
-------------
                                X             Y             Z
Electronic contribution:    -48.34814     -44.78105     -97.77989
Nuclear contribution   :     48.81068      44.99236      98.54399
                        -----------------------------------------
Total Dipole Moment    :      0.46254       0.21131       0.76410
                        -----------------------------------------
Magnitude (a.u.)       :      0.91785
Magnitude (Debye)      :      2.33298



--------------------
Rotational spectrum 
--------------------
 
Rotational constants in cm-1:     0.000850     0.000804     0.000787 
Rotational constants in MHz :    25.493195    24.088324    23.595007 

 Dipole components along the rotational axes: 
x,y,z [a.u.] :    -0.120891    -0.158398     0.895956 
x,y,z [Debye]:    -0.307281    -0.402616     2.277339 

 

Timings for individual modules:

Sum of individual times         ...      311.450 sec (=   5.191 min)
GTO integral calculation        ...       30.819 sec (=   0.514 min)   9.9 %
SCF iterations                  ...      280.631 sec (=   4.677 min)  90.1 %



                             ****ORCA TERMINATED NORMALLY****
TOTAL RUN TIME: 0 days 0 hours 10 minutes 27 seconds 592 msec
