
                                 *****************
                                 * O   R   C   A *
                                 *****************

                                            #,                                       
                                            ###                                      
                                            ####                                     
                                            #####                                    
                                            ######                                   
                                           ########,                                 
                                     ,,################,,,,,                         
                               ,,#################################,,                 
                          ,,##########################################,,             
                       ,#########################################, ''#####,          
                    ,#############################################,,   '####,        
                  ,##################################################,,,,####,       
                ,###########''''           ''''###############################       
              ,#####''   ,,,,##########,,,,          '''####'''          '####       
            ,##' ,,,,###########################,,,                        '##       
           ' ,,###''''                  '''############,,,                           
         ,,##''                                '''############,,,,        ,,,,,,###''
      ,#''                                            '''#######################'''  
     '                                                          ''''####''''         
             ,#######,   #######,   ,#######,      ##                                
            ,#'     '#,  ##    ##  ,#'     '#,    #''#        ######   ,####,        
            ##       ##  ##   ,#'  ##            #'  '#       #        #'  '#        
            ##       ##  #######   ##           ,######,      #####,   #    #        
            '#,     ,#'  ##    ##  '#,     ,#' ,#      #,         ##   #,  ,#        
             '#######'   ##     ##  '#######'  #'      '#     #####' # '####'        



                  #######################################################
                  #                        -***-                        #
                  #          Department of theory and spectroscopy      #
                  #    Directorship and core code : Frank Neese         #
                  #        Max Planck Institute fuer Kohlenforschung    #
                  #                Kaiser Wilhelm Platz 1               #
                  #                 D-45470 Muelheim/Ruhr               #
                  #                      Germany                        #
                  #                                                     #
                  #                  All rights reserved                #
                  #                        -***-                        #
                  #######################################################


                         Program Version 5.0.3 -  RELEASE  -


 With contributions from (in alphabetic order):
   Daniel Aravena         : Magnetic Suceptibility
   Michael Atanasov       : Ab Initio Ligand Field Theory (pilot matlab implementation)
   Alexander A. Auer      : GIAO ZORA, VPT2 properties, NMR spectrum
   Ute Becker             : Parallelization
   Giovanni Bistoni       : ED, misc. LED, open-shell LED, HFLD
   Martin Brehm           : Molecular dynamics
   Dmytro Bykov           : SCF Hessian
   Vijay G. Chilkuri      : MRCI spin determinant printing, contributions to CSF-ICE
   Dipayan Datta          : RHF DLPNO-CCSD density
   Achintya Kumar Dutta   : EOM-CC, STEOM-CC
   Dmitry Ganyushin       : Spin-Orbit,Spin-Spin,Magnetic field MRCI
   Miquel Garcia          : C-PCM and meta-GGA Hessian, CC/C-PCM, Gaussian charge scheme
   Yang Guo               : DLPNO-NEVPT2, F12-NEVPT2, CIM, IAO-localization
   Andreas Hansen         : Spin unrestricted coupled pair/coupled cluster methods
   Benjamin Helmich-Paris : MC-RPA, TRAH-SCF, COSX integrals
   Lee Huntington         : MR-EOM, pCC
   Robert Izsak           : Overlap fitted RIJCOSX, COSX-SCS-MP3, EOM
   Marcus Kettner         : VPT2
   Christian Kollmar      : KDIIS, OOCD, Brueckner-CCSD(T), CCSD density, CASPT2, CASPT2-K
   Simone Kossmann        : Meta GGA functionals, TD-DFT gradient, OOMP2, MP2 Hessian
   Martin Krupicka        : Initial AUTO-CI
   Lucas Lang             : DCDCAS
   Marvin Lechner         : AUTO-CI (C++ implementation), FIC-MRCC
   Dagmar Lenk            : GEPOL surface, SMD
   Dimitrios Liakos       : Extrapolation schemes; Compound Job, initial MDCI parallelization
   Dimitrios Manganas     : Further ROCIS development; embedding schemes
   Dimitrios Pantazis     : SARC Basis sets
   Anastasios Papadopoulos: AUTO-CI, single reference methods and gradients
   Taras Petrenko         : DFT Hessian,TD-DFT gradient, ASA, ECA, R-Raman, ABS, FL, XAS/XES, NRVS
   Peter Pinski           : DLPNO-MP2, DLPNO-MP2 Gradient
   Christoph Reimann      : Effective Core Potentials
   Marius Retegan         : Local ZFS, SOC
   Christoph Riplinger    : Optimizer, TS searches, QM/MM, DLPNO-CCSD(T), (RO)-DLPNO pert. Triples
   Tobias Risthaus        : Range-separated hybrids, TD-DFT gradient, RPA, STAB
   Michael Roemelt        : Original ROCIS implementation
   Masaaki Saitow         : Open-shell DLPNO-CCSD energy and density
   Barbara Sandhoefer     : DKH picture change effects
   Avijit Sen             : IP-ROCIS
   Kantharuban Sivalingam : CASSCF convergence, NEVPT2, FIC-MRCI
   Bernardo de Souza      : ESD, SOC TD-DFT
   Georgi Stoychev        : AutoAux, RI-MP2 NMR, DLPNO-MP2 response
   Willem Van den Heuvel  : Paramagnetic NMR
   Boris Wezisla          : Elementary symmetry handling
   Frank Wennmohs         : Technical directorship


 We gratefully acknowledge several colleagues who have allowed us to
 interface, adapt or use parts of their codes:
   Stefan Grimme, W. Hujo, H. Kruse, P. Pracht,  : VdW corrections, initial TS optimization,
                  C. Bannwarth, S. Ehlert          DFT functionals, gCP, sTDA/sTD-DF
   Ed Valeev, F. Pavosevic, A. Kumar             : LibInt (2-el integral package), F12 methods
   Garnet Chan, S. Sharma, J. Yang, R. Olivares  : DMRG
   Ulf Ekstrom                                   : XCFun DFT Library
   Mihaly Kallay                                 : mrcc  (arbitrary order and MRCC methods)
   Jiri Pittner, Ondrej Demel                    : Mk-CCSD
   Frank Weinhold                                : gennbo (NPA and NBO analysis)
   Christopher J. Cramer and Donald G. Truhlar   : smd solvation model
   Lars Goerigk                                  : TD-DFT with DH, B97 family of functionals
   V. Asgeirsson, H. Jonsson                     : NEB implementation
   FAccTs GmbH                                   : IRC, NEB, NEB-TS, DLPNO-Multilevel, CI-OPT
                                                   MM, QMMM, 2- and 3-layer-ONIOM, Crystal-QMMM,
                                                   LR-CPCM, SF, NACMEs, symmetry and pop. for TD-DFT,
                                                   nearIR, NL-DFT gradient (VV10), updates on ESD,
                                                   ML-optimized integration grids
   S Lehtola, MJT Oliveira, MAL Marques          : LibXC Library
   Liviu Ungur et al                             : ANISO software


 Your calculation uses the libint2 library for the computation of 2-el integrals
 For citations please refer to: http://libint.valeyev.net

 Your ORCA version has been built with support for libXC version: 5.1.0
 For citations please refer to: https://tddft.org/programs/libxc/

 This ORCA versions uses:
   CBLAS   interface :  Fast vector & matrix operations
   LAPACKE interface :  Fast linear algebra routines
   SCALAPACK package :  Parallel linear algebra routines
   Shared memory     :  Shared parallel matrices
   BLAS/LAPACK       :  OpenBLAS 0.3.15  USE64BITINT DYNAMIC_ARCH NO_AFFINITY Sandybridge SINGLE_THREADED
        Core in use  :  Sandybridge
   Copyright (c) 2011-2014, The OpenBLAS Project




***************************************
The coordinates will be read from file: pbe.xyz
***************************************


================================================================================

cite the ECPs for Au [Def2-ECP] as follows:
Ce-Yb(ecp-28): M. Dolg, H. Stoll, H.Preuss, J. Chem. Phys., 1989, 90, 1730-1734.
Y-Cd(ecp-28), Hf-Hg(ecp-46): D. Andrae,U. Haeussermann, M. Dolg, H. Stoll, H. Preuss, Theor. Chim. Acta, 1990, 77, 123-141.
In-Sb(ecp-28), Tl-Bi(ecp-46): B. Metz, H. Stoll, M. Dolg, J. Chem. Phys., 2000, 113, 2563-2569.
Te-Xe(ecp-28), Po-Rn(ecp-46): K. A. Peterson, D. Figgen, E. Goll, H. Stoll, M. Dolg, J. Chem. Phys., 2003, 119, 11113-11123.
Rb(ecp-28), Cs(ecp-46): T. Leininger, A. Nicklass, W. Kuechle, H. Stoll, M. Dolg, A. Bergner, Chem. Phys. Lett., 1996, 255, 274-280.
Sr(ecp-28), Ba(ecp-46): M. Kaupp, P. V. Schleyer, H. Stoll and H. Preuss, J. Chem. Phys., 1991, 94, 1360-1366.
La(ecp-46): M. Dolg, H. Stoll, A. Savin, H. Preuss, Theor. Chim. Acta, 1989, 75, 173-194.
Lu(ecp-28): X. Cao, M. Dolg, J. Chem. Phys., 2001, 115, 7348-7355.

ECP parameters for Au [Def2-ECP] have been obtained from:
TURBOMOLE (7.0.2)

----- Orbital basis set information -----
Your calculation utilizes the basis: def2-TZVP
   F. Weigend and R. Ahlrichs, Phys. Chem. Chem. Phys. 7, 3297 (2005).

----- AuxJ basis set information -----
Your calculation utilizes the auxiliary basis: def2/J
   F. Weigend, Phys. Chem. Chem. Phys. 8, 1057 (2006).

================================================================================
                                        WARNINGS
                       Please study these warnings very carefully!
================================================================================

Using LibXC functional ID 497 : Re-regularized SCAN exchange by Furness et al
[ 1]  J. W. Furness, A. D. Kaplan, J. Ning, J. P. Perdew, and J. Sun, J. Phys. Chem. Lett. 11, 8208 (2020)
[ 2]  J. W. Furness, A. D. Kaplan, J. Ning, J. P. Perdew, and J. Sun, J. Phys. Chem. Lett. 11, 9248 (2020)
Using LibXC functional ID 498 : Re-regularized SCAN correlation by Furness et al
[ 1]  J. W. Furness, A. D. Kaplan, J. Ning, J. P. Perdew, and J. Sun, J. Phys. Chem. Lett. 11, 8208 (2020)
[ 2]  J. W. Furness, A. D. Kaplan, J. Ning, J. P. Perdew, and J. Sun, J. Phys. Chem. Lett. 11, 9248 (2020)
Using LibXC functional ID 497 : Re-regularized SCAN exchange by Furness et al
[ 1]  J. W. Furness, A. D. Kaplan, J. Ning, J. P. Perdew, and J. Sun, J. Phys. Chem. Lett. 11, 8208 (2020)
[ 2]  J. W. Furness, A. D. Kaplan, J. Ning, J. P. Perdew, and J. Sun, J. Phys. Chem. Lett. 11, 9248 (2020)
Using LibXC functional ID 498 : Re-regularized SCAN correlation by Furness et al
[ 1]  J. W. Furness, A. D. Kaplan, J. Ning, J. P. Perdew, and J. Sun, J. Phys. Chem. Lett. 11, 8208 (2020)
[ 2]  J. W. Furness, A. D. Kaplan, J. Ning, J. P. Perdew, and J. Sun, J. Phys. Chem. Lett. 11, 9248 (2020)

WARNING: your system is open-shell and RHF/RKS was chosen
  ===> : WILL SWITCH to UHF/UKS


INFO   : the flag for use of the SHARK integral package has been found!



***************************************
The coordinates will be read from file: pbe.xyz
***************************************


================================================================================

cite the ECPs for Au [Def2-ECP] as follows:
Ce-Yb(ecp-28): M. Dolg, H. Stoll, H.Preuss, J. Chem. Phys., 1989, 90, 1730-1734.
Y-Cd(ecp-28), Hf-Hg(ecp-46): D. Andrae,U. Haeussermann, M. Dolg, H. Stoll, H. Preuss, Theor. Chim. Acta, 1990, 77, 123-141.
In-Sb(ecp-28), Tl-Bi(ecp-46): B. Metz, H. Stoll, M. Dolg, J. Chem. Phys., 2000, 113, 2563-2569.
Te-Xe(ecp-28), Po-Rn(ecp-46): K. A. Peterson, D. Figgen, E. Goll, H. Stoll, M. Dolg, J. Chem. Phys., 2003, 119, 11113-11123.
Rb(ecp-28), Cs(ecp-46): T. Leininger, A. Nicklass, W. Kuechle, H. Stoll, M. Dolg, A. Bergner, Chem. Phys. Lett., 1996, 255, 274-280.
Sr(ecp-28), Ba(ecp-46): M. Kaupp, P. V. Schleyer, H. Stoll and H. Preuss, J. Chem. Phys., 1991, 94, 1360-1366.
La(ecp-46): M. Dolg, H. Stoll, A. Savin, H. Preuss, Theor. Chim. Acta, 1989, 75, 173-194.
Lu(ecp-28): X. Cao, M. Dolg, J. Chem. Phys., 2001, 115, 7348-7355.

ECP parameters for Au [Def2-ECP] have been obtained from:
TURBOMOLE (7.0.2)

----- Orbital basis set information -----
Your calculation utilizes the basis: def2-TZVP
   F. Weigend and R. Ahlrichs, Phys. Chem. Chem. Phys. 7, 3297 (2005).

----- AuxJ basis set information -----
Your calculation utilizes the auxiliary basis: def2/J
   F. Weigend, Phys. Chem. Chem. Phys. 8, 1057 (2006).

================================================================================
                                        WARNINGS
                       Please study these warnings very carefully!
================================================================================

Using LibXC functional ID 497 : Re-regularized SCAN exchange by Furness et al
[ 1]  J. W. Furness, A. D. Kaplan, J. Ning, J. P. Perdew, and J. Sun, J. Phys. Chem. Lett. 11, 8208 (2020)
[ 2]  J. W. Furness, A. D. Kaplan, J. Ning, J. P. Perdew, and J. Sun, J. Phys. Chem. Lett. 11, 9248 (2020)
Using LibXC functional ID 498 : Re-regularized SCAN correlation by Furness et al
[ 1]  J. W. Furness, A. D. Kaplan, J. Ning, J. P. Perdew, and J. Sun, J. Phys. Chem. Lett. 11, 8208 (2020)
[ 2]  J. W. Furness, A. D. Kaplan, J. Ning, J. P. Perdew, and J. Sun, J. Phys. Chem. Lett. 11, 9248 (2020)
Using LibXC functional ID 497 : Re-regularized SCAN exchange by Furness et al
[ 1]  J. W. Furness, A. D. Kaplan, J. Ning, J. P. Perdew, and J. Sun, J. Phys. Chem. Lett. 11, 8208 (2020)
[ 2]  J. W. Furness, A. D. Kaplan, J. Ning, J. P. Perdew, and J. Sun, J. Phys. Chem. Lett. 11, 9248 (2020)
Using LibXC functional ID 498 : Re-regularized SCAN correlation by Furness et al
[ 1]  J. W. Furness, A. D. Kaplan, J. Ning, J. P. Perdew, and J. Sun, J. Phys. Chem. Lett. 11, 8208 (2020)
[ 2]  J. W. Furness, A. D. Kaplan, J. Ning, J. P. Perdew, and J. Sun, J. Phys. Chem. Lett. 11, 9248 (2020)

INFO   : the flag for use of the SHARK integral package has been found!

================================================================================
                                       INPUT FILE
================================================================================
NAME = scan.inp
|  1> !R2SCAN def2-TZVP VERYSLOWCONV
|  2> !KDIIS
|  3> %scf
|  4>   AutoTRAHIter 200
|  5>   maxiter 400
|  6> end
|  7> 
|  8> %pal nprocs 6 end 
|  9> 
| 10> *xyzfile 0 6 pbe.xyz
| 11> 
| 12> $new_job
| 13> 
| 14> !R2SCAN def2-TZVP VERYSLOWCONV
| 15> !KDIIS
| 16> %scf
| 17>   AutoTRAHIter 200
| 18>   maxiter 400
| 19> end
| 20> 
| 21> 
| 22> %pal nprocs 6 end 
| 23> 
| 24> *xyzfile 0 4 pbe.xyz
| 25> 
| 26> 
| 27> 
| 28> 
| 29> 
| 30>                          ****END OF INPUT****
================================================================================


                 $$$$$$$$$$$$$$$$$$$$$$$$$$$$$$$$$$$$$$$$$$$$$$ 
                 $ THERE ARE  2 JOBS TO BE PROCESSED THIS RUN $
                 $$$$$$$$$$$$$$$$$$$$$$$$$$$$$$$$$$$$$$$$$$$$$$ 




                 $$$$$$$$$$$$$$$$  JOB NUMBER  1 $$$$$$$$$$$$$$


                       ****************************
                       * Single Point Calculation *
                       ****************************

---------------------------------
CARTESIAN COORDINATES (ANGSTROEM)
---------------------------------
  Au     4.264621    5.552259    6.848960
  Au     8.015262    9.862266    7.969594
  Au     9.723380    9.107442    5.846305
  Au     4.656485    7.895376    8.509740
  Au     5.989329   10.072230    9.948679
  Au     6.140165    6.143541    4.841868
  Au     7.050532    8.749463    5.457020
  Au     4.385024    8.124637    5.720842
  Au     5.368732   10.223154    7.208894
  Au     9.539022    7.627135    8.279984
  Au     5.867558    7.505934   11.024300
  Au     7.892467    6.004408    9.862039
  Au     8.721921    6.475980    5.756566
  Au     5.195456    5.322627    9.418857
  Au     9.598401    4.880657    7.974562
  Au     6.943108    4.981530    7.256653
  Mn     8.168444    8.637665   10.313475

----------------------------
CARTESIAN COORDINATES (A.U.)
----------------------------
  NO LB      ZA    FRAG     MASS         X           Y           Z
   0 Au   19.0000*   0   196.966    8.058965   10.492249   12.942659
   1 Au   19.0000*   0   196.966   15.146650   18.636981   15.060350
   2 Au   19.0000*   0   196.966   18.374525   17.210571   11.047916
   3 Au   19.0000*   0   196.966    8.799482   14.920099   16.081077
   4 Au   19.0000*   0   196.966   11.318192   19.033755   18.800278
   5 Au   19.0000*   0   196.966   11.603231   11.609610    9.149805
   6 Au   19.0000*   0   196.966   13.323574   16.534089   10.312273
   7 Au   19.0000*   0   196.966    8.286495   15.353338   10.810825
   8 Au   19.0000*   0   196.966   10.145433   19.318961   13.622835
   9 Au   19.0000*   0   196.966   18.026139   14.413196   15.646901
  10 Au   19.0000*   0   196.966   11.088078   14.184160   20.832907
  11 Au   19.0000*   0   196.966   14.914600   11.346687   18.636553
  12 Au   19.0000*   0   196.966   16.482042   12.237829   10.878334
  13 Au   19.0000*   0   196.966    9.817989   10.058307   17.799060
  14 Au   19.0000*   0   196.966   18.138349    9.223104   15.069739
  15 Au   19.0000*   0   196.966   13.120573    9.413728   13.713087
  16 Mn   25.0000    0    54.940   15.436123   16.322821   19.489643
* core charge reduced due to ECP

--------------------------------
INTERNAL COORDINATES (ANGSTROEM)
--------------------------------
 Au     0   0   0     0.000000000000     0.00000000     0.00000000
 Au     1   0   0     5.822309531604     0.00000000     0.00000000
 Au     2   1   0     2.827681000174    92.69396538     0.00000000
 Au     1   2   3     2.898610942031    37.27295603   185.88884272
 Au     2   1   3     2.839940812789    74.29500344   181.62192927
 Au     1   2   3     2.809928755509    63.36768959   344.95621533
 Au     3   2   1     2.724666519241    63.24180059    34.44681499
 Au     7   3   2     2.750443877301   165.20159817   315.08520207
 Au     8   7   3     2.754224958304    62.13439063    70.39281436
 Au     2   1   3     2.722865569976    76.98410020   299.69766110
 Au     5   2   1     2.785257609917   103.42604626    52.26618542
 Au    11   5   2     2.775911281674   107.74638008     4.96090848
 Au     6   1   2     2.759103224055   114.40104965    45.49870814
 Au     1   2   3     2.742909773573    70.30765047   121.54472995
 Au    10   2   1     2.764046385626   144.59557693     7.67162364
 Au    15  10   2     2.752480399400    88.37721168   354.65133499
 Mn     5   2   1     2.634311042547    57.73315866    90.83736715

---------------------------
INTERNAL COORDINATES (A.U.)
---------------------------
 Au     0   0   0     0.000000000000     0.00000000     0.00000000
 Au     1   0   0    11.002570481651     0.00000000     0.00000000
 Au     2   1   0     5.343542684421    92.69396538     0.00000000
 Au     1   2   3     5.477580849226    37.27295603   185.88884272
 Au     2   1   3     5.366710372717    74.29500344   181.62192927
 Au     1   2   3     5.309995803742    63.36768959   344.95621533
 Au     3   2   1     5.148873527629    63.24180059    34.44681499
 Au     7   3   2     5.197585674820   165.20159817   315.08520207
 Au     8   7   3     5.204730882404    62.13439063    70.39281436
 Au     2   1   3     5.145470226738    76.98410020   299.69766110
 Au     5   2   1     5.263374095163   103.42604626    52.26618542
 Au    11   5   2     5.245712094427   107.74638008     4.96090848
 Au     6   1   2     5.213949468684   114.40104965    45.49870814
 Au     1   2   3     5.183348282110    70.30765047   121.54472995
 Au    10   2   1     5.223290690289   144.59557693     7.67162364
 Au    15  10   2     5.201434143853    88.37721168   354.65133499
 Mn     5   2   1     4.978126421978    57.73315866    90.83736715

---------------------
BASIS SET INFORMATION
---------------------
There are 2 groups of distinct atoms

 Group   1 Type Au  : 8s7p6d1f contracted to 6s4p3d1f pattern {311111/4111/411/1}
 Group   2 Type Mn  : 17s11p7d1f contracted to 6s4p4d1f pattern {842111/6311/4111/1}

Atom   0Au   basis set group =>   1
Atom   1Au   basis set group =>   1
Atom   2Au   basis set group =>   1
Atom   3Au   basis set group =>   1
Atom   4Au   basis set group =>   1
Atom   5Au   basis set group =>   1
Atom   6Au   basis set group =>   1
Atom   7Au   basis set group =>   1
Atom   8Au   basis set group =>   1
Atom   9Au   basis set group =>   1
Atom  10Au   basis set group =>   1
Atom  11Au   basis set group =>   1
Atom  12Au   basis set group =>   1
Atom  13Au   basis set group =>   1
Atom  14Au   basis set group =>   1
Atom  15Au   basis set group =>   1
Atom  16Mn   basis set group =>   2
---------------------------------
AUXILIARY/J BASIS SET INFORMATION
---------------------------------
There are 2 groups of distinct atoms

 Group   1 Type Au  : 11s5p5d3f3g contracted to 8s5p5d2f3g pattern {41111111/11111/11111/21/111}
 Group   2 Type Mn  : 19s5p5d3f3g contracted to 8s5p5d2f3g pattern {121111111/11111/11111/21/111}

Atom   0Au   basis set group =>   1
Atom   1Au   basis set group =>   1
Atom   2Au   basis set group =>   1
Atom   3Au   basis set group =>   1
Atom   4Au   basis set group =>   1
Atom   5Au   basis set group =>   1
Atom   6Au   basis set group =>   1
Atom   7Au   basis set group =>   1
Atom   8Au   basis set group =>   1
Atom   9Au   basis set group =>   1
Atom  10Au   basis set group =>   1
Atom  11Au   basis set group =>   1
Atom  12Au   basis set group =>   1
Atom  13Au   basis set group =>   1
Atom  14Au   basis set group =>   1
Atom  15Au   basis set group =>   1
Atom  16Mn   basis set group =>   2
-------------------------
ECP PARAMETER INFORMATION
-------------------------

 Group 1, Type Au ECP Def2-ECP (replacing 60 core electrons, lmax=3)

Atom   0Au   ECP group =>   1
Atom   1Au   ECP group =>   1
Atom   2Au   ECP group =>   1
Atom   3Au   ECP group =>   1
Atom   4Au   ECP group =>   1
Atom   5Au   ECP group =>   1
Atom   6Au   ECP group =>   1
Atom   7Au   ECP group =>   1
Atom   8Au   ECP group =>   1
Atom   9Au   ECP group =>   1
Atom  10Au   ECP group =>   1
Atom  11Au   ECP group =>   1
Atom  12Au   ECP group =>   1
Atom  13Au   ECP group =>   1
Atom  14Au   ECP group =>   1
Atom  15Au   ECP group =>   1



           ************************************************************
           *        Program running with 6 parallel MPI-processes     *
           *              working on a common directory               *
           ************************************************************
------------------------------------------------------------------------------
                           ORCA GTO INTEGRAL CALCULATION
                           -- RI-GTO INTEGRALS CHOSEN --
------------------------------------------------------------------------------
------------------------------------------------------------------------------
                   ___                                                        
                  /   \      - P O W E R E D   B Y -                         
                 /     \                                                     
                 |  |  |   _    _      __       _____    __    __             
                 |  |  |  | |  | |    /  \     |  _  \  |  |  /  |          
                  \  \/   | |  | |   /    \    | | | |  |  | /  /          
                 / \  \   | |__| |  /  /\  \   | |_| |  |  |/  /          
                |  |  |   |  __  | /  /__\  \  |    /   |      \           
                |  |  |   | |  | | |   __   |  |    \   |  |\   \          
                \     /   | |  | | |  |  |  |  | |\  \  |  | \   \       
                 \___/    |_|  |_| |__|  |__|  |_| \__\ |__|  \__/        
                                                                              
                      - O R C A' S   B I G   F R I E N D -                    
                                      &                                       
                       - I N T E G R A L  F E E D E R -                       
                                                                              
 v1 FN, 2020, v2 2021                                                         
------------------------------------------------------------------------------


Reading SHARK input file scan.SHARKINP.tmp ... ok
----------------------
SHARK INTEGRAL PACKAGE
----------------------

Number of atoms                             ...     17
Number of basis functions                   ...    685
Number of shells                            ...    239
Maximum angular momentum                    ...      3
Integral batch strategy                     ... SHARK/LIBINT Hybrid
RI-J (if used) integral strategy            ... SPLIT-RIJ (Revised 2003 algorithm where possible)
Printlevel                                  ...      1
Contraction scheme used                     ... SEGMENTED contraction
Coulomb Range Separation                    ... NOT USED
Exchange Range Separation                   ... NOT USED
Finite Nucleus Model                        ... NOT USED
Auxiliary Coulomb fitting basis             ... AVAILABLE
   # of basis functions in Aux-J            ...   1513
   # of shells in Aux-J                     ...    391
   Maximum angular momentum in Aux-J        ...      4
Auxiliary J/K fitting basis                 ... NOT available
Auxiliary Correlation fitting basis         ... NOT available
Auxiliary 'external' fitting basis          ... NOT available
Integral threshold                          ...     1.000000e-10
Primitive cut-off                           ...     1.000000e-11
Primitive pair pre-selection threshold      ...     1.000000e-11

Calculating pre-screening integrals         ... done (  0.4 sec) Dimension = 239
Organizing shell pair data                  ... done (  4.3 sec)
Shell pair information
Total number of shell pairs                 ...     28680
Shell pairs after pre-screening             ...     21781
Total number of primitive shell pairs       ...     75765
Primitive shell pairs kept                  ...     40607
          la=0 lb=0:   3478 shell pairs
          la=1 lb=0:   4952 shell pairs
          la=1 lb=1:   1862 shell pairs
          la=2 lb=0:   4317 shell pairs
          la=2 lb=1:   3082 shell pairs
          la=2 lb=2:   1275 shell pairs
          la=3 lb=0:   1102 shell pairs
          la=3 lb=1:    852 shell pairs
          la=3 lb=2:    755 shell pairs
          la=3 lb=3:    106 shell pairs

Calculating one electron integrals          ... done (  0.1 sec)
Calculating ECP integrals                   ... done ( 29.4 sec)
Calculating RI/J V-Matrix + Cholesky decomp.... done (  0.2 sec)
Calculating Nuclear repulsion               ... done (  0.0 sec) ENN=   6779.561722129900 Eh

SHARK setup successfully completed in  35.3 seconds

Maximum memory used throughout the entire GTOINT-calculation: 40.4 MB


           ************************************************************
           *        Program running with 6 parallel MPI-processes     *
           *              working on a common directory               *
           ************************************************************
-------------------------------------------------------------------------------
                                 ORCA SCF
-------------------------------------------------------------------------------

------------
SCF SETTINGS
------------
Hamiltonian:
 Density Functional     Method          .... DFT(GTOs)
  Functional kind                       .... Exchange
  Functional name                       .... Re-regularized SCAN exchange by Furness et al
  Functional family                     .... MGGA
  Functional refs                              
    [ 0] J. W. Furness, A. D. Kaplan, J. Ning, J. P. Perdew, and J. Sun, J. Phys. Chem. Lett. 11, 8208 (2020)
    [ 1] J. W. Furness, A. D. Kaplan, J. Ning, J. P. Perdew, and J. Sun, J. Phys. Chem. Lett. 11, 9248 (2020)
  Functional external parameters         .... 8
 Parameter  0 :         c1 parameter
 Parameter  1 :         c2 parameter
 Parameter  2 :          d parameter
 Parameter  3 :         k1 parameter
 Parameter  4 :       taur parameter
 Parameter  5 :     alphar parameter
 Parameter  6 :        eta parameter
 Parameter  7 :        dp2 parameter
  Functional kind                       .... Correlation
  Functional name                       .... Re-regularized SCAN correlation by Furness et al
  Functional family                     .... MGGA
  Functional refs                              
    [ 0] J. W. Furness, A. D. Kaplan, J. Ning, J. P. Perdew, and J. Sun, J. Phys. Chem. Lett. 11, 8208 (2020)
    [ 1] J. W. Furness, A. D. Kaplan, J. Ning, J. P. Perdew, and J. Sun, J. Phys. Chem. Lett. 11, 9248 (2020)
  Functional external parameters         .... 0
 Gradients option       PostSCFGGA      .... off
   Density functional embedding theory  .... OFF
   NL short-range parameter             .... 12.300000
 RI-approximation to the Coulomb term is turned on
   Number of AuxJ basis functions       .... 1513


General Settings:
 Integral files         IntName         .... scan
 Hartree-Fock type      HFTyp           .... UHF
 Total Charge           Charge          ....    0
 Multiplicity           Mult            ....    6
 Number of Electrons    NEL             ....  329
 Basis Dimension        Dim             ....  685
 Nuclear Repulsion      ENuc            ....   6779.5617221299 Eh

Convergence Acceleration:
 DIIS                   CNVDIIS         .... off
 Trust-Rad. Augm. Hess. CNVTRAH         .... auto
   Auto Start mean grad. ratio tolernc. ....  1.125000
   Auto Start start iteration           ....   200
   Auto Start num. interpolation iter.  ....    10
   Max. Number of Micro iterations      ....    16
   Max. Number of Macro iterations      .... Maxiter - #DIIS iter
   Number of Davidson start vectors     ....     2
   Converg. threshold I  (grad. norm)   ....   5.000e-05
   Converg. threshold II (energy diff.) ....   1.000e-06
   Grad. Scal. Fac. for Micro threshold ....   0.100
   Minimum threshold for Micro iter.    ....   0.010
   NR start threshold (gradient norm)   ....   0.001
   Initial trust radius                 ....   0.400
   Minimum AH scaling param. (alpha)    ....   1.000
   Maximum AH scaling param. (alpha)    .... 1000.000
   Orbital update algorithm             .... Taylor
   White noise on init. David. guess    .... on
   Maximum white noise                  ....   0.010
   Quad. conv. algorithm                .... NR
 SOSCF                  CNVSOSCF        .... off
 Level Shifting         CNVShift        .... off
 Zerner damping         CNVZerner       .... off
 Static damping         CNVDamp         .... off
 Fernandez-Rico         CNVRico         .... off

SCF Procedure:
 Maximum # iterations   MaxIter         ....   400
 SCF integral mode      SCFMode         .... Direct
   Integral package                     .... SHARK and LIBINT hybrid scheme
 Reset frequency        DirectResetFreq ....    20
 Integral Threshold     Thresh          ....  1.000e-10 Eh
 Primitive CutOff       TCut            ....  1.000e-11 Eh

Convergence Tolerance:
 Convergence Check Mode ConvCheckMode   .... All-Criteria
 Convergence forced     ConvForced      .... 0
 Energy Change          TolE            ....  1.000e-06 Eh
 Max Density Change     TolMaxP         ....  1.000e-05
 RMS Density Change     TolRMSP         ....  1.000e-06


Diagonalization of the overlap matrix:
Smallest eigenvalue                        ... 4.284e-04
Time for diagonalization                   ...    0.156 sec
Threshold for overlap eigenvalues          ... 1.000e-08
Number of eigenvalues below threshold      ... 0
Time for construction of square roots      ...    0.155 sec
Total time needed                          ...    0.314 sec

Time for model grid setup =    1.203 sec

------------------------------
INITIAL GUESS: MODEL POTENTIAL
------------------------------
Loading Hartree-Fock densities                     ... done
  calling /home/ehlert/src/miniconda3/envs/orca500/Programs/ORCA501/orca scan_atom79.inp > scan_atom79.out in order to generate an atomic fitting density for atom 0 (Au with ECP) on-the-fly... 
    atom 0 (Au), assumed electronic state with S=2: 1s2 2s2 2p6 3s2 3p6 4s2 3d10 4p6 5s2 4d10 5p6 6s1 4f14 5d10           ... done
Calculating cut-offs                               ... done
Initializing the effective Hamiltonian             ... done
Setting up the integral package (SHARK)            ... done
Starting the Coulomb interaction                   ... done (   1.5 sec)
Reading the grid                                   ... done
Mapping shells                                     ... done
Starting the XC term evaluation                    ... done (   1.5 sec)
  promolecular density results
     # of electrons  =   1289.014247067
     EX              =  -5903.695718751
     EC              =    -78.590536148
     EX+EC           =  -5982.286254898
Transforming the Hamiltonian                       ... done (   0.2 sec)
Diagonalizing the Hamiltonian                      ... done (   0.3 sec)
Back transforming the eigenvectors                 ... done (   0.1 sec)
Now organizing SCF variables                       ... done
                      ------------------
                      INITIAL GUESS DONE (   5.8 sec)
                      ------------------
-------------------
DFT GRID GENERATION
-------------------

General Integration Accuracy     IntAcc      ... 4.388
Radial Grid Type                 RadialGrid  ... OptM3 with GC (2021)
Angular Grid (max. ang.)         AngularGrid ... 4 (Lebedev-302)
Angular grid pruning method      GridPruning ... 4 (adaptive)
Weight generation scheme         WeightScheme... Becke
Basis function cutoff            BFCut       ... 1.0000e-10
Integration weight cutoff        WCut        ... 1.0000e-14
Angular grids for H and He will be reduced by one unit
Partially contracted basis set               ... off
Rotationally invariant grid construction     ... off

Total number of grid points                  ...   187259
Total number of batches                      ...     2934
Average number of points per batch           ...       63
Average number of grid points per atom       ...    11015
Time for grid setup =    3.666 sec

--------------
SCF ITERATIONS
--------------
ITER       Energy         Delta-E        Max-DP      RMS-DP      [F,P]   Gradient Norm
               ***  Starting incremental Fock matrix formation  ***
                             ****Resetting KDIIS****
                             ****Turning on KDIIS(Cayley)****
  0  -3322.1918215678   0.000000000000 0.15727211  0.00091436  0.3927263   0.218145782
  1  -3323.3669892188  -1.175167651005 0.08349792  0.00098856  0.3399478   0.170287054
  2  -3323.9320276049  -0.565038386113 0.10714486  0.00119013  0.2689164   0.129839666
  3  -3324.2758110527  -0.343783447778 0.17020209  0.00146350  0.1574628   0.077467958
  4  -3324.4050379106  -0.129226857952 0.06977043  0.00065403  0.0347875   0.023218207
  5  -3324.4588580601  -0.053820149497 0.04735089  0.00050617  0.0296617   0.010439206
  6  -3324.4911380907  -0.032280030615 0.12687218  0.00076010  0.0395303   0.010408271
  7  -3324.5239237462  -0.032785655464 0.04169619  0.00025754  0.0318067   0.008663776
  8  -3324.5361017343  -0.012177988102 0.09004333  0.00052313  0.0118700   0.007497526
  9  -3324.5652634858  -0.029161751548 0.01661964  0.00018476  0.0198608   0.004086866
 10  -3324.5656071677  -0.000343681807 0.04731429  0.00023151  0.0230307   0.006231787
 11  -3324.5755194706  -0.009912302967 0.03096634  0.00022851  0.0149284   0.002002606
 12  -3324.5797783734  -0.004258902826 0.01798630  0.00012407  0.0114751   0.002819924
 13  -3324.5811123981  -0.001334024615 0.03078874  0.00019654  0.0116995   0.002668680
 14  -3324.5840334272  -0.002921029102 0.01436775  0.00009332  0.0079215   0.001549122
 15  -3324.5844472499  -0.000413822770 0.02647938  0.00017448  0.0036181   0.002085919
 16  -3324.5857035924  -0.001256342504 0.00875893  0.00006014  0.0039541   0.001723846
 17  -3324.5856777835   0.000025808914 0.01602240  0.00009977  0.0044619   0.001206583
 18  -3324.5861792877  -0.000501504133 0.00769830  0.00005229  0.0025375   0.000938655
 19  -3324.5862794164  -0.000100128704 0.00317222  0.00003417  0.0020698   0.001274134
               *** Restarting incremental Fock matrix formation ***
                             ****Resetting KDIIS****
 20  -3324.5863211837  -0.000041767345 0.00061258  0.00000520  0.0024856   0.000562316
 21  -3324.5863538862  -0.000032702541 0.00124283  0.00000847  0.0024633   0.000384949
 22  -3324.5863833697  -0.000029483491 0.00536512  0.00003674  0.0023742   0.000339261
 23  -3324.5864867020  -0.000103332215 0.02125995  0.00014900  0.0019877   0.000315504
 24  -3324.5867121177  -0.000225415783 0.00084417  0.00000615  0.0003044   0.000138123
 25  -3324.5867184082  -0.000006290500 0.00085981  0.00000654  0.0001985   0.000057797
 26  -3324.5867234193  -0.000005011071 0.00036899  0.00000191  0.0001384   0.000045896
 27  -3324.5867275692  -0.000004149877 0.00106039  0.00000718  0.0000852   0.000051829
 28  -3324.5867318441  -0.000004274941 0.00023524  0.00000186  0.0000516   0.000042891
                           ***RMSP convergence achieved***
 29  -3324.5867337160  -0.000001871922 0.00009276  0.00000082  0.0000373   0.000010420
                          ***Energy convergence achieved***
 30  -3324.5867330256   0.000000690435 0.00005498  0.00000050  0.0000382   0.000018141
 31  -3324.5867340436  -0.000001017999 0.00007835  0.00000061  0.0000305   0.000006559
                          ***Energy convergence achieved***
 32  -3324.5867341623  -0.000000118721 0.00018541  0.00000102  0.0000285   0.000010078
                           ***RMSP convergence achieved***

            ***Energy convergence in two consecutive cycles with***
                    ***'reasonable' density convergence***
                       *** signaling convergence ***

                    *** KDIIS BlockDiag ( 0.661 sec) ***

               *****************************************************
               *                     SUCCESS                       *
               *           SCF CONVERGED AFTER  33 CYCLES          *
               *****************************************************


----------------
TOTAL SCF ENERGY
----------------

Total Energy       :        -3324.58673413 Eh          -90466.60427 eV

Components:
Nuclear Repulsion  :         6779.56172213 Eh          184481.25330 eV
Electronic Energy  :       -10104.14845626 Eh         -274947.85757 eV
One Electron Energy:       -18954.77504395 Eh         -515785.65098 eV
Two Electron Energy:         8850.62658769 Eh          240837.79341 eV

Virial components:
Potential Energy   :        -5207.79438946 Eh         -141711.28980 eV
Kinetic Energy     :         1883.20765533 Eh           51244.68553 eV
Virial Ratio       :            2.76538510


DFT components:
N(Alpha)           :      167.000085287619 electrons
N(Beta)            :      162.000086103706 electrons
N(Total)           :      329.000171391325 electrons
E(X)               :     -245.375246759445 Eh       
E(C)               :      -13.620306926220 Eh       
E(XC)              :     -258.995553685664 Eh       
DFET-embed. en.    :        0.000000000000 Eh       

---------------
SCF CONVERGENCE
---------------

  Last Energy change         ...    3.1719e-08  Tolerance :   1.0000e-06
  Last MAX-Density change    ...    5.9679e-05  Tolerance :   1.0000e-05
  Last RMS-Density change    ...    4.6481e-07  Tolerance :   1.0000e-06

             **** THE GBW FILE WAS UPDATED (scan.gbw) ****
             **** DENSITY scan.scfp WAS UPDATED ****
             **** ENERGY FILE WAS UPDATED (scan.en.tmp) ****
----------------------
UHF SPIN CONTAMINATION
----------------------

Warning: in a DFT calculation there is little theoretical justification to 
         calculate <S**2> as in Hartree-Fock theory. We will do it anyways
         but you should keep in mind that the values have only limited relevance

Expectation value of <S**2>     :     8.790217
Ideal value S*(S+1) for S=2.5   :     8.750000
Deviation                       :     0.040217

             **** THE GBW FILE WAS UPDATED (scan.gbw) ****
             **** DENSITY scan.scfp WAS UPDATED ****
----------------
ORBITAL ENERGIES
----------------
                 SPIN UP ORBITALS
  NO   OCC          E(Eh)            E(eV) 
   0   1.0000    -235.064629     -6396.4337 
   1   1.0000     -27.247915      -741.4535 
   2   1.0000     -23.295085      -633.8915 
   3   1.0000     -23.293680      -633.8533 
   4   1.0000     -23.293373      -633.8449 
   5   1.0000      -4.128102      -112.3314 
   6   1.0000      -4.127835      -112.3241 
   7   1.0000      -4.127828      -112.3239 
   8   1.0000      -4.126211      -112.2799 
   9   1.0000      -4.126068      -112.2760 
  10   1.0000      -4.114610      -111.9642 
  11   1.0000      -4.113707      -111.9396 
  12   1.0000      -4.113119      -111.9237 
  13   1.0000      -4.112712      -111.9126 
  14   1.0000      -4.112380      -111.9035 
  15   1.0000      -4.112329      -111.9022 
  16   1.0000      -4.111518      -111.8801 
  17   1.0000      -4.111371      -111.8761 
  18   1.0000      -4.110037      -111.8398 
  19   1.0000      -4.108192      -111.7896 
  20   1.0000      -4.106421      -111.7414 
  21   1.0000      -3.272958       -89.0617 
  22   1.0000      -2.318581       -63.0918 
  23   1.0000      -2.317708       -63.0680 
  24   1.0000      -2.317304       -63.0570 
  25   1.0000      -2.316722       -63.0412 
  26   1.0000      -2.316178       -63.0264 
  27   1.0000      -2.315518       -63.0085 
  28   1.0000      -2.314144       -62.9711 
  29   1.0000      -2.312827       -62.9352 
  30   1.0000      -2.311475       -62.8984 
  31   1.0000      -2.310385       -62.8688 
  32   1.0000      -2.309923       -62.8562 
  33   1.0000      -2.307941       -62.8023 
  34   1.0000      -2.307036       -62.7776 
  35   1.0000      -2.306171       -62.7541 
  36   1.0000      -2.305494       -62.7357 
  37   1.0000      -2.305261       -62.7293 
  38   1.0000      -2.304657       -62.7129 
  39   1.0000      -2.303318       -62.6765 
  40   1.0000      -2.302564       -62.6560 
  41   1.0000      -2.302258       -62.6476 
  42   1.0000      -2.302019       -62.6411 
  43   1.0000      -2.300618       -62.6030 
  44   1.0000      -2.299980       -62.5856 
  45   1.0000      -2.299594       -62.5751 
  46   1.0000      -2.299082       -62.5612 
  47   1.0000      -2.298964       -62.5580 
  48   1.0000      -2.298889       -62.5560 
  49   1.0000      -2.297611       -62.5212 
  50   1.0000      -2.297488       -62.5178 
  51   1.0000      -2.297344       -62.5139 
  52   1.0000      -2.297164       -62.5090 
  53   1.0000      -2.296657       -62.4952 
  54   1.0000      -2.296470       -62.4901 
  55   1.0000      -2.296418       -62.4887 
  56   1.0000      -2.296268       -62.4846 
  57   1.0000      -2.295967       -62.4764 
  58   1.0000      -2.295625       -62.4671 
  59   1.0000      -2.295490       -62.4635 
  60   1.0000      -2.295416       -62.4614 
  61   1.0000      -2.294401       -62.4338 
  62   1.0000      -2.293781       -62.4170 
  63   1.0000      -2.293491       -62.4091 
  64   1.0000      -2.293195       -62.4010 
  65   1.0000      -2.293121       -62.3990 
  66   1.0000      -2.292909       -62.3932 
  67   1.0000      -2.292335       -62.3776 
  68   1.0000      -2.291100       -62.3440 
  69   1.0000      -2.286142       -62.2091 
  70   1.0000      -2.132211       -58.0204 
  71   1.0000      -2.127901       -57.9031 
  72   1.0000      -2.127362       -57.8885 
  73   1.0000      -0.421742       -11.4762 
  74   1.0000      -0.395294       -10.7565 
  75   1.0000      -0.393047       -10.6954 
  76   1.0000      -0.392883       -10.6909 
  77   1.0000      -0.383622       -10.4389 
  78   1.0000      -0.382051       -10.3961 
  79   1.0000      -0.379883       -10.3371 
  80   1.0000      -0.378008       -10.2861 
  81   1.0000      -0.376461       -10.2440 
  82   1.0000      -0.371198       -10.1008 
  83   1.0000      -0.369258       -10.0480 
  84   1.0000      -0.368612       -10.0304 
  85   1.0000      -0.367604       -10.0030 
  86   1.0000      -0.366964        -9.9856 
  87   1.0000      -0.365219        -9.9381 
  88   1.0000      -0.363257        -9.8847 
  89   1.0000      -0.358468        -9.7544 
  90   1.0000      -0.358007        -9.7419 
  91   1.0000      -0.357151        -9.7186 
  92   1.0000      -0.356182        -9.6922 
  93   1.0000      -0.354233        -9.6392 
  94   1.0000      -0.352448        -9.5906 
  95   1.0000      -0.349326        -9.5057 
  96   1.0000      -0.345982        -9.4146 
  97   1.0000      -0.344828        -9.3832 
  98   1.0000      -0.342819        -9.3286 
  99   1.0000      -0.340841        -9.2748 
 100   1.0000      -0.339432        -9.2364 
 101   1.0000      -0.338359        -9.2072 
 102   1.0000      -0.335661        -9.1338 
 103   1.0000      -0.331476        -9.0199 
 104   1.0000      -0.330735        -8.9998 
 105   1.0000      -0.329587        -8.9685 
 106   1.0000      -0.327440        -8.9101 
 107   1.0000      -0.323255        -8.7962 
 108   1.0000      -0.318605        -8.6697 
 109   1.0000      -0.317503        -8.6397 
 110   1.0000      -0.315986        -8.5984 
 111   1.0000      -0.314438        -8.5563 
 112   1.0000      -0.313202        -8.5227 
 113   1.0000      -0.311149        -8.4668 
 114   1.0000      -0.309943        -8.4340 
 115   1.0000      -0.306005        -8.3268 
 116   1.0000      -0.304332        -8.2813 
 117   1.0000      -0.300813        -8.1855 
 118   1.0000      -0.300159        -8.1677 
 119   1.0000      -0.299678        -8.1546 
 120   1.0000      -0.296872        -8.0783 
 121   1.0000      -0.295404        -8.0383 
 122   1.0000      -0.294931        -8.0255 
 123   1.0000      -0.293402        -7.9839 
 124   1.0000      -0.291096        -7.9211 
 125   1.0000      -0.289132        -7.8677 
 126   1.0000      -0.288505        -7.8506 
 127   1.0000      -0.286372        -7.7926 
 128   1.0000      -0.285551        -7.7702 
 129   1.0000      -0.284381        -7.7384 
 130   1.0000      -0.282265        -7.6808 
 131   1.0000      -0.280454        -7.6315 
 132   1.0000      -0.278960        -7.5909 
 133   1.0000      -0.276092        -7.5129 
 134   1.0000      -0.275089        -7.4856 
 135   1.0000      -0.274016        -7.4563 
 136   1.0000      -0.272403        -7.4125 
 137   1.0000      -0.271302        -7.3825 
 138   1.0000      -0.268816        -7.3149 
 139   1.0000      -0.268462        -7.3052 
 140   1.0000      -0.267510        -7.2793 
 141   1.0000      -0.267397        -7.2763 
 142   1.0000      -0.265204        -7.2166 
 143   1.0000      -0.264606        -7.2003 
 144   1.0000      -0.262864        -7.1529 
 145   1.0000      -0.261768        -7.1231 
 146   1.0000      -0.260834        -7.0977 
 147   1.0000      -0.259609        -7.0643 
 148   1.0000      -0.259001        -7.0478 
 149   1.0000      -0.256688        -6.9848 
 150   1.0000      -0.255645        -6.9565 
 151   1.0000      -0.254879        -6.9356 
 152   1.0000      -0.253021        -6.8850 
 153   1.0000      -0.251980        -6.8567 
 154   1.0000      -0.250391        -6.8135 
 155   1.0000      -0.249259        -6.7827 
 156   1.0000      -0.248150        -6.7525 
 157   1.0000      -0.246903        -6.7186 
 158   1.0000      -0.245086        -6.6691 
 159   1.0000      -0.242362        -6.5950 
 160   1.0000      -0.240557        -6.5459 
 161   1.0000      -0.238356        -6.4860 
 162   1.0000      -0.230574        -6.2742 
 163   1.0000      -0.218034        -5.9330 
 164   1.0000      -0.216143        -5.8815 
 165   1.0000      -0.211552        -5.7566 
 166   1.0000      -0.191997        -5.2245 
 167   0.0000      -0.156489        -4.2583 
 168   0.0000      -0.136528        -3.7151 
 169   0.0000      -0.130960        -3.5636 
 170   0.0000      -0.130539        -3.5521 
 171   0.0000      -0.125461        -3.4140 
 172   0.0000      -0.121803        -3.3144 
 173   0.0000      -0.114223        -3.1082 
 174   0.0000      -0.111734        -3.0404 
 175   0.0000      -0.077274        -2.1027 
 176   0.0000      -0.063974        -1.7408 
 177   0.0000      -0.056993        -1.5509 
 178   0.0000      -0.037375        -1.0170 
 179   0.0000      -0.035582        -0.9682 
 180   0.0000      -0.034149        -0.9292 
 181   0.0000      -0.030301        -0.8245 
 182   0.0000      -0.024853        -0.6763 
 183   0.0000      -0.016687        -0.4541 
 184   0.0000      -0.008214        -0.2235 
 185   0.0000      -0.006016        -0.1637 
 186   0.0000      -0.000757        -0.0206 
 187   0.0000       0.002779         0.0756 
 188   0.0000       0.009945         0.2706 
 189   0.0000       0.021056         0.5730 
 190   0.0000       0.032282         0.8784 
 191   0.0000       0.035458         0.9649 
 192   0.0000       0.051216         1.3936 
 193   0.0000       0.066525         1.8102 
 194   0.0000       0.067702         1.8423 
 195   0.0000       0.068808         1.8724 
 196   0.0000       0.069856         1.9009 
 197   0.0000       0.073481         1.9995 
 198   0.0000       0.075558         2.0560 
 199   0.0000       0.077564         2.1106 
 200   0.0000       0.079415         2.1610 
 201   0.0000       0.081384         2.2146 
 202   0.0000       0.083139         2.2623 
 203   0.0000       0.085757         2.3336 
 204   0.0000       0.086593         2.3563 
 205   0.0000       0.088014         2.3950 
 206   0.0000       0.093496         2.5442 
 207   0.0000       0.098956         2.6927 
 208   0.0000       0.099106         2.6968 
 209   0.0000       0.106609         2.9010 
 210   0.0000       0.111255         3.0274 
 211   0.0000       0.116799         3.1783 
 212   0.0000       0.122024         3.3204 
 213   0.0000       0.125719         3.4210 
 214   0.0000       0.139067         3.7842 
 215   0.0000       0.143628         3.9083 
 216   0.0000       0.150209         4.0874 
 217   0.0000       0.158513         4.3133 
 218   0.0000       0.161397         4.3918 
 219   0.0000       0.164824         4.4851 
 220   0.0000       0.165566         4.5053 
 221   0.0000       0.167631         4.5615 
 222   0.0000       0.169218         4.6047 
 223   0.0000       0.170708         4.6452 
 224   0.0000       0.176297         4.7973 
 225   0.0000       0.176809         4.8112 
 226   0.0000       0.184656         5.0248 
 227   0.0000       0.185951         5.0600 
 228   0.0000       0.190391         5.1808 
 229   0.0000       0.198510         5.4017 
 230   0.0000       0.201023         5.4701 
 231   0.0000       0.207693         5.6516 
 232   0.0000       0.215142         5.8543 
 233   0.0000       0.217088         5.9073 
 234   0.0000       0.219927         5.9845 
 235   0.0000       0.221567         6.0292 
 236   0.0000       0.231042         6.2870 
 237   0.0000       0.235077         6.3968 
 238   0.0000       0.238578         6.4920 
 239   0.0000       0.241738         6.5780 
 240   0.0000       0.246452         6.7063 
 241   0.0000       0.249875         6.7994 
 242   0.0000       0.252220         6.8632 
 243   0.0000       0.259423         7.0593 
 244   0.0000       0.260612         7.0916 
 245   0.0000       0.264024         7.1845 
 246   0.0000       0.265526         7.2253 
 247   0.0000       0.267745         7.2857 
 248   0.0000       0.269312         7.3284 
 249   0.0000       0.279082         7.5942 
 250   0.0000       0.280347         7.6286 
 251   0.0000       0.293063         7.9746 
 252   0.0000       0.293917         7.9979 
 253   0.0000       0.296252         8.0614 
 254   0.0000       0.304318         8.2809 
 255   0.0000       0.309425         8.4199 
 256   0.0000       0.316301         8.6070 
 257   0.0000       0.321691         8.7537 
 258   0.0000       0.324543         8.8313 
 259   0.0000       0.327514         8.9121 
 260   0.0000       0.331039         9.0080 
 261   0.0000       0.338431         9.2092 
 262   0.0000       0.339068         9.2265 
 263   0.0000       0.342870         9.3300 
 264   0.0000       0.347720         9.4620 
 265   0.0000       0.350604         9.5404 
 266   0.0000       0.351803         9.5730 
 267   0.0000       0.358659         9.7596 
 268   0.0000       0.359321         9.7776 
 269   0.0000       0.360051         9.7975 
 270   0.0000       0.365682         9.9507 
 271   0.0000       0.368973        10.0403 
 272   0.0000       0.369897        10.0654 
 273   0.0000       0.380619        10.3572 
 274   0.0000       0.382487        10.4080 
 275   0.0000       0.389093        10.5877 
 276   0.0000       0.390769        10.6334 
 277   0.0000       0.397004        10.8030 
 278   0.0000       0.399670        10.8756 
 279   0.0000       0.400983        10.9113 
 280   0.0000       0.402738        10.9591 
 281   0.0000       0.408909        11.1270 
 282   0.0000       0.411652        11.2016 
 283   0.0000       0.416969        11.3463 
 284   0.0000       0.418067        11.3762 
 285   0.0000       0.426661        11.6100 
 286   0.0000       0.428187        11.6516 
 287   0.0000       0.437098        11.8940 
 288   0.0000       0.446897        12.1607 
 289   0.0000       0.449119        12.2211 
 290   0.0000       0.459540        12.5047 
 291   0.0000       0.464176        12.6309 
 292   0.0000       0.464932        12.6514 
 293   0.0000       0.472288        12.8516 
 294   0.0000       0.477671        12.9981 
 295   0.0000       0.479209        13.0399 
 296   0.0000       0.480035        13.0624 
 297   0.0000       0.482626        13.1329 
 298   0.0000       0.494533        13.4569 
 299   0.0000       0.495998        13.4968 
 300   0.0000       0.498392        13.5619 
 301   0.0000       0.501432        13.6447 
 302   0.0000       0.506700        13.7880 
 303   0.0000       0.507392        13.8068 
 304   0.0000       0.514372        13.9968 
 305   0.0000       0.516261        14.0482 
 306   0.0000       0.519877        14.1466 
 307   0.0000       0.520894        14.1742 
 308   0.0000       0.526486        14.3264 
 309   0.0000       0.528837        14.3904 
 310   0.0000       0.534306        14.5392 
 311   0.0000       0.536795        14.6069 
 312   0.0000       0.544084        14.8053 
 313   0.0000       0.545205        14.8358 
 314   0.0000       0.548621        14.9287 
 315   0.0000       0.551955        15.0194 
 316   0.0000       0.554954        15.1011 
 317   0.0000       0.559379        15.2215 
 318   0.0000       0.568020        15.4566 
 319   0.0000       0.568748        15.4764 
 320   0.0000       0.574242        15.6259 
 321   0.0000       0.578701        15.7473 
 322   0.0000       0.590751        16.0752 
 323   0.0000       0.614579        16.7236 
 324   0.0000       0.619132        16.8474 
 325   0.0000       0.622088        16.9279 
 326   0.0000       0.631084        17.1727 
 327   0.0000       0.647216        17.6116 
 328   0.0000       0.658023        17.9057 
 329   0.0000       0.694530        18.8991 
 330   0.0000       0.706766        19.2321 
 331   0.0000       0.711036        19.3483 
 332   0.0000       0.715858        19.4795 
 333   0.0000       0.722183        19.6516 
 334   0.0000       0.733438        19.9579 
 335   0.0000       0.737705        20.0740 
 336   0.0000       0.745121        20.2758 
 337   0.0000       0.748563        20.3694 
 338   0.0000       0.754158        20.5217 
 339   0.0000       0.766360        20.8537 
 340   0.0000       0.776673        21.1343 
 341   0.0000       0.794969        21.6322 
 342   0.0000       0.796886        21.6844 
 343   0.0000       0.809195        22.0193 
 344   0.0000       0.814484        22.1632 
 345   0.0000       0.817736        22.2517 
 346   0.0000       0.829657        22.5761 
 347   0.0000       0.836161        22.7531 
 348   0.0000       0.838423        22.8147 
 349   0.0000       0.845089        22.9960 
 350   0.0000       0.851397        23.1677 
 351   0.0000       0.859851        23.3977 
 352   0.0000       0.867546        23.6071 
 353   0.0000       0.875373        23.8201 
 354   0.0000       0.876231        23.8435 
 355   0.0000       0.887861        24.1599 
 356   0.0000       0.895146        24.3582 
 357   0.0000       0.905384        24.6367 
 358   0.0000       0.911379        24.7999 
 359   0.0000       0.917091        24.9553 
 360   0.0000       0.928063        25.2539 
 361   0.0000       0.928776        25.2733 
 362   0.0000       0.934054        25.4169 
 363   0.0000       0.946290        25.7499 
 364   0.0000       0.949189        25.8287 
 365   0.0000       0.962678        26.1958 
 366   0.0000       0.963358        26.2143 
 367   0.0000       0.976602        26.5747 
 368   0.0000       0.983542        26.7635 
 369   0.0000       0.985162        26.8076 
 370   0.0000       0.991963        26.9927 
 371   0.0000       1.004424        27.3318 
 372   0.0000       1.009985        27.4831 
 373   0.0000       1.018359        27.7110 
 374   0.0000       1.028872        27.9970 
 375   0.0000       1.038229        28.2516 
 376   0.0000       1.059636        28.8342 
 377   0.0000       1.065175        28.9849 
 378   0.0000       1.070976        29.1428 
 379   0.0000       1.100453        29.9448 
 380   0.0000       1.124878        30.6095 
 381   0.0000       1.240148        33.7461 
 382   0.0000       1.245482        33.8913 
 383   0.0000       1.266403        34.4606 
 384   0.0000       1.275530        34.7089 
 385   0.0000       1.281901        34.8823 
 386   0.0000       1.290585        35.1186 
 387   0.0000       1.300152        35.3789 
 388   0.0000       1.306049        35.5394 
 389   0.0000       1.322926        35.9986 
 390   0.0000       1.332233        36.2519 
 391   0.0000       1.336055        36.3559 
 392   0.0000       1.354517        36.8583 
 393   0.0000       1.355946        36.8972 
 394   0.0000       1.364426        37.1279 
 395   0.0000       1.364913        37.1412 
 396   0.0000       1.381994        37.6060 
 397   0.0000       1.389222        37.8027 
 398   0.0000       1.391796        37.8727 
 399   0.0000       1.399913        38.0936 
 400   0.0000       1.409235        38.3472 
 401   0.0000       1.415986        38.5309 
 402   0.0000       1.420223        38.6462 
 403   0.0000       1.427500        38.8443 
 404   0.0000       1.429408        38.8962 
 405   0.0000       1.430980        38.9389 
 406   0.0000       1.433093        38.9964 
 407   0.0000       1.441590        39.2277 
 408   0.0000       1.445975        39.3470 
 409   0.0000       1.449964        39.4555 
 410   0.0000       1.456802        39.6416 
 411   0.0000       1.458996        39.7013 
 412   0.0000       1.463176        39.8150 
 413   0.0000       1.470827        40.0232 
 414   0.0000       1.473522        40.0966 
 415   0.0000       1.479775        40.2667 
 416   0.0000       1.481630        40.3172 
 417   0.0000       1.483545        40.3693 
 418   0.0000       1.486162        40.4405 
 419   0.0000       1.496131        40.7118 
 420   0.0000       1.496910        40.7330 
 421   0.0000       1.500673        40.8354 
 422   0.0000       1.506548        40.9953 
 423   0.0000       1.507827        41.0301 
 424   0.0000       1.508671        41.0530 
 425   0.0000       1.510411        41.1004 
 426   0.0000       1.513795        41.1925 
 427   0.0000       1.516017        41.2529 
 428   0.0000       1.518465        41.3195 
 429   0.0000       1.520143        41.3652 
 430   0.0000       1.524040        41.4712 
 431   0.0000       1.526747        41.5449 
 432   0.0000       1.529085        41.6085 
 433   0.0000       1.529795        41.6278 
 434   0.0000       1.532193        41.6931 
 435   0.0000       1.533944        41.7407 
 436   0.0000       1.535089        41.7719 
 437   0.0000       1.537133        41.8275 
 438   0.0000       1.538834        41.8738 
 439   0.0000       1.539943        41.9040 
 440   0.0000       1.542287        41.9678 
 441   0.0000       1.544556        42.0295 
 442   0.0000       1.549856        42.1737 
 443   0.0000       1.550306        42.1860 
 444   0.0000       1.551293        42.2128 
 445   0.0000       1.553029        42.2601 
 446   0.0000       1.556281        42.3486 
 447   0.0000       1.556895        42.3653 
 448   0.0000       1.559375        42.4328 
 449   0.0000       1.560695        42.4687 
 450   0.0000       1.561976        42.5035 
 451   0.0000       1.562707        42.5234 
 452   0.0000       1.563038        42.5324 
 453   0.0000       1.563688        42.5501 
 454   0.0000       1.565566        42.6012 
 455   0.0000       1.566155        42.6172 
 456   0.0000       1.566847        42.6361 
 457   0.0000       1.569142        42.6985 
 458   0.0000       1.570446        42.7340 
 459   0.0000       1.571032        42.7500 
 460   0.0000       1.571472        42.7619 
 461   0.0000       1.574039        42.8318 
 462   0.0000       1.575268        42.8652 
 463   0.0000       1.577281        42.9200 
 464   0.0000       1.578361        42.9494 
 465   0.0000       1.579847        42.9898 
 466   0.0000       1.582029        43.0492 
 467   0.0000       1.583008        43.0758 
 468   0.0000       1.583959        43.1017 
 469   0.0000       1.584832        43.1255 
 470   0.0000       1.586472        43.1701 
 471   0.0000       1.588031        43.2125 
 472   0.0000       1.589296        43.2470 
 473   0.0000       1.590841        43.2890 
 474   0.0000       1.591795        43.3149 
 475   0.0000       1.593480        43.3608 
 476   0.0000       1.594989        43.4019 
 477   0.0000       1.596105        43.4322 
 478   0.0000       1.596725        43.4491 
 479   0.0000       1.599307        43.5193 
 480   0.0000       1.601435        43.5773 
 481   0.0000       1.601734        43.5854 
 482   0.0000       1.604597        43.6633 
 483   0.0000       1.607036        43.7297 
 484   0.0000       1.607911        43.7535 
 485   0.0000       1.616081        43.9758 
 486   0.0000       1.618851        44.0512 
 487   0.0000       1.622752        44.1573 
 488   0.0000       1.623707        44.1833 
 489   0.0000       1.626485        44.2589 
 490   0.0000       1.629562        44.3426 
 491   0.0000       1.631401        44.3927 
 492   0.0000       1.633559        44.4514 
 493   0.0000       1.637738        44.5651 
 494   0.0000       1.638922        44.5973 
 495   0.0000       1.641711        44.6732 
 496   0.0000       1.641792        44.6754 
 497   0.0000       1.645488        44.7760 
 498   0.0000       1.646915        44.8148 
 499   0.0000       1.648847        44.8674 
 500   0.0000       1.649440        44.8835 
 501   0.0000       1.650603        44.9152 
 502   0.0000       1.654523        45.0219 
 503   0.0000       1.656422        45.0735 
 504   0.0000       1.658528        45.1309 
 505   0.0000       1.661409        45.2092 
 506   0.0000       1.662231        45.2316 
 507   0.0000       1.668255        45.3955 
 508   0.0000       1.670476        45.4560 
 509   0.0000       1.672562        45.5127 
 510   0.0000       1.674322        45.5606 
 511   0.0000       1.677718        45.6530 
 512   0.0000       1.681411        45.7535 
 513   0.0000       1.682727        45.7893 
 514   0.0000       1.684982        45.8507 
 515   0.0000       1.689732        45.9799 
 516   0.0000       1.690717        46.0067 
 517   0.0000       1.693022        46.0695 
 518   0.0000       1.695401        46.1342 
 519   0.0000       1.695927        46.1485 
 520   0.0000       1.698861        46.2284 
 521   0.0000       1.702417        46.3251 
 522   0.0000       1.704497        46.3817 
 523   0.0000       1.704991        46.3952 
 524   0.0000       1.712886        46.6100 
 525   0.0000       1.717592        46.7381 
 526   0.0000       1.720367        46.8136 
 527   0.0000       1.724290        46.9203 
 528   0.0000       1.725928        46.9649 
 529   0.0000       1.730606        47.0922 
 530   0.0000       1.736984        47.2657 
 531   0.0000       1.739124        47.3240 
 532   0.0000       1.744520        47.4708 
 533   0.0000       1.750058        47.6215 
 534   0.0000       1.757595        47.8266 
 535   0.0000       1.759294        47.8728 
 536   0.0000       1.765301        48.0363 
 537   0.0000       1.769335        48.1461 
 538   0.0000       1.783106        48.5208 
 539   0.0000       1.791343        48.7449 
 540   0.0000       1.793245        48.7967 
 541   0.0000       1.802511        49.0488 
 542   0.0000       1.804714        49.1088 
 543   0.0000       1.813712        49.3536 
 544   0.0000       1.821729        49.5718 
 545   0.0000       1.830061        49.7985 
 546   0.0000       1.831963        49.8503 
 547   0.0000       1.842837        50.1461 
 548   0.0000       1.845248        50.2118 
 549   0.0000       1.851462        50.3808 
 550   0.0000       1.856041        50.5054 
 551   0.0000       1.863795        50.7164 
 552   0.0000       1.865708        50.7685 
 553   0.0000       1.871951        50.9384 
 554   0.0000       1.874773        51.0152 
 555   0.0000       1.885123        51.2968 
 556   0.0000       1.887535        51.3624 
 557   0.0000       1.889803        51.4241 
 558   0.0000       1.895168        51.5701 
 559   0.0000       1.900335        51.7107 
 560   0.0000       1.905471        51.8505 
 561   0.0000       1.909370        51.9566 
 562   0.0000       1.920360        52.2557 
 563   0.0000       1.929868        52.5144 
 564   0.0000       1.933381        52.6100 
 565   0.0000       1.937174        52.7132 
 566   0.0000       1.938239        52.7422 
 567   0.0000       1.944310        52.9074 
 568   0.0000       1.955767        53.2191 
 569   0.0000       1.979587        53.8673 
 570   0.0000       1.993245        54.2389 
 571   0.0000       1.999783        54.4169 
 572   0.0000       2.025258        55.1101 
 573   0.0000       2.030027        55.2398 
 574   0.0000       2.069924        56.3255 
 575   0.0000       2.088726        56.8371 
 576   0.0000       2.180686        59.3395 
 577   0.0000       2.374640        64.6172 
 578   0.0000       2.390399        65.0461 
 579   0.0000       2.392264        65.0968 
 580   0.0000       2.463197        67.0270 
 581   0.0000       2.523271        68.6617 
 582   0.0000       2.538626        69.0795 
 583   0.0000       2.563645        69.7603 
 584   0.0000       2.584340        70.3235 
 585   0.0000       2.607451        70.9523 
 586   0.0000       2.613780        71.1246 
 587   0.0000       2.639076        71.8129 
 588   0.0000       2.642120        71.8957 
 589   0.0000       2.667132        72.5763 
 590   0.0000       2.695615        73.3514 
 591   0.0000       2.703332        73.5614 
 592   0.0000       2.773188        75.4623 
 593   0.0000       3.222823        87.6975 
 594   0.0000       3.259939        88.7074 
 595   0.0000       3.262288        88.7714 
 596   0.0000       3.280107        89.2562 
 597   0.0000       3.282039        89.3088 
 598   0.0000       3.294317        89.6429 
 599   0.0000       3.294928        89.6595 
 600   0.0000       3.311529        90.1113 
 601   0.0000       3.363137        91.5156 
 602   0.0000       3.365564        91.5816 
 603   0.0000       3.378357        91.9298 
 604   0.0000       3.397559        92.4523 
 605   0.0000      24.148498       657.1140 
 606   0.0000      24.398081       663.9055 
 607   0.0000      24.526673       667.4047 
 608   0.0000      24.595837       669.2868 
 609   0.0000      24.701176       672.1532 
 610   0.0000      24.731226       672.9709 
 611   0.0000      24.889348       677.2736 
 612   0.0000      24.919993       678.1075 
 613   0.0000      25.066657       682.0984 
 614   0.0000      25.104560       683.1298 
 615   0.0000      25.254482       687.2094 
 616   0.0000      25.306375       688.6215 
 617   0.0000      25.371435       690.3918 
 618   0.0000      25.526235       694.6042 
 619   0.0000      25.573861       695.9001 
 620   0.0000      25.735175       700.2897 
 621   0.0000      25.793579       701.8790 
 622   0.0000      25.833607       702.9682 
 623   0.0000      25.920977       705.3457 
 624   0.0000      25.990364       707.2338 
 625   0.0000      26.099639       710.2073 
 626   0.0000      26.220742       713.5027 
 627   0.0000      26.322247       716.2648 
 628   0.0000      26.386880       718.0235 
 629   0.0000      26.400010       718.3808 
 630   0.0000      26.443172       719.5553 
 631   0.0000      26.459854       720.0092 
 632   0.0000      26.571218       723.0396 
 633   0.0000      26.753466       727.9988 
 634   0.0000      26.765503       728.3264 
 635   0.0000      26.926511       732.7076 
 636   0.0000      26.941715       733.1213 
 637   0.0000      27.034278       735.6401 
 638   0.0000      27.112727       737.7748 
 639   0.0000      27.146727       738.7000 
 640   0.0000      27.209244       740.4012 
 641   0.0000      27.240691       741.2569 
 642   0.0000      27.288732       742.5642 
 643   0.0000      27.400069       745.5938 
 644   0.0000      27.445010       746.8167 
 645   0.0000      27.667986       752.8842 
 646   0.0000      27.786003       756.0956 
 647   0.0000      28.002019       761.9737 
 648   0.0000      28.072244       763.8846 
 649   0.0000      28.183838       766.9212 
 650   0.0000      28.329471       770.8841 
 651   0.0000      28.348612       771.4049 
 652   0.0000      28.557312       777.0840 
 653   0.0000      44.332248      1206.3418 
 654   0.0000      44.510602      1211.1951 
 655   0.0000      44.522858      1211.5286 
 656   0.0000      44.533257      1211.8115 
 657   0.0000      44.578597      1213.0453 
 658   0.0000      44.626559      1214.3504 
 659   0.0000      44.637997      1214.6616 
 660   0.0000      44.653295      1215.0779 
 661   0.0000      44.661705      1215.3068 
 662   0.0000      44.668591      1215.4942 
 663   0.0000      44.683466      1215.8989 
 664   0.0000      44.712593      1216.6915 
 665   0.0000      44.725798      1217.0508 
 666   0.0000      44.753016      1217.7915 
 667   0.0000      44.765141      1218.1214 
 668   0.0000      44.783890      1218.6316 
 669   0.0000     205.228980      5584.5644 
 670   0.0000     205.300848      5586.5201 
 671   0.0000     205.307695      5586.7064 
 672   0.0000     205.310292      5586.7771 
 673   0.0000     205.331020      5587.3411 
 674   0.0000     205.352077      5587.9141 
 675   0.0000     205.353703      5587.9584 
 676   0.0000     205.360094      5588.1323 
 677   0.0000     205.369508      5588.3884 
 678   0.0000     205.373699      5588.5025 
 679   0.0000     205.376129      5588.5686 
 680   0.0000     205.387660      5588.8824 
 681   0.0000     205.390168      5588.9506 
 682   0.0000     205.409577      5589.4787 
 683   0.0000     205.411703      5589.5366 
 684   0.0000     205.418087      5589.7103 

                 SPIN DOWN ORBITALS
  NO   OCC          E(Eh)            E(eV) 
   0   1.0000    -235.063461     -6396.4020 
   1   1.0000     -27.156201      -738.9578 
   2   1.0000     -23.224082      -631.9594 
   3   1.0000     -23.223540      -631.9446 
   4   1.0000     -23.223445      -631.9421 
   5   1.0000      -4.126723      -112.2938 
   6   1.0000      -4.126383      -112.2846 
   7   1.0000      -4.126359      -112.2839 
   8   1.0000      -4.124721      -112.2394 
   9   1.0000      -4.124651      -112.2375 
  10   1.0000      -4.114581      -111.9634 
  11   1.0000      -4.113773      -111.9415 
  12   1.0000      -4.113174      -111.9252 
  13   1.0000      -4.112685      -111.9119 
  14   1.0000      -4.112361      -111.9030 
  15   1.0000      -4.112127      -111.8967 
  16   1.0000      -4.111453      -111.8783 
  17   1.0000      -4.111156      -111.8702 
  18   1.0000      -4.109969      -111.8380 
  19   1.0000      -4.108226      -111.7905 
  20   1.0000      -4.106520      -111.7441 
  21   1.0000      -3.052898       -83.0736 
  22   1.0000      -2.316515       -63.0356 
  23   1.0000      -2.315417       -63.0057 
  24   1.0000      -2.315202       -62.9999 
  25   1.0000      -2.314821       -62.9895 
  26   1.0000      -2.314244       -62.9738 
  27   1.0000      -2.313169       -62.9445 
  28   1.0000      -2.312401       -62.9236 
  29   1.0000      -2.311096       -62.8881 
  30   1.0000      -2.309949       -62.8569 
  31   1.0000      -2.309037       -62.8321 
  32   1.0000      -2.308431       -62.8156 
  33   1.0000      -2.306604       -62.7659 
  34   1.0000      -2.305912       -62.7470 
  35   1.0000      -2.305500       -62.7358 
  36   1.0000      -2.305008       -62.7225 
  37   1.0000      -2.304693       -62.7139 
  38   1.0000      -2.304185       -62.7001 
  39   1.0000      -2.303274       -62.6753 
  40   1.0000      -2.302541       -62.6553 
  41   1.0000      -2.302224       -62.6467 
  42   1.0000      -2.301994       -62.6405 
  43   1.0000      -2.300635       -62.6035 
  44   1.0000      -2.299989       -62.5859 
  45   1.0000      -2.299386       -62.5695 
  46   1.0000      -2.299059       -62.5606 
  47   1.0000      -2.298959       -62.5579 
  48   1.0000      -2.298665       -62.5499 
  49   1.0000      -2.297543       -62.5193 
  50   1.0000      -2.297341       -62.5138 
  51   1.0000      -2.297260       -62.5116 
  52   1.0000      -2.297112       -62.5076 
  53   1.0000      -2.296493       -62.4907 
  54   1.0000      -2.296370       -62.4874 
  55   1.0000      -2.296336       -62.4865 
  56   1.0000      -2.296153       -62.4815 
  57   1.0000      -2.295891       -62.4744 
  58   1.0000      -2.295532       -62.4646 
  59   1.0000      -2.295462       -62.4627 
  60   1.0000      -2.295281       -62.4578 
  61   1.0000      -2.294409       -62.4340 
  62   1.0000      -2.293782       -62.4170 
  63   1.0000      -2.293537       -62.4103 
  64   1.0000      -2.293247       -62.4024 
  65   1.0000      -2.293144       -62.3996 
  66   1.0000      -2.292920       -62.3935 
  67   1.0000      -2.292306       -62.3768 
  68   1.0000      -2.291119       -62.3445 
  69   1.0000      -2.286179       -62.2101 
  70   1.0000      -1.912121       -52.0315 
  71   1.0000      -1.908954       -51.9453 
  72   1.0000      -1.908808       -51.9413 
  73   1.0000      -0.419712       -11.4209 
  74   1.0000      -0.393451       -10.7064 
  75   1.0000      -0.391487       -10.6529 
  76   1.0000      -0.390324       -10.6213 
  77   1.0000      -0.376891       -10.2557 
  78   1.0000      -0.376088       -10.2339 
  79   1.0000      -0.374277       -10.1846 
  80   1.0000      -0.373550       -10.1648 
  81   1.0000      -0.370870       -10.0919 
  82   1.0000      -0.367349        -9.9961 
  83   1.0000      -0.366371        -9.9695 
  84   1.0000      -0.365511        -9.9461 
  85   1.0000      -0.364504        -9.9187 
  86   1.0000      -0.362966        -9.8768 
  87   1.0000      -0.361395        -9.8340 
  88   1.0000      -0.358102        -9.7445 
  89   1.0000      -0.355434        -9.6718 
  90   1.0000      -0.353883        -9.6297 
  91   1.0000      -0.353080        -9.6078 
  92   1.0000      -0.351693        -9.5701 
  93   1.0000      -0.349326        -9.5056 
  94   1.0000      -0.346025        -9.4158 
  95   1.0000      -0.345522        -9.4021 
  96   1.0000      -0.343565        -9.3489 
  97   1.0000      -0.342554        -9.3214 
  98   1.0000      -0.339143        -9.2285 
  99   1.0000      -0.338054        -9.1989 
 100   1.0000      -0.335656        -9.1337 
 101   1.0000      -0.334793        -9.1102 
 102   1.0000      -0.332601        -9.0505 
 103   1.0000      -0.329414        -8.9638 
 104   1.0000      -0.325852        -8.8669 
 105   1.0000      -0.321692        -8.7537 
 106   1.0000      -0.317671        -8.6443 
 107   1.0000      -0.315960        -8.5977 
 108   1.0000      -0.314683        -8.5630 
 109   1.0000      -0.313304        -8.5254 
 110   1.0000      -0.311050        -8.4641 
 111   1.0000      -0.308801        -8.4029 
 112   1.0000      -0.306367        -8.3367 
 113   1.0000      -0.305035        -8.3004 
 114   1.0000      -0.303340        -8.2543 
 115   1.0000      -0.300541        -8.1781 
 116   1.0000      -0.298231        -8.1153 
 117   1.0000      -0.298001        -8.1090 
 118   1.0000      -0.295250        -8.0342 
 119   1.0000      -0.294841        -8.0230 
 120   1.0000      -0.292399        -7.9566 
 121   1.0000      -0.291184        -7.9235 
 122   1.0000      -0.290570        -7.9068 
 123   1.0000      -0.288383        -7.8473 
 124   1.0000      -0.286516        -7.7965 
 125   1.0000      -0.285749        -7.7756 
 126   1.0000      -0.282299        -7.6818 
 127   1.0000      -0.281505        -7.6601 
 128   1.0000      -0.279567        -7.6074 
 129   1.0000      -0.279125        -7.5954 
 130   1.0000      -0.275091        -7.4856 
 131   1.0000      -0.272879        -7.4254 
 132   1.0000      -0.271674        -7.3926 
 133   1.0000      -0.269145        -7.3238 
 134   1.0000      -0.268583        -7.3085 
 135   1.0000      -0.267471        -7.2783 
 136   1.0000      -0.267211        -7.2712 
 137   1.0000      -0.265648        -7.2287 
 138   1.0000      -0.264872        -7.2075 
 139   1.0000      -0.263214        -7.1624 
 140   1.0000      -0.261808        -7.1242 
 141   1.0000      -0.260736        -7.0950 
 142   1.0000      -0.259680        -7.0662 
 143   1.0000      -0.258891        -7.0448 
 144   1.0000      -0.257301        -7.0015 
 145   1.0000      -0.256484        -6.9793 
 146   1.0000      -0.254965        -6.9379 
 147   1.0000      -0.253323        -6.8933 
 148   1.0000      -0.251619        -6.8469 
 149   1.0000      -0.250918        -6.8278 
 150   1.0000      -0.249406        -6.7867 
 151   1.0000      -0.249176        -6.7804 
 152   1.0000      -0.247979        -6.7479 
 153   1.0000      -0.244618        -6.6564 
 154   1.0000      -0.242590        -6.6012 
 155   1.0000      -0.240801        -6.5525 
 156   1.0000      -0.239718        -6.5231 
 157   1.0000      -0.230718        -6.2782 
 158   1.0000      -0.216587        -5.8936 
 159   1.0000      -0.212690        -5.7876 
 160   1.0000      -0.210398        -5.7252 
 161   1.0000      -0.192933        -5.2500 
 162   0.0000      -0.157770        -4.2931 
 163   0.0000      -0.148243        -4.0339 
 164   0.0000      -0.147744        -4.0203 
 165   0.0000      -0.137231        -3.7342 
 166   0.0000      -0.127839        -3.4787 
 167   0.0000      -0.125261        -3.4085 
 168   0.0000      -0.122366        -3.3297 
 169   0.0000      -0.121092        -3.2951 
 170   0.0000      -0.120389        -3.2760 
 171   0.0000      -0.118583        -3.2268 
 172   0.0000      -0.108896        -2.9632 
 173   0.0000      -0.095083        -2.5873 
 174   0.0000      -0.092770        -2.5244 
 175   0.0000      -0.071508        -1.9458 
 176   0.0000      -0.058287        -1.5861 
 177   0.0000      -0.052712        -1.4344 
[...]
      px      :     2.096679
      py      :     2.289906
      dz2     :     1.965143  d :     9.875206
      dxz     :     1.978634
      dyz     :     1.967875
      dx2y2   :     1.984007
      dxy     :     1.979547
      f0      :     0.000812  f :     0.006896
      f+1     :     0.000796
      f-1     :     0.001402
      f+2     :     0.000727
      f-2     :     0.001056
      f+3     :     0.001004
      f-3     :     0.001098
 10 Aus       :     2.617212  s :     2.617212
      pz      :     2.111527  p :     6.511016
      px      :     2.162532
      py      :     2.236957
      dz2     :     1.983192  d :     9.851945
      dxz     :     1.969029
      dyz     :     1.999770
      dx2y2   :     1.955811
      dxy     :     1.944143
      f0      :     0.000801  f :     0.005561
      f+1     :     0.000676
      f-1     :     0.000741
      f+2     :     0.000981
      f-2     :     0.000863
      f+3     :     0.000692
      f-3     :     0.000807
 11 Aus       :     2.568031  s :     2.568031
      pz      :     2.179281  p :     6.619510
      px      :     2.247077
      py      :     2.193152
      dz2     :     1.983657  d :     9.876282
      dxz     :     1.988118
      dyz     :     1.973031
      dx2y2   :     1.961059
      dxy     :     1.970418
      f0      :     0.000799  f :     0.006340
      f+1     :     0.000931
      f-1     :     0.000709
      f+2     :     0.000751
      f-2     :     0.001245
      f+3     :     0.000882
      f-3     :     0.001023
 12 Aus       :     2.547790  s :     2.547790
      pz      :     2.154115  p :     6.567183
      px      :     2.186862
      py      :     2.226206
      dz2     :     2.002597  d :     9.939872
      dxz     :     1.974659
      dyz     :     1.995885
      dx2y2   :     1.996631
      dxy     :     1.970100
      f0      :     0.000733  f :     0.006409
      f+1     :     0.000801
      f-1     :     0.001047
      f+2     :     0.000739
      f-2     :     0.000968
      f+3     :     0.001253
      f-3     :     0.000870
 13 Aus       :     2.584524  s :     2.584524
      pz      :     2.199773  p :     6.475435
      px      :     2.138828
      py      :     2.136835
      dz2     :     1.986591  d :     9.900020
      dxz     :     1.972837
      dyz     :     1.978887
      dx2y2   :     1.975979
      dxy     :     1.985725
      f0      :     0.001039  f :     0.006111
      f+1     :     0.001134
      f-1     :     0.000778
      f+2     :     0.001026
      f-2     :     0.000620
      f+3     :     0.000722
      f-3     :     0.000792
 14 Aus       :     2.661472  s :     2.661472
      pz      :     2.137136  p :     6.343146
      px      :     2.102989
      py      :     2.103020
      dz2     :     1.974445  d :     9.885694
      dxz     :     1.983774
      dyz     :     1.987298
      dx2y2   :     1.954114
      dxy     :     1.986064
      f0      :     0.000506  f :     0.004920
      f+1     :     0.000637
      f-1     :     0.000684
      f+2     :     0.000846
      f-2     :     0.000643
      f+3     :     0.000772
      f-3     :     0.000831
 15 Aus       :     2.512185  s :     2.512185
      pz      :     2.245517  p :     6.627392
      px      :     2.300222
      py      :     2.081653
      dz2     :     1.978951  d :     9.949243
      dxz     :     1.980959
      dyz     :     2.002405
      dx2y2   :     1.998989
      dxy     :     1.987939
      f0      :     0.000900  f :     0.007177
      f+1     :     0.001492
      f-1     :     0.000775
      f+2     :     0.001037
      f-2     :     0.001010
      f+3     :     0.001159
      f-3     :     0.000803
 16 Mns       :     6.415501  s :     6.415501
      pz      :     4.153326  p :    12.534047
      px      :     4.179933
      py      :     4.200789
      dz2     :     1.183055  d :     5.804452
      dxz     :     1.142918
      dyz     :     1.128756
      dx2y2   :     1.150359
      dxy     :     1.199364
      f0      :     0.000097  f :     0.000719
      f+1     :     0.000099
      f-1     :     0.000125
      f+2     :     0.000080
      f-2     :     0.000090
      f+3     :     0.000081
      f-3     :     0.000147

SPIN
  0 Aus       :    -0.068254  s :    -0.068254
      pz      :    -0.009090  p :    -0.060057
      px      :    -0.026497
      py      :    -0.024470
      dz2     :    -0.000527  d :    -0.034914
      dxz     :    -0.001524
      dyz     :    -0.011085
      dx2y2   :    -0.021060
      dxy     :    -0.000719
      f0      :    -0.000005  f :    -0.000098
      f+1     :    -0.000005
      f-1     :    -0.000006
      f+2     :    -0.000047
      f-2     :    -0.000017
      f+3     :    -0.000010
      f-3     :    -0.000009
  1 Aus       :    -0.040278  s :    -0.040278
      pz      :     0.002648  p :    -0.025879
      px      :    -0.007145
      py      :    -0.021382
      dz2     :     0.003923  d :     0.016176
      dxz     :    -0.004083
      dyz     :     0.013233
      dx2y2   :     0.001119
      dxy     :     0.001983
      f0      :     0.000091  f :     0.000350
      f+1     :     0.000047
      f-1     :     0.000174
      f+2     :     0.000059
      f-2     :     0.000014
      f+3     :    -0.000013
      f-3     :    -0.000022
  2 Aus       :    -0.117160  s :    -0.117160
      pz      :    -0.019741  p :    -0.062636
      px      :    -0.021515
      py      :    -0.021380
      dz2     :    -0.004321  d :    -0.039565
      dxz     :    -0.004112
      dyz     :    -0.007733
      dx2y2   :    -0.021280
      dxy     :    -0.002118
      f0      :    -0.000013  f :    -0.000086
      f+1     :    -0.000011
      f-1     :    -0.000014
      f+2     :    -0.000007
      f-2     :    -0.000007
      f+3     :    -0.000027
      f-3     :    -0.000008
  3 Aus       :    -0.103059  s :    -0.103059
      pz      :     0.000787  p :    -0.008647
      px      :    -0.014037
      py      :     0.004604
      dz2     :    -0.009859  d :    -0.037806
      dxz     :    -0.004968
      dyz     :    -0.017449
      dx2y2   :    -0.004287
      dxy     :    -0.001243
      f0      :     0.000002  f :    -0.000049
      f+1     :    -0.000002
      f-1     :    -0.000004
      f+2     :    -0.000003
      f-2     :    -0.000007
      f+3     :    -0.000033
      f-3     :    -0.000002
  4 Aus       :    -0.069040  s :    -0.069040
      pz      :    -0.038925  p :    -0.064297
      px      :    -0.007777
      py      :    -0.017595
      dz2     :     0.004529  d :     0.023517
      dxz     :    -0.001127
      dyz     :    -0.002842
      dx2y2   :     0.010410
      dxy     :     0.012546
      f0      :    -0.000019  f :     0.000289
      f+1     :     0.000047
      f-1     :     0.000018
      f+2     :     0.000000
      f-2     :     0.000039
      f+3     :     0.000058
      f-3     :     0.000146
  5 Aus       :    -0.007040  s :    -0.007040
      pz      :    -0.000160  p :    -0.032504
      px      :    -0.032575
      py      :     0.000231
      dz2     :    -0.000122  d :    -0.008949
      dxz     :    -0.006431
      dyz     :    -0.001184
      dx2y2   :    -0.001671
      dxy     :     0.000460
      f0      :     0.000000  f :    -0.000026
      f+1     :    -0.000002
      f-1     :    -0.000001
      f+2     :    -0.000006
      f-2     :    -0.000007
      f+3     :    -0.000006
      f-3     :    -0.000004
  6 Aus       :    -0.025410  s :    -0.025410
      pz      :    -0.006811  p :    -0.029128
      px      :     0.000220
      py      :    -0.022537
      dz2     :    -0.005751  d :    -0.038929
      dxz     :    -0.000451
      dyz     :    -0.004508
      dx2y2   :    -0.021301
      dxy     :    -0.006919
      f0      :    -0.000007  f :    -0.000072
      f+1     :    -0.000006
      f-1     :    -0.000008
      f+2     :    -0.000022
      f-2     :     0.000005
      f+3     :    -0.000029
      f-3     :    -0.000005
  7 Aus       :    -0.031594  s :    -0.031594
      pz      :    -0.024601  p :    -0.053109
      px      :    -0.021877
      py      :    -0.006631
      dz2     :    -0.014528  d :    -0.022546
      dxz     :    -0.000244
      dyz     :     0.001291
      dx2y2   :    -0.007321
      dxy     :    -0.001745
      f0      :    -0.000018  f :    -0.000060
      f+1     :    -0.000015
      f-1     :    -0.000005
      f+2     :     0.000000
      f-2     :     0.000000
      f+3     :    -0.000001
      f-3     :    -0.000021
  8 Aus       :    -0.013603  s :    -0.013603
      pz      :    -0.004050  p :    -0.051867
      px      :    -0.030267
      py      :    -0.017550
      dz2     :    -0.001760  d :    -0.037380
      dxz     :     0.000544
      dyz     :    -0.013826
      dx2y2   :    -0.014421
      dxy     :    -0.007917
      f0      :    -0.000019  f :    -0.000057
      f+1     :    -0.000005
      f-1     :     0.000004
      f+2     :    -0.000044
      f-2     :     0.000004
      f+3     :     0.000004
      f-3     :     0.000000
  9 Aus       :    -0.051755  s :    -0.051755
      pz      :     0.004022  p :    -0.024178
      px      :    -0.022169
      py      :    -0.006032
      dz2     :     0.008350  d :     0.030258
      dxz     :     0.011211
      dyz     :     0.001755
      dx2y2   :     0.003081
      dxy     :     0.005861
      f0      :     0.000055  f :     0.000325
      f+1     :     0.000090
      f-1     :     0.000049
      f+2     :     0.000060
      f-2     :     0.000075
      f+3     :    -0.000021
      f-3     :     0.000016
 10 Aus       :    -0.008322  s :    -0.008322
      pz      :    -0.013963  p :    -0.041087
      px      :    -0.006658
      py      :    -0.020467
      dz2     :    -0.003023  d :     0.024016
      dxz     :     0.004796
      dyz     :     0.001365
      dx2y2   :     0.009864
      dxy     :     0.011014
      f0      :     0.000027  f :     0.000274
      f+1     :     0.000046
      f-1     :    -0.000025
      f+2     :     0.000014
      f-2     :     0.000048
      f+3     :     0.000015
      f-3     :     0.000148
 11 Aus       :    -0.036439  s :    -0.036439
      pz      :     0.000238  p :    -0.024210
      px      :    -0.010265
      py      :    -0.014184
      dz2     :     0.006968  d :     0.028742
      dxz     :    -0.003183
      dyz     :     0.000156
      dx2y2   :     0.017955
      dxy     :     0.006846
      f0      :     0.000022  f :     0.000274
      f+1     :    -0.000007
      f-1     :     0.000076
      f+2     :     0.000026
      f-2     :     0.000004
      f+3     :     0.000038
      f-3     :     0.000114
 12 Aus       :    -0.030760  s :    -0.030760
      pz      :    -0.000805  p :    -0.033795
      px      :    -0.030272
      py      :    -0.002719
      dz2     :    -0.002415  d :    -0.010108
      dxz     :    -0.000638
      dyz     :    -0.007069
      dx2y2   :    -0.001800
      dxy     :     0.001814
      f0      :    -0.000000  f :    -0.000074
      f+1     :    -0.000013
      f-1     :    -0.000040
      f+2     :    -0.000009
      f-2     :    -0.000005
      f+3     :    -0.000007
      f-3     :     0.000001
 13 Aus       :    -0.012709  s :    -0.012709
      pz      :    -0.000179  p :    -0.055282
      px      :    -0.022810
      py      :    -0.032293
      dz2     :    -0.002120  d :    -0.033666
      dxz     :     0.000724
      dyz     :    -0.006576
      dx2y2   :    -0.021394
      dxy     :    -0.004299
      f0      :    -0.000022  f :    -0.000038
      f+1     :    -0.000004
      f-1     :     0.000004
      f+2     :    -0.000004
      f-2     :     0.000002
      f+3     :     0.000000
      f-3     :    -0.000015
 14 Aus       :    -0.077201  s :    -0.077201
      pz      :    -0.014050  p :    -0.060016
      px      :    -0.029659
      py      :    -0.016307
      dz2     :     0.000709  d :    -0.035890
      dxz     :    -0.004040
      dyz     :    -0.000219
      dx2y2   :    -0.030054
      dxy     :    -0.002284
      f0      :    -0.000019  f :    -0.000082
      f+1     :    -0.000004
      f-1     :    -0.000012
      f+2     :    -0.000007
      f-2     :    -0.000019
      f+3     :    -0.000001
      f-3     :    -0.000021
 15 Aus       :    -0.021671  s :    -0.021671
      pz      :    -0.009781  p :    -0.024654
      px      :    -0.001111
      py      :    -0.013762
      dz2     :    -0.016751  d :    -0.040722
      dxz     :    -0.009580
      dyz     :     0.000408
      dx2y2   :    -0.014111
      dxy     :    -0.000688
      f0      :     0.000002  f :    -0.000058
      f+1     :    -0.000007
      f-1     :    -0.000006
      f+2     :    -0.000008
      f-2     :    -0.000024
      f+3     :     0.000006
      f-3     :    -0.000020
 16 Mns       :     0.080709  s :     0.080709
      pz      :    -0.006308  p :     0.025909
      px      :     0.014579
      py      :     0.017638
      dz2     :     0.879424  d :     4.475935
      dxz     :     0.905615
      dyz     :     0.918370
      dx2y2   :     0.899035
      dxy     :     0.873490
      f0      :     0.000010  f :     0.000042
      f+1     :     0.000004
      f-1     :     0.000004
      f+2     :     0.000007
      f-2     :     0.000005
      f+3     :     0.000006
      f-3     :     0.000005


                      *****************************
                      * MAYER POPULATION ANALYSIS *
                      *****************************

  NA   - Mulliken gross atomic population
  ZA   - Total nuclear charge
  QA   - Mulliken gross atomic charge
  VA   - Mayer's total valence
  BVA  - Mayer's bonded valence
  FA   - Mayer's free valence

  ATOM       NA         ZA         QA         VA         BVA        FA
  0 Au    18.7184    19.0000     0.2816     1.6196     1.5926     0.0270
  1 Au    19.2771    19.0000    -0.2771     2.0766     2.0575     0.0190
  2 Au    18.5631    19.0000     0.4369     1.3885     1.3276     0.0609
  3 Au    19.9401    19.0000    -0.9401     2.4525     2.3722     0.0802
  4 Au    18.7020    19.0000     0.2980     1.5909     1.5600     0.0309
  5 Au    18.7611    19.0000     0.2389     1.5683     1.5674     0.0009
  6 Au    19.4606    19.0000    -0.4606     2.2496     2.2441     0.0056
  7 Au    18.7210    19.0000     0.2790     1.6759     1.6677     0.0082
  8 Au    18.8156    19.0000     0.1844     1.7272     1.7203     0.0070
  9 Au    19.2248    19.0000    -0.2248     1.9556     1.9350     0.0206
 10 Au    18.6711    19.0000     0.3289     1.6530     1.6492     0.0038
 11 Au    19.1942    19.0000    -0.1942     2.0195     2.0068     0.0128
 12 Au    19.0521    19.0000    -0.0521     1.7819     1.7750     0.0069
 13 Au    18.8191    19.0000     0.1809     1.7336     1.7271     0.0066
 14 Au    18.5289    19.0000     0.4711     1.3842     1.3525     0.0317
 15 Au    19.6139    19.0000    -0.6139     2.3602     2.3525     0.0077
 16 Mn    24.9368    25.0000     0.0632     7.1610     2.8191     4.3419

  Mayer bond orders larger than 0.100000
B(  0-Au,  3-Au) :   0.2200 B(  0-Au,  5-Au) :   0.2003 B(  0-Au,  7-Au) :   0.2472 
B(  0-Au, 13-Au) :   0.3091 B(  0-Au, 15-Au) :   0.3494 B(  1-Au,  2-Au) :   0.2434 
B(  1-Au,  4-Au) :   0.2055 B(  1-Au,  6-Au) :   0.3312 B(  1-Au,  8-Au) :   0.2653 
B(  1-Au,  9-Au) :   0.2665 B(  1-Au, 16-Mn) :   0.4809 B(  2-Au,  6-Au) :   0.3831 
B(  2-Au,  9-Au) :   0.1685 B(  2-Au, 12-Au) :   0.1556 B(  3-Au,  4-Au) :   0.2061 
B(  3-Au,  6-Au) :   0.1026 B(  3-Au,  7-Au) :   0.3040 B(  3-Au,  8-Au) :   0.3965 
B(  3-Au, 10-Au) :   0.3173 B(  3-Au, 13-Au) :   0.3742 B(  3-Au, 15-Au) :   0.1210 
B(  4-Au,  8-Au) :   0.2390 B(  4-Au, 10-Au) :   0.2278 B(  4-Au, 16-Mn) :   0.4702 
B(  5-Au,  6-Au) :   0.2622 B(  5-Au,  7-Au) :   0.2232 B(  5-Au, 12-Au) :   0.3209 
B(  5-Au, 15-Au) :   0.3067 B(  6-Au,  7-Au) :   0.3812 B(  6-Au,  8-Au) :   0.2446 
B(  6-Au, 12-Au) :   0.2935 B(  7-Au,  8-Au) :   0.2798 B(  9-Au, 11-Au) :   0.2037 
B(  9-Au, 12-Au) :   0.2510 B(  9-Au, 14-Au) :   0.2238 B(  9-Au, 15-Au) :   0.1044 
B(  9-Au, 16-Mn) :   0.5021 B( 10-Au, 11-Au) :   0.2693 B( 10-Au, 13-Au) :   0.2466 
B( 10-Au, 16-Mn) :   0.4001 B( 11-Au, 13-Au) :   0.2392 B( 11-Au, 14-Au) :   0.2958 
B( 11-Au, 15-Au) :   0.3181 B( 11-Au, 16-Mn) :   0.4614 B( 12-Au, 14-Au) :   0.1320 
B( 12-Au, 15-Au) :   0.3742 B( 13-Au, 15-Au) :   0.2714 B( 14-Au, 15-Au) :   0.3220 


-------
TIMINGS
-------

Total SCF time: 0 days 0 hours 8 min 10 sec 

Total time                  ....     490.096 sec
Sum of individual times     ....     482.708 sec  ( 98.5%)

Fock matrix formation       ....     451.545 sec  ( 92.1%)
  Split-RI-J                ....      92.135 sec  ( 20.4% of F)
  XC integration            ....     357.073 sec  ( 79.1% of F)
    Basis function eval.    ....      20.383 sec  (  5.7% of XC)
    Density eval.           ....     209.173 sec  ( 58.6% of XC)
    XC-Functional eval.     ....       9.888 sec  (  2.8% of XC)
    XC-Potential eval.      ....     107.425 sec  ( 30.1% of XC)
Diagonalization             ....      25.010 sec  (  5.1%)
Density matrix formation    ....       0.930 sec  (  0.2%)
Population analysis         ....       0.852 sec  (  0.2%)
Initial guess               ....       0.945 sec  (  0.2%)
Orbital Transformation      ....       0.000 sec  (  0.0%)
Orbital Orthonormalization  ....       0.853 sec  (  0.2%)
DIIS solution               ....       0.000 sec  (  0.0%)
Grid generation             ....       3.426 sec  (  0.7%)

Maximum memory used throughout the entire SCF-calculation: 120.6 MB

-------------------------   --------------------
FINAL SINGLE POINT ENERGY     -3324.555502510912
-------------------------   --------------------


                            ***************************************
                            *     ORCA property calculations      *
                            ***************************************

                                    ---------------------
                                    Active property flags
                                    ---------------------
   (+) Dipole Moment


------------------------------------------------------------------------------
                       ORCA ELECTRIC PROPERTIES CALCULATION
------------------------------------------------------------------------------

Dipole Moment Calculation                       ... on
Quadrupole Moment Calculation                   ... off
Polarizability Calculation                      ... off
GBWName                                         ... scan_job2.gbw
Electron density                                ... scan_job2.scfp
The origin for moment calculation is the CENTER OF MASS  = (12.958463, 14.038981 14.487491)

-------------
DIPOLE MOMENT
-------------
                                X             Y             Z
Electronic contribution:    -48.32904     -44.75252     -97.71916
Nuclear contribution   :     48.81068      44.99236      98.54399
                        -----------------------------------------
Total Dipole Moment    :      0.48164       0.23984       0.82483
                        -----------------------------------------
Magnitude (a.u.)       :      0.98480
Magnitude (Debye)      :      2.50317



--------------------
Rotational spectrum 
--------------------
 
Rotational constants in cm-1:     0.000850     0.000804     0.000787 
Rotational constants in MHz :    25.493195    24.088324    23.595007 

 Dipole components along the rotational axes: 
x,y,z [a.u.] :    -0.147154    -0.159634     0.960574 
x,y,z [Debye]:    -0.374037    -0.405757     2.441586 

 

Timings for individual modules:

Sum of individual times         ...      521.662 sec (=   8.694 min)
GTO integral calculation        ...       31.259 sec (=   0.521 min)   6.0 %
SCF iterations                  ...      490.403 sec (=   8.173 min)  94.0 %



                             ****ORCA TERMINATED NORMALLY****
TOTAL RUN TIME: 0 days 0 hours 18 minutes 8 seconds 322 msec
