
                                 *****************
                                 * O   R   C   A *
                                 *****************

                                            #,                                       
                                            ###                                      
                                            ####                                     
                                            #####                                    
                                            ######                                   
                                           ########,                                 
                                     ,,################,,,,,                         
                               ,,#################################,,                 
                          ,,##########################################,,             
                       ,#########################################, ''#####,          
                    ,#############################################,,   '####,        
                  ,##################################################,,,,####,       
                ,###########''''           ''''###############################       
              ,#####''   ,,,,##########,,,,          '''####'''          '####       
            ,##' ,,,,###########################,,,                        '##       
           ' ,,###''''                  '''############,,,                           
         ,,##''                                '''############,,,,        ,,,,,,###''
      ,#''                                            '''#######################'''  
     '                                                          ''''####''''         
             ,#######,   #######,   ,#######,      ##                                
            ,#'     '#,  ##    ##  ,#'     '#,    #''#        ######   ,####,        
            ##       ##  ##   ,#'  ##            #'  '#       #        #'  '#        
            ##       ##  #######   ##           ,######,      #####,   #    #        
            '#,     ,#'  ##    ##  '#,     ,#' ,#      #,         ##   #,  ,#        
             '#######'   ##     ##  '#######'  #'      '#     #####' # '####'        



                  #######################################################
                  #                        -***-                        #
                  #          Department of theory and spectroscopy      #
                  #    Directorship and core code : Frank Neese         #
                  #        Max Planck Institute fuer Kohlenforschung    #
                  #                Kaiser Wilhelm Platz 1               #
                  #                 D-45470 Muelheim/Ruhr               #
                  #                      Germany                        #
                  #                                                     #
                  #                  All rights reserved                #
                  #                        -***-                        #
                  #######################################################


                         Program Version 5.0.3 -  RELEASE  -


 With contributions from (in alphabetic order):
   Daniel Aravena         : Magnetic Suceptibility
   Michael Atanasov       : Ab Initio Ligand Field Theory (pilot matlab implementation)
   Alexander A. Auer      : GIAO ZORA, VPT2 properties, NMR spectrum
   Ute Becker             : Parallelization
   Giovanni Bistoni       : ED, misc. LED, open-shell LED, HFLD
   Martin Brehm           : Molecular dynamics
   Dmytro Bykov           : SCF Hessian
   Vijay G. Chilkuri      : MRCI spin determinant printing, contributions to CSF-ICE
   Dipayan Datta          : RHF DLPNO-CCSD density
   Achintya Kumar Dutta   : EOM-CC, STEOM-CC
   Dmitry Ganyushin       : Spin-Orbit,Spin-Spin,Magnetic field MRCI
   Miquel Garcia          : C-PCM and meta-GGA Hessian, CC/C-PCM, Gaussian charge scheme
   Yang Guo               : DLPNO-NEVPT2, F12-NEVPT2, CIM, IAO-localization
   Andreas Hansen         : Spin unrestricted coupled pair/coupled cluster methods
   Benjamin Helmich-Paris : MC-RPA, TRAH-SCF, COSX integrals
   Lee Huntington         : MR-EOM, pCC
   Robert Izsak           : Overlap fitted RIJCOSX, COSX-SCS-MP3, EOM
   Marcus Kettner         : VPT2
   Christian Kollmar      : KDIIS, OOCD, Brueckner-CCSD(T), CCSD density, CASPT2, CASPT2-K
   Simone Kossmann        : Meta GGA functionals, TD-DFT gradient, OOMP2, MP2 Hessian
   Martin Krupicka        : Initial AUTO-CI
   Lucas Lang             : DCDCAS
   Marvin Lechner         : AUTO-CI (C++ implementation), FIC-MRCC
   Dagmar Lenk            : GEPOL surface, SMD
   Dimitrios Liakos       : Extrapolation schemes; Compound Job, initial MDCI parallelization
   Dimitrios Manganas     : Further ROCIS development; embedding schemes
   Dimitrios Pantazis     : SARC Basis sets
   Anastasios Papadopoulos: AUTO-CI, single reference methods and gradients
   Taras Petrenko         : DFT Hessian,TD-DFT gradient, ASA, ECA, R-Raman, ABS, FL, XAS/XES, NRVS
   Peter Pinski           : DLPNO-MP2, DLPNO-MP2 Gradient
   Christoph Reimann      : Effective Core Potentials
   Marius Retegan         : Local ZFS, SOC
   Christoph Riplinger    : Optimizer, TS searches, QM/MM, DLPNO-CCSD(T), (RO)-DLPNO pert. Triples
   Tobias Risthaus        : Range-separated hybrids, TD-DFT gradient, RPA, STAB
   Michael Roemelt        : Original ROCIS implementation
   Masaaki Saitow         : Open-shell DLPNO-CCSD energy and density
   Barbara Sandhoefer     : DKH picture change effects
   Avijit Sen             : IP-ROCIS
   Kantharuban Sivalingam : CASSCF convergence, NEVPT2, FIC-MRCI
   Bernardo de Souza      : ESD, SOC TD-DFT
   Georgi Stoychev        : AutoAux, RI-MP2 NMR, DLPNO-MP2 response
   Willem Van den Heuvel  : Paramagnetic NMR
   Boris Wezisla          : Elementary symmetry handling
   Frank Wennmohs         : Technical directorship


 We gratefully acknowledge several colleagues who have allowed us to
 interface, adapt or use parts of their codes:
   Stefan Grimme, W. Hujo, H. Kruse, P. Pracht,  : VdW corrections, initial TS optimization,
                  C. Bannwarth, S. Ehlert          DFT functionals, gCP, sTDA/sTD-DF
   Ed Valeev, F. Pavosevic, A. Kumar             : LibInt (2-el integral package), F12 methods
   Garnet Chan, S. Sharma, J. Yang, R. Olivares  : DMRG
   Ulf Ekstrom                                   : XCFun DFT Library
   Mihaly Kallay                                 : mrcc  (arbitrary order and MRCC methods)
   Jiri Pittner, Ondrej Demel                    : Mk-CCSD
   Frank Weinhold                                : gennbo (NPA and NBO analysis)
   Christopher J. Cramer and Donald G. Truhlar   : smd solvation model
   Lars Goerigk                                  : TD-DFT with DH, B97 family of functionals
   V. Asgeirsson, H. Jonsson                     : NEB implementation
   FAccTs GmbH                                   : IRC, NEB, NEB-TS, DLPNO-Multilevel, CI-OPT
                                                   MM, QMMM, 2- and 3-layer-ONIOM, Crystal-QMMM,
                                                   LR-CPCM, SF, NACMEs, symmetry and pop. for TD-DFT,
                                                   nearIR, NL-DFT gradient (VV10), updates on ESD,
                                                   ML-optimized integration grids
   S Lehtola, MJT Oliveira, MAL Marques          : LibXC Library
   Liviu Ungur et al                             : ANISO software


 Your calculation uses the libint2 library for the computation of 2-el integrals
 For citations please refer to: http://libint.valeyev.net

 Your ORCA version has been built with support for libXC version: 5.1.0
 For citations please refer to: https://tddft.org/programs/libxc/

 This ORCA versions uses:
   CBLAS   interface :  Fast vector & matrix operations
   LAPACKE interface :  Fast linear algebra routines
   SCALAPACK package :  Parallel linear algebra routines
   Shared memory     :  Shared parallel matrices
   BLAS/LAPACK       :  OpenBLAS 0.3.15  USE64BITINT DYNAMIC_ARCH NO_AFFINITY Haswell SINGLE_THREADED
        Core in use  :  Haswell
   Copyright (c) 2011-2014, The OpenBLAS Project




***************************************
The coordinates will be read from file: pbe.xyz
***************************************


================================================================================

cite the ECPs for Au [Def2-ECP] as follows:
Ce-Yb(ecp-28): M. Dolg, H. Stoll, H.Preuss, J. Chem. Phys., 1989, 90, 1730-1734.
Y-Cd(ecp-28), Hf-Hg(ecp-46): D. Andrae,U. Haeussermann, M. Dolg, H. Stoll, H. Preuss, Theor. Chim. Acta, 1990, 77, 123-141.
In-Sb(ecp-28), Tl-Bi(ecp-46): B. Metz, H. Stoll, M. Dolg, J. Chem. Phys., 2000, 113, 2563-2569.
Te-Xe(ecp-28), Po-Rn(ecp-46): K. A. Peterson, D. Figgen, E. Goll, H. Stoll, M. Dolg, J. Chem. Phys., 2003, 119, 11113-11123.
Rb(ecp-28), Cs(ecp-46): T. Leininger, A. Nicklass, W. Kuechle, H. Stoll, M. Dolg, A. Bergner, Chem. Phys. Lett., 1996, 255, 274-280.
Sr(ecp-28), Ba(ecp-46): M. Kaupp, P. V. Schleyer, H. Stoll and H. Preuss, J. Chem. Phys., 1991, 94, 1360-1366.
La(ecp-46): M. Dolg, H. Stoll, A. Savin, H. Preuss, Theor. Chim. Acta, 1989, 75, 173-194.
Lu(ecp-28): X. Cao, M. Dolg, J. Chem. Phys., 2001, 115, 7348-7355.

ECP parameters for Au [Def2-ECP] have been obtained from:
TURBOMOLE (7.0.2)

----- Orbital basis set information -----
Your calculation utilizes the basis: def2-TZVP
   F. Weigend and R. Ahlrichs, Phys. Chem. Chem. Phys. 7, 3297 (2005).

----- AuxJ basis set information -----
Your calculation utilizes the auxiliary basis: def2/J
   F. Weigend, Phys. Chem. Chem. Phys. 8, 1057 (2006).

================================================================================
                                        WARNINGS
                       Please study these warnings very carefully!
================================================================================

Using LibXC functional ID 497 : Re-regularized SCAN exchange by Furness et al
[ 1]  J. W. Furness, A. D. Kaplan, J. Ning, J. P. Perdew, and J. Sun, J. Phys. Chem. Lett. 11, 8208 (2020)
[ 2]  J. W. Furness, A. D. Kaplan, J. Ning, J. P. Perdew, and J. Sun, J. Phys. Chem. Lett. 11, 9248 (2020)
Using LibXC functional ID 498 : Re-regularized SCAN correlation by Furness et al
[ 1]  J. W. Furness, A. D. Kaplan, J. Ning, J. P. Perdew, and J. Sun, J. Phys. Chem. Lett. 11, 8208 (2020)
[ 2]  J. W. Furness, A. D. Kaplan, J. Ning, J. P. Perdew, and J. Sun, J. Phys. Chem. Lett. 11, 9248 (2020)
Using LibXC functional ID 497 : Re-regularized SCAN exchange by Furness et al
[ 1]  J. W. Furness, A. D. Kaplan, J. Ning, J. P. Perdew, and J. Sun, J. Phys. Chem. Lett. 11, 8208 (2020)
[ 2]  J. W. Furness, A. D. Kaplan, J. Ning, J. P. Perdew, and J. Sun, J. Phys. Chem. Lett. 11, 9248 (2020)
Using LibXC functional ID 498 : Re-regularized SCAN correlation by Furness et al
[ 1]  J. W. Furness, A. D. Kaplan, J. Ning, J. P. Perdew, and J. Sun, J. Phys. Chem. Lett. 11, 8208 (2020)
[ 2]  J. W. Furness, A. D. Kaplan, J. Ning, J. P. Perdew, and J. Sun, J. Phys. Chem. Lett. 11, 9248 (2020)

WARNING: your system is open-shell and RHF/RKS was chosen
  ===> : WILL SWITCH to UHF/UKS


INFO   : the flag for use of the SHARK integral package has been found!



***************************************
The coordinates will be read from file: pbe.xyz
***************************************


================================================================================

cite the ECPs for Au [Def2-ECP] as follows:
Ce-Yb(ecp-28): M. Dolg, H. Stoll, H.Preuss, J. Chem. Phys., 1989, 90, 1730-1734.
Y-Cd(ecp-28), Hf-Hg(ecp-46): D. Andrae,U. Haeussermann, M. Dolg, H. Stoll, H. Preuss, Theor. Chim. Acta, 1990, 77, 123-141.
In-Sb(ecp-28), Tl-Bi(ecp-46): B. Metz, H. Stoll, M. Dolg, J. Chem. Phys., 2000, 113, 2563-2569.
Te-Xe(ecp-28), Po-Rn(ecp-46): K. A. Peterson, D. Figgen, E. Goll, H. Stoll, M. Dolg, J. Chem. Phys., 2003, 119, 11113-11123.
Rb(ecp-28), Cs(ecp-46): T. Leininger, A. Nicklass, W. Kuechle, H. Stoll, M. Dolg, A. Bergner, Chem. Phys. Lett., 1996, 255, 274-280.
Sr(ecp-28), Ba(ecp-46): M. Kaupp, P. V. Schleyer, H. Stoll and H. Preuss, J. Chem. Phys., 1991, 94, 1360-1366.
La(ecp-46): M. Dolg, H. Stoll, A. Savin, H. Preuss, Theor. Chim. Acta, 1989, 75, 173-194.
Lu(ecp-28): X. Cao, M. Dolg, J. Chem. Phys., 2001, 115, 7348-7355.

ECP parameters for Au [Def2-ECP] have been obtained from:
TURBOMOLE (7.0.2)

----- Orbital basis set information -----
Your calculation utilizes the basis: def2-TZVP
   F. Weigend and R. Ahlrichs, Phys. Chem. Chem. Phys. 7, 3297 (2005).

----- AuxJ basis set information -----
Your calculation utilizes the auxiliary basis: def2/J
   F. Weigend, Phys. Chem. Chem. Phys. 8, 1057 (2006).

================================================================================
                                        WARNINGS
                       Please study these warnings very carefully!
================================================================================

Using LibXC functional ID 497 : Re-regularized SCAN exchange by Furness et al
[ 1]  J. W. Furness, A. D. Kaplan, J. Ning, J. P. Perdew, and J. Sun, J. Phys. Chem. Lett. 11, 8208 (2020)
[ 2]  J. W. Furness, A. D. Kaplan, J. Ning, J. P. Perdew, and J. Sun, J. Phys. Chem. Lett. 11, 9248 (2020)
Using LibXC functional ID 498 : Re-regularized SCAN correlation by Furness et al
[ 1]  J. W. Furness, A. D. Kaplan, J. Ning, J. P. Perdew, and J. Sun, J. Phys. Chem. Lett. 11, 8208 (2020)
[ 2]  J. W. Furness, A. D. Kaplan, J. Ning, J. P. Perdew, and J. Sun, J. Phys. Chem. Lett. 11, 9248 (2020)
Using LibXC functional ID 497 : Re-regularized SCAN exchange by Furness et al
[ 1]  J. W. Furness, A. D. Kaplan, J. Ning, J. P. Perdew, and J. Sun, J. Phys. Chem. Lett. 11, 8208 (2020)
[ 2]  J. W. Furness, A. D. Kaplan, J. Ning, J. P. Perdew, and J. Sun, J. Phys. Chem. Lett. 11, 9248 (2020)
Using LibXC functional ID 498 : Re-regularized SCAN correlation by Furness et al
[ 1]  J. W. Furness, A. D. Kaplan, J. Ning, J. P. Perdew, and J. Sun, J. Phys. Chem. Lett. 11, 8208 (2020)
[ 2]  J. W. Furness, A. D. Kaplan, J. Ning, J. P. Perdew, and J. Sun, J. Phys. Chem. Lett. 11, 9248 (2020)

INFO   : the flag for use of the SHARK integral package has been found!

================================================================================
                                       INPUT FILE
================================================================================
NAME = scan.inp
|  1> !R2SCAN def2-TZVP VERYSLOWCONV
|  2> !KDIIS
|  3> %scf
|  4>   AutoTRAHIter 200
|  5>   maxiter 400
|  6> end
|  7> 
|  8> %pal nprocs 6 end 
|  9> 
| 10> *xyzfile 0 5 pbe.xyz
| 11> 
| 12> $new_job
| 13> 
| 14> !R2SCAN def2-TZVP VERYSLOWCONV
| 15> !KDIIS
| 16> %scf
| 17>   AutoTRAHIter 200
| 18>   maxiter 400
| 19> end
| 20> 
| 21> 
| 22> %pal nprocs 6 end 
| 23> 
| 24> *xyzfile 0 3 pbe.xyz
| 25> 
| 26> 
| 27> 
| 28> 
| 29> 
| 30>                          ****END OF INPUT****
================================================================================


                 $$$$$$$$$$$$$$$$$$$$$$$$$$$$$$$$$$$$$$$$$$$$$$ 
                 $ THERE ARE  2 JOBS TO BE PROCESSED THIS RUN $
                 $$$$$$$$$$$$$$$$$$$$$$$$$$$$$$$$$$$$$$$$$$$$$$ 




                 $$$$$$$$$$$$$$$$  JOB NUMBER  1 $$$$$$$$$$$$$$


                       ****************************
                       * Single Point Calculation *
                       ****************************

---------------------------------
CARTESIAN COORDINATES (ANGSTROEM)
---------------------------------
  Au     6.936422    5.441489    8.102389
  Au     9.413759    5.408465    9.238192
  Au     5.545139    7.596150    7.093305
  Au     8.370745    9.699361   10.651653
  Au    10.241532    7.721885   10.542859
  Au     6.014834    9.321355    9.188003
  Au     7.381741    7.106148   10.260792
  Au    10.312030    9.661058    8.446402
  Au    11.335754    7.037710    8.085769
  Au     9.331356    5.982915    6.432396
  Au     7.971457   11.320400    8.484440
  Au     6.797917    5.802356    5.331829
  Au     7.958842    8.274251    5.040505
  Au     6.384650   10.145715    6.478642
  Au    10.665189    8.390565    5.824000
  Au     9.113613   10.622697    6.068825
  Cr     8.160016    8.148074    7.808882

----------------------------
CARTESIAN COORDINATES (A.U.)
----------------------------
  NO LB      ZA    FRAG     MASS         X           Y           Z
   0 Au   19.0000*   0   196.966   13.107937   10.282924   15.311296
   1 Au   19.0000*   0   196.966   17.789426   10.220518   17.457652
   2 Au   19.0000*   0   196.966   10.478795   14.354643   13.404404
   3 Au   19.0000*   0   196.966   15.818416   18.329137   20.128707
   4 Au   19.0000*   0   196.966   19.353690   14.592248   19.923116
   5 Au   19.0000*   0   196.966   11.366389   17.614808   17.362809
   6 Au   19.0000*   0   196.966   13.949468   13.428673   19.390087
   7 Au   19.0000*   0   196.966   19.486913   18.256754   15.961386
   8 Au   19.0000*   0   196.966   21.421471   13.299344   15.279889
   9 Au   19.0000*   0   196.966   17.633707   11.306071   12.155467
  10 Au   19.0000*   0   196.966   15.063870   21.392455   16.033268
  11 Au   19.0000*   0   196.966   12.846201   10.964864   10.075697
  12 Au   19.0000*   0   196.966   15.040032   15.636069    9.525174
  13 Au   19.0000*   0   196.966   12.065240   19.172622   12.242859
  14 Au   19.0000*   0   196.966   20.154287   15.855870   11.005766
  15 Au   19.0000*   0   196.966   17.222233   20.073987   11.468416
  16 Cr   24.0000    0    52.000   15.420195   15.397629   14.756648
* core charge reduced due to ECP

--------------------------------
INTERNAL COORDINATES (ANGSTROEM)
--------------------------------
 Au     0   0   0     0.000000000000     0.00000000     0.00000000
 Au     1   0   0     2.725497911253     0.00000000     0.00000000
 Au     1   2   0     2.756171510904   128.37981845     0.00000000
 Au     2   1   3     4.636543976748    84.91439234    30.84477236
 Au     4   2   1     2.724351586585    33.02957442   183.34477050
 Au     3   1   2     2.754034194942    97.18992077   314.18777513
 Au     1   2   3     2.761902236158    62.29461543   304.42261437
 Au     5   4   2     2.856658007381    63.48233718    92.89386920
 Au     2   1   3     2.770664425406   116.74839396   320.64095703
 Au     9   2   1     2.804255082076    61.84998999   329.51180641
 Au     4   2   1     2.735691512125   109.85903685   298.00366492
 Au    10   9   2     2.768061408647   155.94312166    77.61716401
 Au    12  10   9     2.746431156532    66.20850483    55.77978599
 Au     3   1   2     2.753700945790   130.66501671    13.80301039
 Au     9   2   1     2.719461667890   117.86648269   355.60795775
 Au    15   9   2     2.729421175653   118.19048168    77.28030189
 Cr     8   5   4     2.706790875417    76.92613980   285.42438947

---------------------------
INTERNAL COORDINATES (A.U.)
---------------------------
 Au     0   0   0     0.000000000000     0.00000000     0.00000000
 Au     1   0   0     5.150444630842     0.00000000     0.00000000
 Au     1   2   0     5.208409333725   128.37981845     0.00000000
 Au     2   1   3     8.761798323936    84.91439234    30.84477236
 Au     4   2   1     5.148278391160    33.02957442   183.34477050
 Au     3   1   2     5.204370391894    97.18992077   314.18777513
 Au     1   2   3     5.219238835004    62.29461543   304.42261437
 Au     5   4   2     5.398301292224    63.48233718    92.89386920
 Au     2   1   3     5.235796973016   116.74839396   320.64095703
 Au     9   2   1     5.299274114781    61.84998999   329.51180641
 Au     4   2   1     5.169707744809   109.85903685   298.00366492
 Au    10   9   2     5.230877984219   155.94312166    77.61716401
 Au    12  10   9     5.190002731514    66.20850483    55.77978599
 Au     3   1   2     5.203740642263   130.66501671    13.80301039
 Au     9   2   1     5.139037784009   117.86648269   355.60795775
 Au    15   9   2     5.157858526109   118.19048168    77.28030189
 Cr     8   5   4     5.115093456334    76.92613980   285.42438947

---------------------
BASIS SET INFORMATION
---------------------
There are 2 groups of distinct atoms

 Group   1 Type Au  : 8s7p6d1f contracted to 6s4p3d1f pattern {311111/4111/411/1}
 Group   2 Type Cr  : 17s11p7d1f contracted to 6s4p4d1f pattern {842111/6311/4111/1}

Atom   0Au   basis set group =>   1
Atom   1Au   basis set group =>   1
Atom   2Au   basis set group =>   1
Atom   3Au   basis set group =>   1
Atom   4Au   basis set group =>   1
Atom   5Au   basis set group =>   1
Atom   6Au   basis set group =>   1
Atom   7Au   basis set group =>   1
Atom   8Au   basis set group =>   1
Atom   9Au   basis set group =>   1
Atom  10Au   basis set group =>   1
Atom  11Au   basis set group =>   1
Atom  12Au   basis set group =>   1
Atom  13Au   basis set group =>   1
Atom  14Au   basis set group =>   1
Atom  15Au   basis set group =>   1
Atom  16Cr   basis set group =>   2
---------------------------------
AUXILIARY/J BASIS SET INFORMATION
---------------------------------
There are 2 groups of distinct atoms

 Group   1 Type Au  : 11s5p5d3f3g contracted to 8s5p5d2f3g pattern {41111111/11111/11111/21/111}
 Group   2 Type Cr  : 19s5p5d3f3g contracted to 8s5p5d2f3g pattern {121111111/11111/11111/21/111}

Atom   0Au   basis set group =>   1
Atom   1Au   basis set group =>   1
Atom   2Au   basis set group =>   1
Atom   3Au   basis set group =>   1
Atom   4Au   basis set group =>   1
Atom   5Au   basis set group =>   1
Atom   6Au   basis set group =>   1
Atom   7Au   basis set group =>   1
Atom   8Au   basis set group =>   1
Atom   9Au   basis set group =>   1
Atom  10Au   basis set group =>   1
Atom  11Au   basis set group =>   1
Atom  12Au   basis set group =>   1
Atom  13Au   basis set group =>   1
Atom  14Au   basis set group =>   1
Atom  15Au   basis set group =>   1
Atom  16Cr   basis set group =>   2
-------------------------
ECP PARAMETER INFORMATION
-------------------------

 Group 1, Type Au ECP Def2-ECP (replacing 60 core electrons, lmax=3)

Atom   0Au   ECP group =>   1
Atom   1Au   ECP group =>   1
Atom   2Au   ECP group =>   1
Atom   3Au   ECP group =>   1
Atom   4Au   ECP group =>   1
Atom   5Au   ECP group =>   1
Atom   6Au   ECP group =>   1
Atom   7Au   ECP group =>   1
Atom   8Au   ECP group =>   1
Atom   9Au   ECP group =>   1
Atom  10Au   ECP group =>   1
Atom  11Au   ECP group =>   1
Atom  12Au   ECP group =>   1
Atom  13Au   ECP group =>   1
Atom  14Au   ECP group =>   1
Atom  15Au   ECP group =>   1



           ************************************************************
           *        Program running with 6 parallel MPI-processes     *
           *              working on a common directory               *
           ************************************************************
------------------------------------------------------------------------------
                           ORCA GTO INTEGRAL CALCULATION
                           -- RI-GTO INTEGRALS CHOSEN --
------------------------------------------------------------------------------
------------------------------------------------------------------------------
                   ___                                                        
                  /   \      - P O W E R E D   B Y -                         
                 /     \                                                     
                 |  |  |   _    _      __       _____    __    __             
                 |  |  |  | |  | |    /  \     |  _  \  |  |  /  |          
                  \  \/   | |  | |   /    \    | | | |  |  | /  /          
                 / \  \   | |__| |  /  /\  \   | |_| |  |  |/  /          
                |  |  |   |  __  | /  /__\  \  |    /   |      \           
                |  |  |   | |  | | |   __   |  |    \   |  |\   \          
                \     /   | |  | | |  |  |  |  | |\  \  |  | \   \       
                 \___/    |_|  |_| |__|  |__|  |_| \__\ |__|  \__/        
                                                                              
                      - O R C A' S   B I G   F R I E N D -                    
                                      &                                       
                       - I N T E G R A L  F E E D E R -                       
                                                                              
 v1 FN, 2020, v2 2021                                                         
------------------------------------------------------------------------------


Reading SHARK input file scan.SHARKINP.tmp ... ok
----------------------
SHARK INTEGRAL PACKAGE
----------------------

Number of atoms                             ...     17
Number of basis functions                   ...    685
Number of shells                            ...    239
Maximum angular momentum                    ...      3
Integral batch strategy                     ... SHARK/LIBINT Hybrid
RI-J (if used) integral strategy            ... SPLIT-RIJ (Revised 2003 algorithm where possible)
Printlevel                                  ...      1
Contraction scheme used                     ... SEGMENTED contraction
Coulomb Range Separation                    ... NOT USED
Exchange Range Separation                   ... NOT USED
Finite Nucleus Model                        ... NOT USED
Auxiliary Coulomb fitting basis             ... AVAILABLE
   # of basis functions in Aux-J            ...   1513
   # of shells in Aux-J                     ...    391
   Maximum angular momentum in Aux-J        ...      4
Auxiliary J/K fitting basis                 ... NOT available
Auxiliary Correlation fitting basis         ... NOT available
Auxiliary 'external' fitting basis          ... NOT available
Integral threshold                          ...     1.000000e-10
Primitive cut-off                           ...     1.000000e-11
Primitive pair pre-selection threshold      ...     1.000000e-11

Calculating pre-screening integrals         ... done (  0.4 sec) Dimension = 239
Organizing shell pair data                  ... done (  1.1 sec)
Shell pair information
Total number of shell pairs                 ...     28680
Shell pairs after pre-screening             ...     22461
Total number of primitive shell pairs       ...     75765
Primitive shell pairs kept                  ...     42606
          la=0 lb=0:   3555 shell pairs
          la=1 lb=0:   5101 shell pairs
          la=1 lb=1:   1915 shell pairs
          la=2 lb=0:   4462 shell pairs
          la=2 lb=1:   3151 shell pairs
          la=2 lb=2:   1303 shell pairs
          la=3 lb=0:   1163 shell pairs
          la=3 lb=1:    900 shell pairs
          la=3 lb=2:    794 shell pairs
          la=3 lb=3:    117 shell pairs

Calculating one electron integrals          ... done (  0.3 sec)
Calculating ECP integrals                   ... done ( 31.6 sec)
Calculating RI/J V-Matrix + Cholesky decomp.... done (  2.6 sec)
Calculating Nuclear repulsion               ... done (  0.0 sec) ENN=   7023.565224969493 Eh

SHARK setup successfully completed in  37.7 seconds

Maximum memory used throughout the entire GTOINT-calculation: 41.3 MB


           ************************************************************
           *        Program running with 6 parallel MPI-processes     *
           *              working on a common directory               *
           ************************************************************
-------------------------------------------------------------------------------
                                 ORCA SCF
-------------------------------------------------------------------------------

------------
SCF SETTINGS
------------
Hamiltonian:
 Density Functional     Method          .... DFT(GTOs)
  Functional kind                       .... Exchange
  Functional name                       .... Re-regularized SCAN exchange by Furness et al
  Functional family                     .... MGGA
  Functional refs                              
    [ 0] J. W. Furness, A. D. Kaplan, J. Ning, J. P. Perdew, and J. Sun, J. Phys. Chem. Lett. 11, 8208 (2020)
    [ 1] J. W. Furness, A. D. Kaplan, J. Ning, J. P. Perdew, and J. Sun, J. Phys. Chem. Lett. 11, 9248 (2020)
  Functional external parameters         .... 8
 Parameter  0 :         c1 parameter
 Parameter  1 :         c2 parameter
 Parameter  2 :          d parameter
 Parameter  3 :         k1 parameter
 Parameter  4 :       taur parameter
 Parameter  5 :     alphar parameter
 Parameter  6 :        eta parameter
 Parameter  7 :        dp2 parameter
  Functional kind                       .... Correlation
  Functional name                       .... Re-regularized SCAN correlation by Furness et al
  Functional family                     .... MGGA
  Functional refs                              
    [ 0] J. W. Furness, A. D. Kaplan, J. Ning, J. P. Perdew, and J. Sun, J. Phys. Chem. Lett. 11, 8208 (2020)
    [ 1] J. W. Furness, A. D. Kaplan, J. Ning, J. P. Perdew, and J. Sun, J. Phys. Chem. Lett. 11, 9248 (2020)
  Functional external parameters         .... 0
 Gradients option       PostSCFGGA      .... off
   Density functional embedding theory  .... OFF
   NL short-range parameter             .... 12.300000
 RI-approximation to the Coulomb term is turned on
   Number of AuxJ basis functions       .... 1513


General Settings:
 Integral files         IntName         .... scan
 Hartree-Fock type      HFTyp           .... UHF
 Total Charge           Charge          ....    0
 Multiplicity           Mult            ....    5
 Number of Electrons    NEL             ....  328
 Basis Dimension        Dim             ....  685
 Nuclear Repulsion      ENuc            ....   7023.5652249695 Eh

Convergence Acceleration:
 DIIS                   CNVDIIS         .... off
 Trust-Rad. Augm. Hess. CNVTRAH         .... auto
   Auto Start mean grad. ratio tolernc. ....  1.125000
   Auto Start start iteration           ....   200
   Auto Start num. interpolation iter.  ....    10
   Max. Number of Micro iterations      ....    16
   Max. Number of Macro iterations      .... Maxiter - #DIIS iter
   Number of Davidson start vectors     ....     2
   Converg. threshold I  (grad. norm)   ....   5.000e-05
   Converg. threshold II (energy diff.) ....   1.000e-06
   Grad. Scal. Fac. for Micro threshold ....   0.100
   Minimum threshold for Micro iter.    ....   0.010
   NR start threshold (gradient norm)   ....   0.001
   Initial trust radius                 ....   0.400
   Minimum AH scaling param. (alpha)    ....   1.000
   Maximum AH scaling param. (alpha)    .... 1000.000
   Orbital update algorithm             .... Taylor
   White noise on init. David. guess    .... on
   Maximum white noise                  ....   0.010
   Quad. conv. algorithm                .... NR
 SOSCF                  CNVSOSCF        .... off
 Level Shifting         CNVShift        .... off
 Zerner damping         CNVZerner       .... off
 Static damping         CNVDamp         .... off
 Fernandez-Rico         CNVRico         .... off

SCF Procedure:
 Maximum # iterations   MaxIter         ....   400
 SCF integral mode      SCFMode         .... Direct
   Integral package                     .... SHARK and LIBINT hybrid scheme
 Reset frequency        DirectResetFreq ....    20
 Integral Threshold     Thresh          ....  1.000e-10 Eh
 Primitive CutOff       TCut            ....  1.000e-11 Eh

Convergence Tolerance:
 Convergence Check Mode ConvCheckMode   .... All-Criteria
 Convergence forced     ConvForced      .... 0
 Energy Change          TolE            ....  1.000e-06 Eh
 Max Density Change     TolMaxP         ....  1.000e-05
 RMS Density Change     TolRMSP         ....  1.000e-06


Diagonalization of the overlap matrix:
Smallest eigenvalue                        ... 1.357e-04
Time for diagonalization                   ...    0.160 sec
Threshold for overlap eigenvalues          ... 1.000e-08
Number of eigenvalues below threshold      ... 0
Time for construction of square roots      ...    0.365 sec
Total time needed                          ...    0.741 sec

Time for model grid setup =    2.531 sec

------------------------------
INITIAL GUESS: MODEL POTENTIAL
------------------------------
Loading Hartree-Fock densities                     ... done
  calling /media/Programs/ORCA501/orca scan_atom79.inp > scan_atom79.out in order to generate an atomic fitting density for atom 0 (Au with ECP) on-the-fly... 
    atom 0 (Au), assumed electronic state with S=2: 1s2 2s2 2p6 3s2 3p6 4s2 3d10 4p6 5s2 4d10 5p6 6s1 4f14 5d10           ... done
Calculating cut-offs                               ... done
Initializing the effective Hamiltonian             ... done
Setting up the integral package (SHARK)            ... done
Starting the Coulomb interaction                   ... done (   2.9 sec)
Reading the grid                                   ... done
Mapping shells                                     ... done
Starting the XC term evaluation                    ... done (   1.7 sec)
  promolecular density results
     # of electrons  =   1288.015500796
     EX              =  -5900.435199890
     EC              =    -78.571485402
     EX+EC           =  -5979.006685291
Transforming the Hamiltonian                       ... done (   0.4 sec)
Diagonalizing the Hamiltonian                      ... done (   0.5 sec)
Back transforming the eigenvectors                 ... done (   0.1 sec)
Now organizing SCF variables                       ... done
                      ------------------
                      INITIAL GUESS DONE (  10.1 sec)
                      ------------------
-------------------
DFT GRID GENERATION
-------------------

General Integration Accuracy     IntAcc      ... 4.388
Radial Grid Type                 RadialGrid  ... OptM3 with GC (2021)
Angular Grid (max. ang.)         AngularGrid ... 4 (Lebedev-302)
Angular grid pruning method      GridPruning ... 4 (adaptive)
Weight generation scheme         WeightScheme... Becke
Basis function cutoff            BFCut       ... 1.0000e-10
Integration weight cutoff        WCut        ... 1.0000e-14
Angular grids for H and He will be reduced by one unit
Partially contracted basis set               ... off
Rotationally invariant grid construction     ... off

Total number of grid points                  ...   186671
Total number of batches                      ...     2925
Average number of points per batch           ...       63
Average number of grid points per atom       ...    10981
Time for grid setup =    6.765 sec

--------------
SCF ITERATIONS
--------------
ITER       Energy         Delta-E        Max-DP      RMS-DP      [F,P]   Gradient Norm
               ***  Starting incremental Fock matrix formation  ***
                             ****Resetting KDIIS****
                             ****Turning on KDIIS(Cayley)****
  0  -3216.0296377653   0.000000000000 0.15869893  0.00121865  0.3705542   0.213694253
  1  -3217.0031231759  -0.973485410692 0.68242652  0.00216087  0.3318740   0.171737520
  2  -3217.5403802719  -0.537257095928 0.20741764  0.00126964  0.2627198   0.130263946
  3  -3217.8730822207  -0.332701948789 0.49059812  0.00201650  0.1540030   0.075835442
  4  -3217.9879772207  -0.114895000079 0.20534346  0.00063301  0.0324124   0.021508174
  5  -3218.0327746299  -0.044797409124 0.22305596  0.00051771  0.0220150   0.005998214
  6  -3218.0485891303  -0.015814500400 0.11671869  0.00055062  0.0202572   0.004363223
  7  -3218.0564246908  -0.007835560556 0.05593642  0.00039878  0.0105264   0.006004093
  8  -3218.0544188870   0.002005803776 0.06886598  0.00028082  0.0159022   0.007773791
  9  -3218.0625175732  -0.008098686166 0.04682628  0.00009778  0.0034877   0.002063562
 10  -3218.0627218119  -0.000204238652 0.01835083  0.00005283  0.0024040   0.001786880
 11  -3218.0632019456  -0.000480133748 0.01531485  0.00003825  0.0013573   0.000610810
 12  -3218.0632401036  -0.000038158008 0.00828172  0.00002479  0.0010252   0.000720166
 13  -3218.0633252590  -0.000085155391 0.00723173  0.00001892  0.0007834   0.000320612
 14  -3218.0633574454  -0.000032186389 0.00443108  0.00001727  0.0007441   0.000337294
 15  -3218.0633814459  -0.000024000515 0.00764406  0.00001780  0.0015082   0.000401748
 16  -3218.0634119292  -0.000030483230 0.00059269  0.00000934  0.0004498   0.000280741
                          ***Energy convergence achieved***
 17  -3218.0634123121  -0.000000382901 0.00305647  0.00001537  0.0004020   0.000192988
 18  -3218.0634372304  -0.000024918394 0.00196456  0.00000724  0.0004199   0.000193714
 19  -3218.0634386991  -0.000001468647 0.00091986  0.00000683  0.0004053   0.000139000
               *** Restarting incremental Fock matrix formation ***
                             ****Resetting KDIIS****
 20  -3218.0634470617  -0.000008362652 0.00018754  0.00000115  0.0004129   0.000111302
 21  -3218.0634481023  -0.000001040539 0.00077985  0.00000143  0.0003450   0.000073024
 22  -3218.0634496529  -0.000001550637 0.00134071  0.00000266  0.0003416   0.000061520
 23  -3218.0634515133  -0.000001860362 0.00091939  0.00000924  0.0002610   0.000047218
 24  -3218.0634627033  -0.000011189988 0.00115632  0.00000560  0.0001593   0.000068734
 25  -3218.0634678322  -0.000005128893 0.00270607  0.00000430  0.0001288   0.000024755
 26  -3218.0634665674   0.000001264714 0.00046630  0.00000229  0.0001337   0.000043054
 27  -3218.0634683582  -0.000001790752 0.00035553  0.00000120  0.0001174   0.000010141
                          ***Energy convergence achieved***
 28  -3218.0634689128  -0.000000554614 0.00052833  0.00000177  0.0001107   0.000014853
 29  -3218.0634693571  -0.000000444281 0.00064653  0.00000260  0.0000931   0.000011697
 30  -3218.0634701487  -0.000000791627 0.00060003  0.00000177  0.0000678   0.000011055
 31  -3218.0634703420  -0.000000193309 0.00069841  0.00000181  0.0000546   0.000011724
 32  -3218.0634704647  -0.000000122644 0.00032372  0.00000154  0.0000523   0.000008850
 33  -3218.0634703652   0.000000099444 0.00036462  0.00000192  0.0000449   0.000010280
                           ***RMSP convergence achieved***
 34  -3218.0634704865  -0.000000121292 0.00021326  0.00000079  0.0000308   0.000005558
 35  -3218.0634704066   0.000000079903 0.00026861  0.00000068  0.0000422   0.000006274
 36  -3218.0634706334  -0.000000226787 0.00019265  0.00000073  0.0000181   0.000008112
 37  -3218.0634705204   0.000000112960 0.00042540  0.00000096  0.0000230   0.000003882
 38  -3218.0634706989  -0.000000178477 0.00028491  0.00000056  0.0000141   0.000006563
 39  -3218.0634705893   0.000000109596 0.00092780  0.00000201  0.0000129   0.000003978
               *** Restarting incremental Fock matrix formation ***
                             ****Resetting KDIIS****
                           ***RMSP convergence achieved***

            ***Energy convergence in two consecutive cycles with***
                    ***'reasonable' density convergence***
                       *** signaling convergence ***

                    *** KDIIS BlockDiag ( 5.344 sec) ***

               *****************************************************
               *                     SUCCESS                       *
               *           SCF CONVERGED AFTER  40 CYCLES          *
               *****************************************************


----------------
TOTAL SCF ENERGY
----------------

Total Energy       :        -3218.06347115 Eh          -87567.95892 eV

Components:
Nuclear Repulsion  :         7023.56522497 Eh          191120.92617 eV
Electronic Energy  :       -10241.62869612 Eh         -278688.88509 eV
One Electron Energy:       -19292.48029851 Eh         -524975.07814 eV
Two Electron Energy:         9050.85160239 Eh          246286.19305 eV

Virial components:
Potential Energy   :        -4994.87592261 Eh         -135917.48377 eV
Kinetic Energy     :         1776.81245146 Eh           48349.52485 eV
Virial Ratio       :            2.81114415


DFT components:
N(Alpha)           :      166.000008409496 electrons
N(Beta)            :      162.000008410953 electrons
N(Total)           :      328.000016820449 electrons
E(X)               :     -242.032394052101 Eh       
E(C)               :      -13.593683301196 Eh       
E(XC)              :     -255.626077353296 Eh       
DFET-embed. en.    :        0.000000000000 Eh       

---------------
SCF CONVERGENCE
---------------

  Last Energy change         ...   -5.6448e-07  Tolerance :   1.0000e-06
  Last MAX-Density change    ...    8.1960e-05  Tolerance :   1.0000e-05
  Last RMS-Density change    ...    2.0411e-07  Tolerance :   1.0000e-06

             **** THE GBW FILE WAS UPDATED (scan.gbw) ****
             **** DENSITY scan.scfp WAS UPDATED ****
             **** ENERGY FILE WAS UPDATED (scan.en.tmp) ****
----------------------
UHF SPIN CONTAMINATION
----------------------

Warning: in a DFT calculation there is little theoretical justification to 
         calculate <S**2> as in Hartree-Fock theory. We will do it anyways
         but you should keep in mind that the values have only limited relevance

Expectation value of <S**2>     :     6.152190
Ideal value S*(S+1) for S=2.0   :     6.000000
Deviation                       :     0.152190

             **** THE GBW FILE WAS UPDATED (scan.gbw) ****
             **** DENSITY scan.scfp WAS UPDATED ****
----------------
ORBITAL ENERGIES
----------------
                 SPIN UP ORBITALS
  NO   OCC          E(Eh)            E(eV) 
   0   1.0000    -215.282486     -5858.1343 
   1   1.0000     -24.578696      -668.8203 
   2   1.0000     -20.849115      -567.3333 
   3   1.0000     -20.843904      -567.1915 
   4   1.0000     -20.840078      -567.0874 
   5   1.0000      -4.134987      -112.5187 
   6   1.0000      -4.127193      -112.3066 
   7   1.0000      -4.126626      -112.2912 
   8   1.0000      -4.126509      -112.2880 
   9   1.0000      -4.123628      -112.2096 
  10   1.0000      -4.123139      -112.1963 
  11   1.0000      -4.121733      -112.1581 
  12   1.0000      -4.121153      -112.1423 
  13   1.0000      -4.119493      -112.0971 
  14   1.0000      -4.119294      -112.0917 
  15   1.0000      -4.118496      -112.0700 
  16   1.0000      -4.117756      -112.0498 
  17   1.0000      -4.117300      -112.0374 
  18   1.0000      -4.115797      -111.9965 
  19   1.0000      -4.114951      -111.9735 
  20   1.0000      -4.113733      -111.9404 
  21   1.0000      -2.907251       -79.1103 
  22   1.0000      -2.322378       -63.1951 
  23   1.0000      -2.320303       -63.1387 
  24   1.0000      -2.318750       -63.0964 
  25   1.0000      -2.316130       -63.0251 
  26   1.0000      -2.314884       -62.9912 
  27   1.0000      -2.314547       -62.9820 
  28   1.0000      -2.313718       -62.9595 
  29   1.0000      -2.312446       -62.9249 
  30   1.0000      -2.312317       -62.9214 
  31   1.0000      -2.311435       -62.8974 
  32   1.0000      -2.311184       -62.8905 
  33   1.0000      -2.310958       -62.8844 
  34   1.0000      -2.310684       -62.8769 
  35   1.0000      -2.310541       -62.8730 
  36   1.0000      -2.309754       -62.8516 
  37   1.0000      -2.309561       -62.8464 
  38   1.0000      -2.308940       -62.8294 
  39   1.0000      -2.308759       -62.8245 
  40   1.0000      -2.308592       -62.8200 
  41   1.0000      -2.307787       -62.7981 
  42   1.0000      -2.307520       -62.7908 
  43   1.0000      -2.306884       -62.7735 
  44   1.0000      -2.306701       -62.7685 
  45   1.0000      -2.305957       -62.7483 
  46   1.0000      -2.305639       -62.7396 
  47   1.0000      -2.305615       -62.7390 
  48   1.0000      -2.305288       -62.7301 
  49   1.0000      -2.304814       -62.7172 
  50   1.0000      -2.304424       -62.7066 
  51   1.0000      -2.304340       -62.7043 
  52   1.0000      -2.303657       -62.6857 
  53   1.0000      -2.303464       -62.6805 
  54   1.0000      -2.303386       -62.6783 
  55   1.0000      -2.303002       -62.6679 
  56   1.0000      -2.302677       -62.6590 
  57   1.0000      -2.302471       -62.6534 
  58   1.0000      -2.302392       -62.6513 
  59   1.0000      -2.302074       -62.6426 
  60   1.0000      -2.302010       -62.6409 
  61   1.0000      -2.301467       -62.6261 
  62   1.0000      -2.301331       -62.6224 
  63   1.0000      -2.301195       -62.6187 
  64   1.0000      -2.300366       -62.5961 
  65   1.0000      -2.299901       -62.5835 
  66   1.0000      -2.299069       -62.5609 
  67   1.0000      -2.298584       -62.5477 
  68   1.0000      -2.297982       -62.5313 
  69   1.0000      -2.296255       -62.4843 
  70   1.0000      -1.856712       -50.5237 
  71   1.0000      -1.855901       -50.5016 
  72   1.0000      -1.852792       -50.4170 
  73   1.0000      -0.437322       -11.9001 
  74   1.0000      -0.397968       -10.8293 
  75   1.0000      -0.396989       -10.8026 
  76   1.0000      -0.395951       -10.7744 
  77   1.0000      -0.383448       -10.4342 
  78   1.0000      -0.382141       -10.3986 
  79   1.0000      -0.381439       -10.3795 
  80   1.0000      -0.378913       -10.3107 
  81   1.0000      -0.377262       -10.2658 
  82   1.0000      -0.376655       -10.2493 
  83   1.0000      -0.372035       -10.1236 
  84   1.0000      -0.371052       -10.0968 
  85   1.0000      -0.369715       -10.0605 
  86   1.0000      -0.368935       -10.0392 
  87   1.0000      -0.366585        -9.9753 
  88   1.0000      -0.364003        -9.9050 
  89   1.0000      -0.363023        -9.8784 
  90   1.0000      -0.360427        -9.8077 
  91   1.0000      -0.359886        -9.7930 
  92   1.0000      -0.359057        -9.7704 
  93   1.0000      -0.358700        -9.7607 
  94   1.0000      -0.355893        -9.6843 
  95   1.0000      -0.354647        -9.6504 
  96   1.0000      -0.353756        -9.6262 
  97   1.0000      -0.352375        -9.5886 
  98   1.0000      -0.351101        -9.5539 
  99   1.0000      -0.349277        -9.5043 
 100   1.0000      -0.344017        -9.3612 
 101   1.0000      -0.341010        -9.2793 
 102   1.0000      -0.339969        -9.2510 
 103   1.0000      -0.338203        -9.2030 
 104   1.0000      -0.337475        -9.1832 
 105   1.0000      -0.334292        -9.0966 
 106   1.0000      -0.333249        -9.0682 
 107   1.0000      -0.328427        -8.9370 
 108   1.0000      -0.326784        -8.8922 
 109   1.0000      -0.323499        -8.8029 
 110   1.0000      -0.322333        -8.7711 
 111   1.0000      -0.317201        -8.6315 
 112   1.0000      -0.315689        -8.5903 
 113   1.0000      -0.314765        -8.5652 
 114   1.0000      -0.307990        -8.3808 
 115   1.0000      -0.306327        -8.3356 
 116   1.0000      -0.303810        -8.2671 
 117   1.0000      -0.302896        -8.2422 
 118   1.0000      -0.300658        -8.1813 
 119   1.0000      -0.299518        -8.1503 
 120   1.0000      -0.293828        -7.9955 
 121   1.0000      -0.291398        -7.9293 
 122   1.0000      -0.290787        -7.9127 
 123   1.0000      -0.288826        -7.8594 
 124   1.0000      -0.288274        -7.8443 
 125   1.0000      -0.286497        -7.7960 
 126   1.0000      -0.284459        -7.7405 
 127   1.0000      -0.284046        -7.7293 
 128   1.0000      -0.282768        -7.6945 
 129   1.0000      -0.280611        -7.6358 
 130   1.0000      -0.280074        -7.6212 
 131   1.0000      -0.278616        -7.5815 
 132   1.0000      -0.277669        -7.5557 
 133   1.0000      -0.276741        -7.5305 
 134   1.0000      -0.276330        -7.5193 
 135   1.0000      -0.274460        -7.4684 
 136   1.0000      -0.274004        -7.4560 
 137   1.0000      -0.272012        -7.4018 
 138   1.0000      -0.270432        -7.3588 
 139   1.0000      -0.269957        -7.3459 
 140   1.0000      -0.268588        -7.3087 
 141   1.0000      -0.267606        -7.2819 
 142   1.0000      -0.265971        -7.2374 
 143   1.0000      -0.262525        -7.1437 
 144   1.0000      -0.261234        -7.1085 
 145   1.0000      -0.260782        -7.0962 
 146   1.0000      -0.259130        -7.0513 
 147   1.0000      -0.258341        -7.0298 
 148   1.0000      -0.256387        -6.9766 
 149   1.0000      -0.255390        -6.9495 
 150   1.0000      -0.254836        -6.9344 
 151   1.0000      -0.253619        -6.9013 
 152   1.0000      -0.253157        -6.8887 
 153   1.0000      -0.252315        -6.8659 
 154   1.0000      -0.252005        -6.8574 
 155   1.0000      -0.245250        -6.6736 
 156   1.0000      -0.242105        -6.5880 
 157   1.0000      -0.240591        -6.5468 
 158   1.0000      -0.236589        -6.4379 
 159   1.0000      -0.232640        -6.3305 
 160   1.0000      -0.228155        -6.2084 
 161   1.0000      -0.221836        -6.0365 
 162   1.0000      -0.213170        -5.8006 
 163   1.0000      -0.206063        -5.6072 
 164   1.0000      -0.199852        -5.4383 
 165   1.0000      -0.191633        -5.2146 
 166   0.0000      -0.175040        -4.7631 
 167   0.0000      -0.152226        -4.1423 
 168   0.0000      -0.136886        -3.7249 
 169   0.0000      -0.133768        -3.6400 
 170   0.0000      -0.129300        -3.5184 
 171   0.0000      -0.125213        -3.4072 
 172   0.0000      -0.119411        -3.2493 
 173   0.0000      -0.117107        -3.1866 
 174   0.0000      -0.107218        -2.9175 
 175   0.0000      -0.072340        -1.9685 
 176   0.0000      -0.071618        -1.9488 
 177   0.0000      -0.069347        -1.8870 
 178   0.0000      -0.035450        -0.9647 
 179   0.0000      -0.031855        -0.8668 
 180   0.0000      -0.027428        -0.7464 
 181   0.0000      -0.022037        -0.5996 
 182   0.0000      -0.014493        -0.3944 
 183   0.0000      -0.009906        -0.2696 
 184   0.0000      -0.004544        -0.1236 
 185   0.0000      -0.001423        -0.0387 
 186   0.0000       0.000841         0.0229 
 187   0.0000       0.009431         0.2566 
 188   0.0000       0.015016         0.4086 
 189   0.0000       0.022181         0.6036 
 190   0.0000       0.029602         0.8055 
 191   0.0000       0.035686         0.9711 
 192   0.0000       0.042177         1.1477 
 193   0.0000       0.061125         1.6633 
 194   0.0000       0.068577         1.8661 
 195   0.0000       0.071077         1.9341 
 196   0.0000       0.073476         1.9994 
 197   0.0000       0.074914         2.0385 
 198   0.0000       0.077415         2.1066 
 199   0.0000       0.078637         2.1398 
 200   0.0000       0.080240         2.1834 
 201   0.0000       0.082907         2.2560 
 202   0.0000       0.084339         2.2950 
 203   0.0000       0.084734         2.3057 
 204   0.0000       0.085715         2.3324 
 205   0.0000       0.091115         2.4794 
 206   0.0000       0.091649         2.4939 
 207   0.0000       0.093999         2.5578 
 208   0.0000       0.101431         2.7601 
 209   0.0000       0.102952         2.8015 
 210   0.0000       0.110190         2.9984 
 211   0.0000       0.118511         3.2249 
 212   0.0000       0.121757         3.3132 
 213   0.0000       0.129543         3.5250 
 214   0.0000       0.136761         3.7215 
 215   0.0000       0.141887         3.8610 
 216   0.0000       0.145361         3.9555 
 217   0.0000       0.147444         4.0121 
 218   0.0000       0.148388         4.0378 
 219   0.0000       0.153733         4.1833 
 220   0.0000       0.160343         4.3631 
 221   0.0000       0.164176         4.4675 
 222   0.0000       0.166277         4.5246 
 223   0.0000       0.168750         4.5919 
 224   0.0000       0.171213         4.6589 
 225   0.0000       0.172860         4.7037 
 226   0.0000       0.173949         4.7334 
 227   0.0000       0.177417         4.8278 
 228   0.0000       0.179584         4.8867 
 229   0.0000       0.181103         4.9281 
 230   0.0000       0.192539         5.2392 
 231   0.0000       0.200211         5.4480 
 232   0.0000       0.202692         5.5155 
 233   0.0000       0.217689         5.9236 
 234   0.0000       0.222434         6.0527 
 235   0.0000       0.224907         6.1200 
 236   0.0000       0.225790         6.1440 
 237   0.0000       0.232617         6.3298 
 238   0.0000       0.234390         6.3781 
 239   0.0000       0.242190         6.5903 
 240   0.0000       0.245418         6.6782 
 241   0.0000       0.247818         6.7435 
 242   0.0000       0.251688         6.8488 
 243   0.0000       0.254952         6.9376 
 244   0.0000       0.256433         6.9779 
 245   0.0000       0.263924         7.1817 
 246   0.0000       0.266948         7.2640 
 247   0.0000       0.267518         7.2795 
 248   0.0000       0.275507         7.4969 
 249   0.0000       0.278706         7.5840 
 250   0.0000       0.280589         7.6352 
 251   0.0000       0.284905         7.7527 
 252   0.0000       0.285976         7.7818 
 253   0.0000       0.290944         7.9170 
 254   0.0000       0.294379         8.0105 
 255   0.0000       0.304553         8.2873 
 256   0.0000       0.310196         8.4409 
 257   0.0000       0.318576         8.6689 
 258   0.0000       0.319709         8.6997 
 259   0.0000       0.321889         8.7590 
 260   0.0000       0.329451         8.9648 
 261   0.0000       0.331071         9.0089 
 262   0.0000       0.338585         9.2134 
 263   0.0000       0.340761         9.2726 
 264   0.0000       0.346900         9.4396 
 265   0.0000       0.348319         9.4783 
 266   0.0000       0.350988         9.5509 
 267   0.0000       0.352317         9.5870 
 268   0.0000       0.354144         9.6367 
 269   0.0000       0.358286         9.7495 
 270   0.0000       0.359725         9.7886 
 271   0.0000       0.365786         9.9536 
 272   0.0000       0.382398        10.4056 
 273   0.0000       0.385899        10.5008 
 274   0.0000       0.393160        10.6984 
 275   0.0000       0.395803        10.7704 
 276   0.0000       0.400029        10.8853 
 277   0.0000       0.407665        11.0931 
 278   0.0000       0.411428        11.1955 
 279   0.0000       0.415157        11.2970 
 280   0.0000       0.416136        11.3236 
 281   0.0000       0.418955        11.4004 
 282   0.0000       0.422952        11.5091 
 283   0.0000       0.424813        11.5597 
 284   0.0000       0.428428        11.6581 
 285   0.0000       0.429205        11.6793 
 286   0.0000       0.431417        11.7394 
 287   0.0000       0.439805        11.9677 
 288   0.0000       0.440956        11.9990 
 289   0.0000       0.446825        12.1587 
 290   0.0000       0.454407        12.3650 
 291   0.0000       0.456025        12.4091 
 292   0.0000       0.464266        12.6333 
 293   0.0000       0.468337        12.7441 
 294   0.0000       0.473030        12.8718 
 295   0.0000       0.477323        12.9886 
 296   0.0000       0.482849        13.1390 
 297   0.0000       0.484983        13.1971 
 298   0.0000       0.488950        13.3050 
 299   0.0000       0.491644        13.3783 
 300   0.0000       0.493769        13.4361 
 301   0.0000       0.502702        13.6792 
 302   0.0000       0.504902        13.7391 
 303   0.0000       0.512280        13.9398 
 304   0.0000       0.515880        14.0378 
 305   0.0000       0.517755        14.0888 
 306   0.0000       0.519929        14.1480 
 307   0.0000       0.521171        14.1818 
 308   0.0000       0.529155        14.3990 
 309   0.0000       0.532608        14.4930 
 310   0.0000       0.535884        14.5821 
 311   0.0000       0.541773        14.7424 
 312   0.0000       0.543801        14.7976 
 313   0.0000       0.553935        15.0733 
 314   0.0000       0.555432        15.1141 
 315   0.0000       0.560410        15.2495 
 316   0.0000       0.565437        15.3863 
 317   0.0000       0.568561        15.4713 
 318   0.0000       0.574947        15.6451 
 319   0.0000       0.577473        15.7138 
 320   0.0000       0.580251        15.7894 
 321   0.0000       0.584428        15.9031 
 322   0.0000       0.587966        15.9994 
 323   0.0000       0.590626        16.0717 
 324   0.0000       0.602123        16.3846 
 325   0.0000       0.610730        16.6188 
 326   0.0000       0.613522        16.6948 
 327   0.0000       0.620250        16.8779 
 328   0.0000       0.630740        17.1633 
 329   0.0000       0.633802        17.2466 
 330   0.0000       0.638773        17.3819 
 331   0.0000       0.642618        17.4865 
 332   0.0000       0.650242        17.6940 
 333   0.0000       0.714592        19.4450 
 334   0.0000       0.723679        19.6923 
 335   0.0000       0.731243        19.8981 
 336   0.0000       0.733907        19.9706 
 337   0.0000       0.740843        20.1593 
 338   0.0000       0.753537        20.5048 
 339   0.0000       0.763376        20.7725 
 340   0.0000       0.777980        21.1699 
 341   0.0000       0.780217        21.2308 
 342   0.0000       0.788063        21.4443 
 343   0.0000       0.792354        21.5611 
 344   0.0000       0.797444        21.6996 
 345   0.0000       0.813550        22.1378 
 346   0.0000       0.819577        22.3018 
 347   0.0000       0.825174        22.4541 
 348   0.0000       0.827107        22.5067 
 349   0.0000       0.834408        22.7054 
 350   0.0000       0.844955        22.9924 
 351   0.0000       0.848994        23.1023 
 352   0.0000       0.857700        23.3392 
 353   0.0000       0.864959        23.5367 
 354   0.0000       0.866749        23.5854 
 355   0.0000       0.890092        24.2206 
 356   0.0000       0.894575        24.3426 
 357   0.0000       0.901971        24.5439 
 358   0.0000       0.908663        24.7260 
 359   0.0000       0.916470        24.9384 
 360   0.0000       0.926039        25.1988 
 361   0.0000       0.937795        25.5187 
 362   0.0000       0.939744        25.5717 
 363   0.0000       0.943339        25.6696 
 364   0.0000       0.947710        25.7885 
 365   0.0000       0.963069        26.2064 
 366   0.0000       0.966906        26.3109 
 367   0.0000       0.973551        26.4917 
 368   0.0000       0.975956        26.5571 
 369   0.0000       0.987757        26.8782 
 370   0.0000       0.993246        27.0276 
 371   0.0000       0.998135        27.1606 
 372   0.0000       1.000860        27.2348 
 373   0.0000       1.047368        28.5003 
 374   0.0000       1.080588        29.4043 
 375   0.0000       1.114570        30.3290 
 376   0.0000       1.201318        32.6895 
 377   0.0000       1.210648        32.9434 
 378   0.0000       1.232388        33.5350 
 379   0.0000       1.250073        34.0162 
 380   0.0000       1.262200        34.3462 
 381   0.0000       1.272211        34.6186 
 382   0.0000       1.288754        35.0688 
 383   0.0000       1.297186        35.2982 
 384   0.0000       1.304695        35.5026 
 385   0.0000       1.308814        35.6146 
 386   0.0000       1.319626        35.9089 
 387   0.0000       1.328649        36.1544 
 388   0.0000       1.334691        36.3188 
 389   0.0000       1.341925        36.5156 
 390   0.0000       1.343114        36.5480 
 391   0.0000       1.351027        36.7633 
 392   0.0000       1.351089        36.7650 
 393   0.0000       1.361141        37.0385 
 394   0.0000       1.363369        37.0992 
 395   0.0000       1.370368        37.2896 
 396   0.0000       1.375475        37.4286 
 397   0.0000       1.377976        37.4966 
 398   0.0000       1.383632        37.6505 
 399   0.0000       1.387573        37.7578 
 400   0.0000       1.391030        37.8518 
 401   0.0000       1.405113        38.2351 
 402   0.0000       1.405676        38.2504 
 403   0.0000       1.410065        38.3698 
 404   0.0000       1.416182        38.5363 
 405   0.0000       1.420041        38.6413 
 406   0.0000       1.426831        38.8260 
 407   0.0000       1.431991        38.9664 
 408   0.0000       1.445960        39.3466 
 409   0.0000       1.451219        39.4897 
 410   0.0000       1.459107        39.7043 
 411   0.0000       1.460378        39.7389 
 412   0.0000       1.465122        39.8680 
 413   0.0000       1.467133        39.9227 
 414   0.0000       1.471022        40.0285 
 415   0.0000       1.474022        40.1102 
 416   0.0000       1.474194        40.1149 
 417   0.0000       1.476444        40.1761 
 418   0.0000       1.479169        40.2502 
 419   0.0000       1.483277        40.3620 
 420   0.0000       1.489970        40.5442 
 421   0.0000       1.491909        40.5969 
 422   0.0000       1.495684        40.6996 
 423   0.0000       1.497309        40.7438 
 424   0.0000       1.499049        40.7912 
 425   0.0000       1.500785        40.8384 
 426   0.0000       1.502845        40.8945 
 427   0.0000       1.505060        40.9548 
 428   0.0000       1.513052        41.1722 
 429   0.0000       1.513325        41.1797 
 430   0.0000       1.519092        41.3366 
 431   0.0000       1.520552        41.3763 
 432   0.0000       1.521774        41.4096 
 433   0.0000       1.525346        41.5068 
 434   0.0000       1.527482        41.5649 
 435   0.0000       1.532312        41.6963 
 436   0.0000       1.534428        41.7539 
 437   0.0000       1.537375        41.8341 
 438   0.0000       1.538338        41.8603 
 439   0.0000       1.541218        41.9387 
 440   0.0000       1.543806        42.0091 
 441   0.0000       1.546572        42.0844 
 442   0.0000       1.547892        42.1203 
 443   0.0000       1.548830        42.1458 
 444   0.0000       1.549503        42.1641 
 445   0.0000       1.551490        42.2182 
 446   0.0000       1.553956        42.2853 
 447   0.0000       1.555815        42.3359 
 448   0.0000       1.557101        42.3709 
 449   0.0000       1.558041        42.3964 
 450   0.0000       1.560054        42.4512 
 451   0.0000       1.560303        42.4580 
 452   0.0000       1.561191        42.4822 
 453   0.0000       1.562300        42.5123 
 454   0.0000       1.563429        42.5431 
 455   0.0000       1.565649        42.6035 
 456   0.0000       1.566902        42.6376 
 457   0.0000       1.567953        42.6662 
 458   0.0000       1.569623        42.7116 
 459   0.0000       1.571264        42.7563 
 460   0.0000       1.572732        42.7962 
 461   0.0000       1.573975        42.8300 
 462   0.0000       1.574853        42.8539 
 463   0.0000       1.577986        42.9392 
 464   0.0000       1.578854        42.9628 
 465   0.0000       1.581231        43.0275 
 466   0.0000       1.581812        43.0433 
 467   0.0000       1.584101        43.1056 
 468   0.0000       1.585343        43.1394 
 469   0.0000       1.586898        43.1817 
 470   0.0000       1.587933        43.2099 
 471   0.0000       1.588961        43.2378 
 472   0.0000       1.590107        43.2690 
 473   0.0000       1.592792        43.3421 
 474   0.0000       1.593928        43.3730 
 475   0.0000       1.595731        43.4221 
 476   0.0000       1.596254        43.4363 
 477   0.0000       1.600684        43.5568 
 478   0.0000       1.603730        43.6397 
 479   0.0000       1.606737        43.7215 
 480   0.0000       1.608863        43.7794 
 481   0.0000       1.610067        43.8122 
 482   0.0000       1.614806        43.9411 
 483   0.0000       1.619027        44.0560 
 484   0.0000       1.619575        44.0709 
 485   0.0000       1.620725        44.1022 
 486   0.0000       1.623131        44.1676 
 487   0.0000       1.625105        44.2214 
 488   0.0000       1.625910        44.2433 
 489   0.0000       1.628035        44.3011 
 490   0.0000       1.630297        44.3626 
 491   0.0000       1.631718        44.4013 
 492   0.0000       1.633818        44.4585 
 493   0.0000       1.636517        44.5319 
 494   0.0000       1.637265        44.5523 
 495   0.0000       1.639568        44.6149 
 496   0.0000       1.641621        44.6708 
 497   0.0000       1.642034        44.6820 
 498   0.0000       1.645367        44.7727 
 499   0.0000       1.646158        44.7942 
 500   0.0000       1.648332        44.8534 
 501   0.0000       1.650941        44.9244 
 502   0.0000       1.654098        45.0103 
 503   0.0000       1.658615        45.1332 
 504   0.0000       1.661643        45.2156 
 505   0.0000       1.662541        45.2400 
 506   0.0000       1.665079        45.3091 
 507   0.0000       1.666884        45.3582 
 508   0.0000       1.670936        45.4685 
 509   0.0000       1.671232        45.4765 
 510   0.0000       1.672852        45.5206 
 511   0.0000       1.675701        45.5981 
 512   0.0000       1.680307        45.7235 
 513   0.0000       1.682325        45.7784 
 514   0.0000       1.684926        45.8492 
 515   0.0000       1.685716        45.8707 
 516   0.0000       1.689395        45.9708 
 517   0.0000       1.694870        46.1197 
 518   0.0000       1.696373        46.1607 
 519   0.0000       1.698824        46.2273 
 520   0.0000       1.701047        46.2879 
 521   0.0000       1.706176        46.4274 
 522   0.0000       1.711094        46.5612 
 523   0.0000       1.713168        46.6177 
 524   0.0000       1.716763        46.7155 
 525   0.0000       1.721835        46.8535 
 526   0.0000       1.728960        47.0474 
 527   0.0000       1.732522        47.1443 
 528   0.0000       1.737035        47.2671 
 529   0.0000       1.742702        47.4213 
 530   0.0000       1.747347        47.5477 
 531   0.0000       1.753634        47.7188 
 532   0.0000       1.761129        47.9228 
 533   0.0000       1.767300        48.0907 
 534   0.0000       1.769474        48.1498 
 535   0.0000       1.775891        48.3244 
 536   0.0000       1.786779        48.6207 
 537   0.0000       1.789654        48.6990 
 538   0.0000       1.798299        48.9342 
 539   0.0000       1.800170        48.9851 
 540   0.0000       1.814320        49.3702 
 541   0.0000       1.825894        49.6851 
 542   0.0000       1.828133        49.7460 
 543   0.0000       1.833019        49.8790 
 544   0.0000       1.833877        49.9023 
 545   0.0000       1.835540        49.9476 
 546   0.0000       1.843220        50.1566 
 547   0.0000       1.852386        50.4060 
 548   0.0000       1.854834        50.4726 
 549   0.0000       1.857652        50.5493 
 550   0.0000       1.863203        50.7003 
 551   0.0000       1.868264        50.8380 
 552   0.0000       1.875403        51.0323 
 553   0.0000       1.881605        51.2011 
 554   0.0000       1.887128        51.3514 
 555   0.0000       1.890404        51.4405 
 556   0.0000       1.901654        51.7466 
 557   0.0000       1.910920        51.9988 
 558   0.0000       1.912472        52.0410 
 559   0.0000       1.922328        52.3092 
 560   0.0000       1.922896        52.3247 
 561   0.0000       1.931522        52.5594 
 562   0.0000       1.939423        52.7744 
 563   0.0000       1.945551        52.9411 
 564   0.0000       1.956493        53.2389 
 565   0.0000       1.964220        53.4491 
 566   0.0000       1.968414        53.5633 
 567   0.0000       1.980830        53.9011 
 568   0.0000       2.017972        54.9118 
 569   0.0000       2.066529        56.2331 
 570   0.0000       2.084996        56.7356 
 571   0.0000       2.112253        57.4773 
 572   0.0000       2.149512        58.4912 
 573   0.0000       2.167799        58.9888 
 574   0.0000       2.223757        60.5115 
 575   0.0000       2.237328        60.8808 
 576   0.0000       2.329192        63.3805 
 577   0.0000       2.384539        64.8866 
 578   0.0000       2.412846        65.6569 
 579   0.0000       2.438517        66.3554 
 580   0.0000       2.482814        67.5608 
 581   0.0000       2.499567        68.0167 
 582   0.0000       2.526550        68.7509 
 583   0.0000       2.541330        69.1531 
 584   0.0000       2.553910        69.4954 
 585   0.0000       2.566518        69.8385 
 586   0.0000       2.572190        69.9928 
 587   0.0000       2.586468        70.3814 
 588   0.0000       2.593101        70.5619 
 589   0.0000       2.607912        70.9649 
 590   0.0000       2.623670        71.3937 
 591   0.0000       2.624783        71.4240 
 592   0.0000       2.642709        71.9118 
 593   0.0000       2.651519        72.1515 
 594   0.0000       2.656885        72.2975 
 595   0.0000       2.713219        73.8304 
 596   0.0000       2.753310        74.9214 
 597   0.0000       2.928970        79.7013 
 598   0.0000       2.936317        79.9012 
 599   0.0000       2.942564        80.0712 
 600   0.0000       2.953380        80.3656 
 601   0.0000       2.960648        80.5633 
 602   0.0000       2.964337        80.6637 
 603   0.0000       2.974493        80.9401 
 604   0.0000       3.110324        84.6362 
 605   0.0000      24.508733       666.9165 
 606   0.0000      24.607990       669.6174 
 607   0.0000      24.755692       673.6366 
 608   0.0000      24.840120       675.9340 
 609   0.0000      24.886868       677.2061 
 610   0.0000      25.046981       681.5630 
 611   0.0000      25.138102       684.0425 
 612   0.0000      25.267766       687.5709 
 613   0.0000      25.409575       691.4297 
 614   0.0000      25.493740       693.7199 
 615   0.0000      25.654074       698.0828 
 616   0.0000      25.730919       700.1739 
 617   0.0000      25.836340       703.0426 
 618   0.0000      25.857015       703.6051 
 619   0.0000      25.931840       705.6412 
 620   0.0000      25.984695       707.0795 
 621   0.0000      26.045045       708.7217 
 622   0.0000      26.068432       709.3581 
 623   0.0000      26.171973       712.1756 
 624   0.0000      26.230685       713.7732 
 625   0.0000      26.267674       714.7798 
 626   0.0000      26.378969       717.8082 
 627   0.0000      26.426097       719.0906 
 628   0.0000      26.510091       721.3762 
 629   0.0000      26.710096       726.8187 
 630   0.0000      26.884151       731.5550 
 631   0.0000      26.937991       733.0200 
 632   0.0000      26.985228       734.3054 
 633   0.0000      26.986407       734.3375 
 634   0.0000      27.119622       737.9624 
 635   0.0000      27.203010       740.2315 
 636   0.0000      27.382219       745.1080 
 637   0.0000      27.408591       745.8257 
 638   0.0000      27.461352       747.2614 
 639   0.0000      27.655944       752.5565 
 640   0.0000      27.745318       754.9885 
 641   0.0000      28.010278       762.1984 
 642   0.0000      28.103553       764.7365 
 643   0.0000      28.216230       767.8027 
 644   0.0000      28.420820       773.3698 
 645   0.0000      28.504961       775.6594 
 646   0.0000      28.623382       778.8818 
 647   0.0000      28.903340       786.4999 
 648   0.0000      29.833787       811.8186 
 649   0.0000      30.443317       828.4048 
 650   0.0000      30.995032       843.4177 
 651   0.0000      31.421088       855.0113 
 652   0.0000      31.856036       866.8468 
 653   0.0000      44.411227      1208.4909 
 654   0.0000      44.529961      1211.7218 
 655   0.0000      44.550196      1212.2725 
 656   0.0000      44.575036      1212.9484 
 657   0.0000      44.633644      1214.5432 
 658   0.0000      44.638075      1214.6638 
 659   0.0000      44.650213      1214.9941 
 660   0.0000      44.656343      1215.1609 
 661   0.0000      44.658591      1215.2220 
 662   0.0000      44.662982      1215.3415 
 663   0.0000      44.669223      1215.5114 
 664   0.0000      44.677756      1215.7436 
 665   0.0000      44.699934      1216.3470 
 666   0.0000      44.709612      1216.6104 
 667   0.0000      44.728625      1217.1278 
 668   0.0000      44.745895      1217.5977 
 669   0.0000     205.257941      5585.3525 
 670   0.0000     205.306831      5586.6829 
 671   0.0000     205.314398      5586.8888 
 672   0.0000     205.322856      5587.1190 
 673   0.0000     205.350357      5587.8673 
 674   0.0000     205.356522      5588.0351 
 675   0.0000     205.359053      5588.1039 
 676   0.0000     205.360879      5588.1536 
 677   0.0000     205.363089      5588.2137 
 678   0.0000     205.365856      5588.2890 
 679   0.0000     205.367073      5588.3222 
 680   0.0000     205.370994      5588.4289 
 681   0.0000     205.378533      5588.6340 
 682   0.0000     205.380129      5588.6774 
 683   0.0000     205.383532      5588.7700 
 684   0.0000     205.395705      5589.1013 

                 SPIN DOWN ORBITALS
  NO   OCC          E(Eh)            E(eV) 
   0   1.0000    -215.281964     -5858.1201 
   1   1.0000     -24.511979      -667.0049 
   2   1.0000     -20.802741      -566.0714 
   3   1.0000     -20.792536      -565.7937 
   4   1.0000     -20.783967      -565.5605 
   5   1.0000      -4.135072      -112.5210 
   6   1.0000      -4.127294      -112.3094 
   7   1.0000      -4.126205      -112.2797 
   8   1.0000      -4.126138      -112.2779 
   9   1.0000      -4.123227      -112.1987 
  10   1.0000      -4.122717      -112.1848 
  11   1.0000      -4.121470      -112.1509 
  12   1.0000      -4.121023      -112.1387 
  13   1.0000      -4.119429      -112.0954 
  14   1.0000      -4.119223      -112.0898 
  15   1.0000      -4.118182      -112.0614 
  16   1.0000      -4.117690      -112.0480 
  17   1.0000      -4.117320      -112.0380 
  18   1.0000      -4.115713      -111.9942 
  19   1.0000      -4.114792      -111.9692 
  20   1.0000      -4.113638      -111.9378 
  21   1.0000      -2.734712       -74.4153 
  22   1.0000      -2.322663       -63.2029 
  23   1.0000      -2.320277       -63.1380 
  24   1.0000      -2.318585       -63.0919 
  25   1.0000      -2.316100       -63.0243 
  26   1.0000      -2.314453       -62.9795 
  27   1.0000      -2.314099       -62.9698 
  28   1.0000      -2.313877       -62.9638 
  29   1.0000      -2.312063       -62.9144 
  30   1.0000      -2.311898       -62.9099 
  31   1.0000      -2.310962       -62.8845 
  32   1.0000      -2.310631       -62.8755 
  33   1.0000      -2.310616       -62.8751 
  34   1.0000      -2.310474       -62.8712 
  35   1.0000      -2.310204       -62.8638 
  36   1.0000      -2.309536       -62.8457 
  37   1.0000      -2.309375       -62.8413 
  38   1.0000      -2.308725       -62.8236 
  39   1.0000      -2.308507       -62.8177 
  40   1.0000      -2.308145       -62.8078 
  41   1.0000      -2.307412       -62.7879 
  42   1.0000      -2.307141       -62.7805 
  43   1.0000      -2.306724       -62.7692 
  44   1.0000      -2.306370       -62.7595 
  45   1.0000      -2.305720       -62.7418 
  46   1.0000      -2.305440       -62.7342 
  47   1.0000      -2.305286       -62.7300 
  48   1.0000      -2.305185       -62.7273 
  49   1.0000      -2.304696       -62.7140 
  50   1.0000      -2.304287       -62.7028 
  51   1.0000      -2.304086       -62.6974 
  52   1.0000      -2.303483       -62.6810 
  53   1.0000      -2.303445       -62.6799 
  54   1.0000      -2.303223       -62.6739 
  55   1.0000      -2.302869       -62.6643 
  56   1.0000      -2.302463       -62.6532 
  57   1.0000      -2.302300       -62.6488 
  58   1.0000      -2.302211       -62.6463 
  59   1.0000      -2.302025       -62.6413 
  60   1.0000      -2.302001       -62.6406 
  61   1.0000      -2.301407       -62.6245 
  62   1.0000      -2.301202       -62.6189 
  63   1.0000      -2.301107       -62.6163 
  64   1.0000      -2.300306       -62.5945 
  65   1.0000      -2.299793       -62.5806 
  66   1.0000      -2.298999       -62.5590 
  67   1.0000      -2.298500       -62.5454 
  68   1.0000      -2.297721       -62.5242 
  69   1.0000      -2.296123       -62.4807 
  70   1.0000      -1.703338       -46.3502 
  71   1.0000      -1.681254       -45.7493 
  72   1.0000      -1.662170       -45.2299 
  73   1.0000      -0.431509       -11.7420 
  74   1.0000      -0.396883       -10.7997 
  75   1.0000      -0.395894       -10.7728 
  76   1.0000      -0.394728       -10.7411 
  77   1.0000      -0.379546       -10.3280 
  78   1.0000      -0.379070       -10.3150 
  79   1.0000      -0.378904       -10.3105 
  80   1.0000      -0.377085       -10.2610 
  81   1.0000      -0.375057       -10.2058 
  82   1.0000      -0.374853       -10.2003 
  83   1.0000      -0.371219       -10.1014 
  84   1.0000      -0.370867       -10.0918 
  85   1.0000      -0.368424       -10.0253 
  86   1.0000      -0.367551       -10.0016 
  87   1.0000      -0.366131        -9.9629 
  88   1.0000      -0.363059        -9.8793 
  89   1.0000      -0.361783        -9.8446 
  90   1.0000      -0.359728        -9.7887 
  91   1.0000      -0.359424        -9.7804 
  92   1.0000      -0.358664        -9.7597 
  93   1.0000      -0.358132        -9.7453 
  94   1.0000      -0.355318        -9.6687 
  95   1.0000      -0.354322        -9.6416 
  96   1.0000      -0.353190        -9.6108 
  97   1.0000      -0.352009        -9.5787 
  98   1.0000      -0.350917        -9.5489 
  99   1.0000      -0.349145        -9.5007 
 100   1.0000      -0.343528        -9.3479 
 101   1.0000      -0.340302        -9.2601 
 102   1.0000      -0.339225        -9.2308 
 103   1.0000      -0.337828        -9.1928 
 104   1.0000      -0.335762        -9.1365 
 105   1.0000      -0.333079        -9.0635 
 106   1.0000      -0.329747        -8.9729 
 107   1.0000      -0.327737        -8.9182 
 108   1.0000      -0.325431        -8.8554 
 109   1.0000      -0.322816        -8.7843 
 110   1.0000      -0.321397        -8.7456 
 111   1.0000      -0.316234        -8.6052 
 112   1.0000      -0.314676        -8.5628 
 113   1.0000      -0.311375        -8.4730 
 114   1.0000      -0.306176        -8.3315 
 115   1.0000      -0.305486        -8.3127 
 116   1.0000      -0.302988        -8.2447 
 117   1.0000      -0.302228        -8.2240 
 118   1.0000      -0.299406        -8.1473 
 119   1.0000      -0.298426        -8.1206 
 120   1.0000      -0.293850        -7.9961 
 121   1.0000      -0.291503        -7.9322 
 122   1.0000      -0.290712        -7.9107 
 123   1.0000      -0.288083        -7.8391 
 124   1.0000      -0.287913        -7.8345 
 125   1.0000      -0.285917        -7.7802 
 126   1.0000      -0.283891        -7.7251 
 127   1.0000      -0.283439        -7.7128 
 128   1.0000      -0.282281        -7.6812 
 129   1.0000      -0.280089        -7.6216 
 130   1.0000      -0.279702        -7.6111 
 131   1.0000      -0.278300        -7.5729 
 132   1.0000      -0.276815        -7.5325 
 133   1.0000      -0.276266        -7.5176 
 134   1.0000      -0.276024        -7.5110 
 135   1.0000      -0.274166        -7.4604 
 136   1.0000      -0.273637        -7.4460 
 137   1.0000      -0.271397        -7.3851 
 138   1.0000      -0.269789        -7.3413 
 139   1.0000      -0.269674        -7.3382 
 140   1.0000      -0.268014        -7.2930 
 141   1.0000      -0.267264        -7.2726 
 142   1.0000      -0.265508        -7.2248 
 143   1.0000      -0.262058        -7.1310 
 144   1.0000      -0.260800        -7.0967 
 145   1.0000      -0.260332        -7.0840 
 146   1.0000      -0.258789        -7.0420 
 147   1.0000      -0.257987        -7.0202 
 148   1.0000      -0.256162        -6.9705 
 149   1.0000      -0.254872        -6.9354 
 150   1.0000      -0.254324        -6.9205 
 151   1.0000      -0.253248        -6.8912 
 152   1.0000      -0.252795        -6.8789 
 153   1.0000      -0.251874        -6.8539 
 154   1.0000      -0.251717        -6.8496 
 155   1.0000      -0.244913        -6.6644 
 156   1.0000      -0.239999        -6.5307 
 157   1.0000      -0.229656        -6.2493 
 158   1.0000      -0.222638        -6.0583 
 159   1.0000      -0.218096        -5.9347 
 160   1.0000      -0.217251        -5.9117 
 161   1.0000      -0.212405        -5.7798 
 162   0.0000      -0.148426        -4.0389 
[...]
      f-1     :     0.000630
      f+2     :     0.001070
      f-2     :     0.000947
      f+3     :     0.001114
      f-3     :     0.000719
 10 Aus       :     2.537510  s :     2.537510
      pz      :     2.193031  p :     6.468278
      px      :     2.165884
      py      :     2.109363
      dz2     :     1.966074  d :     9.916766
      dxz     :     1.977473
      dyz     :     1.996619
      dx2y2   :     1.972748
      dxy     :     2.003851
      f0      :     0.000771  f :     0.005737
      f+1     :     0.000982
      f-1     :     0.001110
      f+2     :     0.000641
      f-2     :     0.000994
      f+3     :     0.000573
      f-3     :     0.000666
 11 Aus       :     2.670893  s :     2.670893
      pz      :     2.115596  p :     6.366033
      px      :     2.134972
      py      :     2.115464
      dz2     :     1.978342  d :     9.879155
      dxz     :     1.979413
      dyz     :     1.977127
      dx2y2   :     1.969757
      dxy     :     1.974515
      f0      :     0.000984  f :     0.005041
      f+1     :     0.000637
      f-1     :     0.000698
      f+2     :     0.000678
      f-2     :     0.000584
      f+3     :     0.000867
      f-3     :     0.000592
 12 Aus       :     2.495145  s :     2.495145
      pz      :     2.089163  p :     6.517029
      px      :     2.198655
      py      :     2.229210
      dz2     :     1.928727  d :     9.900955
      dxz     :     2.000022
      dyz     :     1.996240
      dx2y2   :     1.987817
      dxy     :     1.988149
      f0      :     0.000855  f :     0.006140
      f+1     :     0.000614
      f-1     :     0.000757
      f+2     :     0.000773
      f-2     :     0.000967
      f+3     :     0.001401
      f-3     :     0.000774
 13 Aus       :     2.515563  s :     2.515563
      pz      :     2.156235  p :     6.474709
      px      :     2.153027
      py      :     2.165448
      dz2     :     1.982595  d :     9.903233
      dxz     :     1.978581
      dyz     :     1.978369
      dx2y2   :     1.996573
      dxy     :     1.967114
      f0      :     0.000842  f :     0.005842
      f+1     :     0.000795
      f-1     :     0.000810
      f+2     :     0.000698
      f-2     :     0.000847
      f+3     :     0.001009
      f-3     :     0.000841
 14 Aus       :     2.544199  s :     2.544199
      pz      :     2.134127  p :     6.456073
      px      :     2.142884
      py      :     2.179063
      dz2     :     1.989353  d :     9.900499
      dxz     :     1.970146
      dyz     :     1.982112
      dx2y2   :     1.972761
      dxy     :     1.986127
      f0      :     0.000831  f :     0.006125
      f+1     :     0.000694
      f-1     :     0.001195
      f+2     :     0.000680
      f-2     :     0.000747
      f+3     :     0.001223
      f-3     :     0.000753
 15 Aus       :     2.529425  s :     2.529425
      pz      :     2.154875  p :     6.495248
      px      :     2.186790
      py      :     2.153583
      dz2     :     1.993349  d :     9.898002
      dxz     :     1.975102
      dyz     :     1.966625
      dx2y2   :     1.979241
      dxy     :     1.983686
      f0      :     0.000855  f :     0.006302
      f+1     :     0.001121
      f-1     :     0.000886
      f+2     :     0.000654
      f-2     :     0.000806
      f+3     :     0.001189
      f-3     :     0.000792
 16 Crs       :     6.240668  s :     6.240668
      pz      :     4.153982  p :    12.454308
      px      :     4.162910
      py      :     4.137415
      dz2     :     1.180249  d :     6.557743
      dxz     :     1.425067
      dyz     :     1.311878
      dx2y2   :     1.425908
      dxy     :     1.214641
      f0      :     0.000253  f :     0.001310
      f+1     :     0.000165
      f-1     :     0.000169
      f+2     :     0.000139
      f-2     :     0.000200
      f+3     :     0.000189
      f-3     :     0.000194

SPIN
  0 Aus       :    -0.013714  s :    -0.013714
      pz      :    -0.010530  p :    -0.046885
      px      :    -0.038877
      py      :     0.002521
      dz2     :    -0.004933  d :    -0.001911
      dxz     :    -0.005308
      dyz     :     0.002869
      dx2y2   :     0.003282
      dxy     :     0.002178
      f0      :     0.000002  f :     0.000136
      f+1     :     0.000004
      f-1     :     0.000044
      f+2     :     0.000006
      f-2     :    -0.000009
      f+3     :     0.000090
      f-3     :    -0.000000
  1 Aus       :    -0.003850  s :    -0.003850
      pz      :    -0.028270  p :    -0.049049
      px      :    -0.021504
      py      :     0.000725
      dz2     :    -0.002652  d :    -0.009545
      dxz     :    -0.000218
      dyz     :    -0.005266
      dx2y2   :     0.001348
      dxy     :    -0.002756
      f0      :     0.000004  f :     0.000028
      f+1     :    -0.000003
      f-1     :    -0.000005
      f+2     :     0.000006
      f-2     :     0.000009
      f+3     :     0.000011
      f-3     :     0.000005
  2 Aus       :    -0.038747  s :    -0.038747
      pz      :    -0.002052  p :    -0.042937
      px      :    -0.008326
      py      :    -0.032559
      dz2     :    -0.000718  d :    -0.010606
      dxz     :     0.004400
      dyz     :    -0.008345
      dx2y2   :    -0.007325
      dxy     :     0.001382
      f0      :     0.000034  f :     0.000372
      f+1     :     0.000080
      f-1     :     0.000002
      f+2     :     0.000057
      f-2     :     0.000009
      f+3     :     0.000102
      f-3     :     0.000087
  3 Aus       :    -0.002249  s :    -0.002249
      pz      :    -0.009300  p :    -0.049541
      px      :    -0.028230
      py      :    -0.012011
      dz2     :    -0.002810  d :    -0.007600
      dxz     :    -0.006542
      dyz     :     0.000276
      dx2y2   :     0.000067
      dxy     :     0.001409
      f0      :     0.000003  f :     0.000018
      f+1     :    -0.000004
      f-1     :     0.000039
      f+2     :     0.000004
      f-2     :    -0.000009
      f+3     :    -0.000004
      f-3     :    -0.000009
  4 Aus       :    -0.023240  s :    -0.023240
      pz      :    -0.011104  p :    -0.050446
      px      :    -0.013901
      py      :    -0.025441
      dz2     :    -0.004757  d :    -0.019037
      dxz     :    -0.004038
      dyz     :    -0.008495
      dx2y2   :    -0.001987
      dxy     :     0.000241
      f0      :     0.000001  f :    -0.000061
      f+1     :     0.000010
      f-1     :    -0.000014
      f+2     :    -0.000029
      f-2     :    -0.000016
      f+3     :     0.000001
      f-3     :    -0.000015
  5 Aus       :    -0.029041  s :    -0.029041
      pz      :    -0.016754  p :    -0.038420
      px      :     0.000313
      py      :    -0.021979
      dz2     :     0.001632  d :     0.000144
      dxz     :     0.000980
      dyz     :    -0.000670
      dx2y2   :     0.000948
      dxy     :    -0.002745
      f0      :     0.000036  f :     0.000297
      f+1     :     0.000022
      f-1     :     0.000001
      f+2     :     0.000043
      f-2     :     0.000102
      f+3     :     0.000031
      f-3     :     0.000060
  6 Aus       :    -0.033328  s :    -0.033328
      pz      :    -0.017394  p :    -0.021557
      px      :    -0.002492
      py      :    -0.001670
      dz2     :    -0.001913  d :    -0.008052
      dxz     :    -0.003378
      dyz     :    -0.000189
      dx2y2   :    -0.000589
      dxy     :    -0.001983
      f0      :     0.000121  f :     0.000370
      f+1     :     0.000080
      f-1     :     0.000122
      f+2     :     0.000035
      f-2     :     0.000042
      f+3     :    -0.000011
      f-3     :    -0.000020
  7 Aus       :    -0.078685  s :    -0.078685
      pz      :    -0.005373  p :    -0.013503
      px      :    -0.009694
      py      :     0.001564
      dz2     :    -0.006323  d :    -0.021029
      dxz     :     0.004986
      dyz     :    -0.006349
      dx2y2   :     0.005701
      dxy     :    -0.019044
      f0      :     0.000038  f :     0.000553
      f+1     :     0.000067
      f-1     :     0.000047
      f+2     :     0.000030
      f-2     :     0.000091
      f+3     :     0.000155
      f-3     :     0.000124
  8 Aus       :    -0.078180  s :    -0.078180
      pz      :    -0.005574  p :    -0.059061
      px      :    -0.028135
      py      :    -0.025352
      dz2     :    -0.005228  d :    -0.028764
      dxz     :    -0.005545
      dyz     :    -0.008108
      dx2y2   :    -0.002842
      dxy     :    -0.007041
      f0      :    -0.000000  f :    -0.000096
      f+1     :     0.000010
      f-1     :    -0.000027
      f+2     :    -0.000031
      f-2     :    -0.000043
      f+3     :     0.000003
      f-3     :    -0.000008
  9 Aus       :    -0.062930  s :    -0.062930
      pz      :    -0.004312  p :    -0.014087
      px      :    -0.006224
      py      :    -0.003551
      dz2     :     0.000076  d :    -0.027567
      dxz     :    -0.011593
      dyz     :    -0.002319
      dx2y2   :    -0.008863
      dxy     :    -0.004868
      f0      :     0.000030  f :     0.000340
      f+1     :     0.000006
      f-1     :     0.000052
      f+2     :     0.000068
      f-2     :     0.000088
      f+3     :     0.000043
      f-3     :     0.000052
 10 Aus       :    -0.050933  s :    -0.050933
      pz      :    -0.003459  p :    -0.040473
      px      :    -0.023274
      py      :    -0.013740
      dz2     :    -0.003831  d :    -0.020236
      dxz     :    -0.005696
      dyz     :    -0.001826
      dx2y2   :     0.000208
      dxy     :    -0.009090
      f0      :    -0.000000  f :    -0.000029
      f+1     :    -0.000037
      f-1     :     0.000007
      f+2     :     0.000003
      f-2     :    -0.000010
      f+3     :    -0.000006
      f-3     :     0.000014
 11 Aus       :    -0.121161  s :    -0.121161
      pz      :    -0.013371  p :    -0.081265
      px      :    -0.048735
      py      :    -0.019158
      dz2     :    -0.008873  d :    -0.028637
      dxz     :    -0.010888
      dyz     :    -0.001220
      dx2y2   :    -0.002310
      dxy     :    -0.005347
      f0      :    -0.000004  f :    -0.000048
      f+1     :     0.000001
      f-1     :    -0.000009
      f+2     :    -0.000030
      f-2     :    -0.000003
      f+3     :     0.000009
      f-3     :    -0.000012
 12 Aus       :    -0.040568  s :    -0.040568
      pz      :    -0.011640  p :    -0.019491
      px      :    -0.002911
      py      :    -0.004939
      dz2     :    -0.011905  d :    -0.021408
      dxz     :     0.004853
      dyz     :     0.005844
      dx2y2   :    -0.000368
      dxy     :    -0.019831
      f0      :     0.000210  f :     0.000344
      f+1     :     0.000093
      f-1     :     0.000091
      f+2     :    -0.000001
      f-2     :    -0.000020
      f+3     :    -0.000011
      f-3     :    -0.000018
 13 Aus       :    -0.000569  s :    -0.000569
      pz      :    -0.012061  p :    -0.031405
      px      :    -0.002055
      py      :    -0.017289
      dz2     :    -0.002131  d :     0.000054
      dxz     :    -0.000037
      dyz     :    -0.000163
      dx2y2   :     0.001125
      dxy     :     0.001260
      f0      :     0.000018  f :     0.000167
      f+1     :    -0.000001
      f-1     :    -0.000009
      f+2     :     0.000000
      f-2     :     0.000092
      f+3     :     0.000033
      f-3     :     0.000033
 14 Aus       :    -0.022461  s :    -0.022461
      pz      :    -0.018586  p :    -0.064085
      px      :    -0.020013
      py      :    -0.025486
      dz2     :    -0.004403  d :    -0.007645
      dxz     :     0.001245
      dyz     :    -0.002804
      dx2y2   :     0.001043
      dxy     :    -0.002727
      f0      :     0.000001  f :     0.000016
      f+1     :     0.000022
      f-1     :    -0.000023
      f+2     :     0.000028
      f-2     :    -0.000013
      f+3     :     0.000019
      f-3     :    -0.000017
 15 Aus       :    -0.062016  s :    -0.062016
      pz      :    -0.024130  p :    -0.050469
      px      :    -0.011617
      py      :    -0.014721
      dz2     :    -0.002336  d :    -0.016730
      dxz     :    -0.005525
      dyz     :    -0.003360
      dx2y2   :    -0.000073
      dxy     :    -0.005437
      f0      :    -0.000006  f :    -0.000027
      f+1     :    -0.000044
      f-1     :    -0.000002
      f+2     :     0.000012
      f-2     :     0.000020
      f+3     :     0.000003
      f-3     :    -0.000009
 16 Crs       :     0.000529  s :     0.000529
      pz      :     0.010552  p :     0.030854
      px      :     0.010515
      py      :     0.009788
      dz2     :     0.525009  d :     3.529084
      dxz     :     0.837909
      dyz     :     0.739517
      dx2y2   :     0.847037
      dxy     :     0.579612
      f0      :     0.000011  f :     0.000069
      f+1     :     0.000010
      f-1     :     0.000012
      f+2     :     0.000010
      f-2     :     0.000006
      f+3     :     0.000011
      f-3     :     0.000008


                      *****************************
                      * MAYER POPULATION ANALYSIS *
                      *****************************

  NA   - Mulliken gross atomic population
  ZA   - Total nuclear charge
  QA   - Mulliken gross atomic charge
  VA   - Mayer's total valence
  BVA  - Mayer's bonded valence
  FA   - Mayer's free valence

  ATOM       NA         ZA         QA         VA         BVA        FA
  0 Au    18.6561    19.0000     0.3439     1.7610     1.7586     0.0024
  1 Au    18.6313    19.0000     0.3687     1.6131     1.6123     0.0007
  2 Au    18.6245    19.0000     0.3755     1.8387     1.8323     0.0064
  3 Au    18.5870    19.0000     0.4130     1.5723     1.5708     0.0015
  4 Au    18.7192    19.0000     0.2808     1.5573     1.5521     0.0052
  5 Au    18.5928    19.0000     0.4072     1.8071     1.8019     0.0051
  6 Au    18.6713    19.0000     0.3287     1.8656     1.8597     0.0060
  7 Au    18.9100    19.0000     0.0900     2.0596     2.0377     0.0219
  8 Au    18.6427    19.0000     0.3573     1.5262     1.4884     0.0378
  9 Au    18.8399    19.0000     0.1601     1.9486     1.9326     0.0160
 10 Au    18.6240    19.0000     0.3760     1.5627     1.5454     0.0173
 11 Au    18.6474    19.0000     0.3526     1.4428     1.3663     0.0765
 12 Au    18.7285    19.0000     0.2715     1.8710     1.8655     0.0056
 13 Au    18.6098    19.0000     0.3902     1.6833     1.6818     0.0014
 14 Au    18.6428    19.0000     0.3572     1.6081     1.6061     0.0020
 15 Au    18.5627    19.0000     0.4373     1.5842     1.5614     0.0228
 16 Cr    29.3101    24.0000    -5.3101     9.9697     6.8401     3.1297

  Mayer bond orders larger than 0.100000
B(  0-Au,  1-Au) :   0.2413 B(  0-Au,  2-Au) :   0.1898 B(  0-Au,  6-Au) :   0.2385 
B(  0-Au,  9-Au) :   0.1616 B(  0-Au, 11-Au) :   0.2225 B(  0-Au, 16-Cr) :   0.4208 
B(  1-Au,  4-Au) :   0.2217 B(  1-Au,  6-Au) :   0.1786 B(  1-Au,  8-Au) :   0.2109 
B(  1-Au,  9-Au) :   0.1881 B(  1-Au, 16-Cr) :   0.3514 B(  2-Au,  5-Au) :   0.2599 
B(  2-Au, 11-Au) :   0.2202 B(  2-Au, 13-Au) :   0.2488 B(  2-Au, 16-Cr) :   0.5020 
B(  3-Au,  4-Au) :   0.2111 B(  3-Au,  5-Au) :   0.1868 B(  3-Au,  6-Au) :   0.1682 
B(  3-Au,  7-Au) :   0.1769 B(  3-Au, 10-Au) :   0.2075 B(  3-Au, 16-Cr) :   0.3822 
B(  4-Au,  6-Au) :   0.1138 B(  4-Au,  7-Au) :   0.1692 B(  4-Au,  8-Au) :   0.2572 
B(  4-Au, 16-Cr) :   0.3843 B(  5-Au,  6-Au) :   0.2587 B(  5-Au,  9-Au) :   0.1003 
B(  5-Au, 10-Au) :   0.1461 B(  5-Au, 13-Au) :   0.1660 B(  5-Au, 16-Cr) :   0.4449 
B(  6-Au, 12-Au) :   0.1033 B(  6-Au, 16-Cr) :   0.5247 B(  7-Au,  8-Au) :   0.1059 
B(  7-Au, 10-Au) :   0.1658 B(  7-Au, 14-Au) :   0.1386 B(  7-Au, 15-Au) :   0.1635 
B(  7-Au, 16-Cr) :   0.7077 B(  8-Au,  9-Au) :   0.1457 B(  8-Au, 14-Au) :   0.2474 
B(  8-Au, 16-Cr) :   0.3235 B(  9-Au, 11-Au) :   0.2137 B(  9-Au, 12-Au) :   0.1685 
B(  9-Au, 14-Au) :   0.1272 B(  9-Au, 16-Cr) :   0.5213 B( 10-Au, 13-Au) :   0.1829 
B( 10-Au, 15-Au) :   0.2650 B( 10-Au, 16-Cr) :   0.3394 B( 11-Au, 12-Au) :   0.2390 
B( 11-Au, 16-Cr) :   0.1834 B( 12-Au, 13-Au) :   0.2272 B( 12-Au, 14-Au) :   0.1303 
B( 12-Au, 15-Au) :   0.1499 B( 12-Au, 16-Cr) :   0.5123 B( 13-Au, 15-Au) :   0.1777 
B( 13-Au, 16-Cr) :   0.3896 B( 14-Au, 15-Au) :   0.2370 B( 14-Au, 16-Cr) :   0.5307 
B( 15-Au, 16-Cr) :   0.3219 

-------
TIMINGS
-------

Total SCF time: 0 days 0 hours 18 min 44 sec 

Total time                  ....    1124.230 sec
Sum of individual times     ....    1086.029 sec  ( 96.6%)

Fock matrix formation       ....     663.365 sec  ( 59.0%)
  Split-RI-J                ....     163.713 sec  ( 24.7% of F)
  XC integration            ....     439.379 sec  ( 66.2% of F)
    Basis function eval.    ....      25.219 sec  (  5.7% of XC)
    Density eval.           ....     200.184 sec  ( 45.6% of XC)
    XC-Functional eval.     ....      13.325 sec  (  3.0% of XC)
    XC-Potential eval.      ....     168.766 sec  ( 38.4% of XC)
Diagonalization             ....     406.667 sec  ( 36.2%)
Density matrix formation    ....       6.668 sec  (  0.6%)
Population analysis         ....       2.620 sec  (  0.2%)
Initial guess               ....       0.953 sec  (  0.1%)
Orbital Transformation      ....       0.000 sec  (  0.0%)
Orbital Orthonormalization  ....       0.687 sec  (  0.1%)
DIIS solution               ....       0.000 sec  (  0.0%)
Grid generation             ....       5.756 sec  (  0.5%)

Maximum memory used throughout the entire SCF-calculation: 123.8 MB

-------------------------   --------------------
FINAL SINGLE POINT ENERGY     -3218.020416519164
-------------------------   --------------------


                            ***************************************
                            *     ORCA property calculations      *
                            ***************************************

                                    ---------------------
                                    Active property flags
                                    ---------------------
   (+) Dipole Moment


------------------------------------------------------------------------------
                       ORCA ELECTRIC PROPERTIES CALCULATION
------------------------------------------------------------------------------

Dipole Moment Calculation                       ... on
Quadrupole Moment Calculation                   ... off
Polarizability Calculation                      ... off
GBWName                                         ... scan_job2.gbw
Electron density                                ... scan_job2.scfp
The origin for moment calculation is the CENTER OF MASS  = (15.793716, 15.300416 14.794746)

-------------
DIPOLE MOMENT
-------------
                                X             Y             Z
Electronic contribution:      6.98867      -1.77378       0.72918
Nuclear contribution   :     -7.09090       1.84549      -0.72325
                        -----------------------------------------
Total Dipole Moment    :     -0.10223       0.07171       0.00592
                        -----------------------------------------
Magnitude (a.u.)       :      0.12502
Magnitude (Debye)      :      0.31777



--------------------
Rotational spectrum 
--------------------
 
Rotational constants in cm-1:     0.000877     0.000866     0.000783 
Rotational constants in MHz :    26.304032    25.969922    23.486064 

 Dipole components along the rotational axes: 
x,y,z [a.u.] :    -0.026045     0.099775     0.070686 
x,y,z [Debye]:    -0.066202     0.253609     0.179668 

 

Timings for individual modules:

Sum of individual times         ...     1160.951 sec (=  19.349 min)
GTO integral calculation        ...       35.688 sec (=   0.595 min)   3.1 %
SCF iterations                  ...     1125.264 sec (=  18.754 min)  96.9 %



                             ****ORCA TERMINATED NORMALLY****
TOTAL RUN TIME: 0 days 0 hours 37 minutes 17 seconds 930 msec
