
                                 *****************
                                 * O   R   C   A *
                                 *****************

                                            #,                                       
                                            ###                                      
                                            ####                                     
                                            #####                                    
                                            ######                                   
                                           ########,                                 
                                     ,,################,,,,,                         
                               ,,#################################,,                 
                          ,,##########################################,,             
                       ,#########################################, ''#####,          
                    ,#############################################,,   '####,        
                  ,##################################################,,,,####,       
                ,###########''''           ''''###############################       
              ,#####''   ,,,,##########,,,,          '''####'''          '####       
            ,##' ,,,,###########################,,,                        '##       
           ' ,,###''''                  '''############,,,                           
         ,,##''                                '''############,,,,        ,,,,,,###''
      ,#''                                            '''#######################'''  
     '                                                          ''''####''''         
             ,#######,   #######,   ,#######,      ##                                
            ,#'     '#,  ##    ##  ,#'     '#,    #''#        ######   ,####,        
            ##       ##  ##   ,#'  ##            #'  '#       #        #'  '#        
            ##       ##  #######   ##           ,######,      #####,   #    #        
            '#,     ,#'  ##    ##  '#,     ,#' ,#      #,         ##   #,  ,#        
             '#######'   ##     ##  '#######'  #'      '#     #####' # '####'        



                  #######################################################
                  #                        -***-                        #
                  #          Department of theory and spectroscopy      #
                  #    Directorship and core code : Frank Neese         #
                  #        Max Planck Institute fuer Kohlenforschung    #
                  #                Kaiser Wilhelm Platz 1               #
                  #                 D-45470 Muelheim/Ruhr               #
                  #                      Germany                        #
                  #                                                     #
                  #                  All rights reserved                #
                  #                        -***-                        #
                  #######################################################


                         Program Version 5.0.3 -  RELEASE  -


 With contributions from (in alphabetic order):
   Daniel Aravena         : Magnetic Suceptibility
   Michael Atanasov       : Ab Initio Ligand Field Theory (pilot matlab implementation)
   Alexander A. Auer      : GIAO ZORA, VPT2 properties, NMR spectrum
   Ute Becker             : Parallelization
   Giovanni Bistoni       : ED, misc. LED, open-shell LED, HFLD
   Martin Brehm           : Molecular dynamics
   Dmytro Bykov           : SCF Hessian
   Vijay G. Chilkuri      : MRCI spin determinant printing, contributions to CSF-ICE
   Dipayan Datta          : RHF DLPNO-CCSD density
   Achintya Kumar Dutta   : EOM-CC, STEOM-CC
   Dmitry Ganyushin       : Spin-Orbit,Spin-Spin,Magnetic field MRCI
   Miquel Garcia          : C-PCM and meta-GGA Hessian, CC/C-PCM, Gaussian charge scheme
   Yang Guo               : DLPNO-NEVPT2, F12-NEVPT2, CIM, IAO-localization
   Andreas Hansen         : Spin unrestricted coupled pair/coupled cluster methods
   Benjamin Helmich-Paris : MC-RPA, TRAH-SCF, COSX integrals
   Lee Huntington         : MR-EOM, pCC
   Robert Izsak           : Overlap fitted RIJCOSX, COSX-SCS-MP3, EOM
   Marcus Kettner         : VPT2
   Christian Kollmar      : KDIIS, OOCD, Brueckner-CCSD(T), CCSD density, CASPT2, CASPT2-K
   Simone Kossmann        : Meta GGA functionals, TD-DFT gradient, OOMP2, MP2 Hessian
   Martin Krupicka        : Initial AUTO-CI
   Lucas Lang             : DCDCAS
   Marvin Lechner         : AUTO-CI (C++ implementation), FIC-MRCC
   Dagmar Lenk            : GEPOL surface, SMD
   Dimitrios Liakos       : Extrapolation schemes; Compound Job, initial MDCI parallelization
   Dimitrios Manganas     : Further ROCIS development; embedding schemes
   Dimitrios Pantazis     : SARC Basis sets
   Anastasios Papadopoulos: AUTO-CI, single reference methods and gradients
   Taras Petrenko         : DFT Hessian,TD-DFT gradient, ASA, ECA, R-Raman, ABS, FL, XAS/XES, NRVS
   Peter Pinski           : DLPNO-MP2, DLPNO-MP2 Gradient
   Christoph Reimann      : Effective Core Potentials
   Marius Retegan         : Local ZFS, SOC
   Christoph Riplinger    : Optimizer, TS searches, QM/MM, DLPNO-CCSD(T), (RO)-DLPNO pert. Triples
   Tobias Risthaus        : Range-separated hybrids, TD-DFT gradient, RPA, STAB
   Michael Roemelt        : Original ROCIS implementation
   Masaaki Saitow         : Open-shell DLPNO-CCSD energy and density
   Barbara Sandhoefer     : DKH picture change effects
   Avijit Sen             : IP-ROCIS
   Kantharuban Sivalingam : CASSCF convergence, NEVPT2, FIC-MRCI
   Bernardo de Souza      : ESD, SOC TD-DFT
   Georgi Stoychev        : AutoAux, RI-MP2 NMR, DLPNO-MP2 response
   Willem Van den Heuvel  : Paramagnetic NMR
   Boris Wezisla          : Elementary symmetry handling
   Frank Wennmohs         : Technical directorship


 We gratefully acknowledge several colleagues who have allowed us to
 interface, adapt or use parts of their codes:
   Stefan Grimme, W. Hujo, H. Kruse, P. Pracht,  : VdW corrections, initial TS optimization,
                  C. Bannwarth, S. Ehlert          DFT functionals, gCP, sTDA/sTD-DF
   Ed Valeev, F. Pavosevic, A. Kumar             : LibInt (2-el integral package), F12 methods
   Garnet Chan, S. Sharma, J. Yang, R. Olivares  : DMRG
   Ulf Ekstrom                                   : XCFun DFT Library
   Mihaly Kallay                                 : mrcc  (arbitrary order and MRCC methods)
   Jiri Pittner, Ondrej Demel                    : Mk-CCSD
   Frank Weinhold                                : gennbo (NPA and NBO analysis)
   Christopher J. Cramer and Donald G. Truhlar   : smd solvation model
   Lars Goerigk                                  : TD-DFT with DH, B97 family of functionals
   V. Asgeirsson, H. Jonsson                     : NEB implementation
   FAccTs GmbH                                   : IRC, NEB, NEB-TS, DLPNO-Multilevel, CI-OPT
                                                   MM, QMMM, 2- and 3-layer-ONIOM, Crystal-QMMM,
                                                   LR-CPCM, SF, NACMEs, symmetry and pop. for TD-DFT,
                                                   nearIR, NL-DFT gradient (VV10), updates on ESD,
                                                   ML-optimized integration grids
   S Lehtola, MJT Oliveira, MAL Marques          : LibXC Library
   Liviu Ungur et al                             : ANISO software


 Your calculation uses the libint2 library for the computation of 2-el integrals
 For citations please refer to: http://libint.valeyev.net

 Your ORCA version has been built with support for libXC version: 5.1.0
 For citations please refer to: https://tddft.org/programs/libxc/

 This ORCA versions uses:
   CBLAS   interface :  Fast vector & matrix operations
   LAPACKE interface :  Fast linear algebra routines
   SCALAPACK package :  Parallel linear algebra routines
   Shared memory     :  Shared parallel matrices
   BLAS/LAPACK       :  OpenBLAS 0.3.15  USE64BITINT DYNAMIC_ARCH NO_AFFINITY Sandybridge SINGLE_THREADED
        Core in use  :  Sandybridge
   Copyright (c) 2011-2014, The OpenBLAS Project




***************************************
The coordinates will be read from file: 5.xyz
***************************************


================================================================================

cite the ECPs for Au [Def2-ECP] as follows:
Ce-Yb(ecp-28): M. Dolg, H. Stoll, H.Preuss, J. Chem. Phys., 1989, 90, 1730-1734.
Y-Cd(ecp-28), Hf-Hg(ecp-46): D. Andrae,U. Haeussermann, M. Dolg, H. Stoll, H. Preuss, Theor. Chim. Acta, 1990, 77, 123-141.
In-Sb(ecp-28), Tl-Bi(ecp-46): B. Metz, H. Stoll, M. Dolg, J. Chem. Phys., 2000, 113, 2563-2569.
Te-Xe(ecp-28), Po-Rn(ecp-46): K. A. Peterson, D. Figgen, E. Goll, H. Stoll, M. Dolg, J. Chem. Phys., 2003, 119, 11113-11123.
Rb(ecp-28), Cs(ecp-46): T. Leininger, A. Nicklass, W. Kuechle, H. Stoll, M. Dolg, A. Bergner, Chem. Phys. Lett., 1996, 255, 274-280.
Sr(ecp-28), Ba(ecp-46): M. Kaupp, P. V. Schleyer, H. Stoll and H. Preuss, J. Chem. Phys., 1991, 94, 1360-1366.
La(ecp-46): M. Dolg, H. Stoll, A. Savin, H. Preuss, Theor. Chim. Acta, 1989, 75, 173-194.
Lu(ecp-28): X. Cao, M. Dolg, J. Chem. Phys., 2001, 115, 7348-7355.

ECP parameters for Au [Def2-ECP] have been obtained from:
TURBOMOLE (7.0.2)

----- Orbital basis set information -----
Your calculation utilizes the basis: def2-TZVP
   F. Weigend and R. Ahlrichs, Phys. Chem. Chem. Phys. 7, 3297 (2005).

----- AuxJ basis set information -----
Your calculation utilizes the auxiliary basis: def2/J
   F. Weigend, Phys. Chem. Chem. Phys. 8, 1057 (2006).

================================================================================
                                        WARNINGS
                       Please study these warnings very carefully!
================================================================================


WARNING: your system is open-shell and RHF/RKS was chosen
  ===> : WILL SWITCH to UHF/UKS


WARNING: Geometry Optimization
  ===> : Switching off AutoStart
         For restart on a previous wavefunction, please use MOREAD

INFO   : the flag for use of the SHARK integral package has been found!

================================================================================
                                       INPUT FILE
================================================================================
NAME = pbe.inp
|  1> %pal nprocs 1 end 
|  2> 
|  3> !PBE def2-TZVP OPT UNO
|  4> !SLOWCONV KDIIS 
|  5> 
|  6> %geom maxiter 300 end
|  7> 
|  8> *xyzfile 0 5 5.xyz                           ****END OF INPUT****
================================================================================

                       *****************************
                       * Geometry Optimization Run *
                       *****************************

Geometry optimization settings:
Update method            Update   .... BFGS
Choice of coordinates    CoordSys .... Z-matrix Internals
Initial Hessian          InHess   .... Almoef's Model

Convergence Tolerances:
Energy Change            TolE     ....  5.0000e-06 Eh
Max. Gradient            TolMAXG  ....  3.0000e-04 Eh/bohr
RMS Gradient             TolRMSG  ....  1.0000e-04 Eh/bohr
Max. Displacement        TolMAXD  ....  4.0000e-03 bohr
RMS Displacement         TolRMSD  ....  2.0000e-03 bohr
Strict Convergence                ....  False
------------------------------------------------------------------------------
                        ORCA OPTIMIZATION COORDINATE SETUP
------------------------------------------------------------------------------

The optimization will be done in new redundant internal coordinates
Making redundant internal coordinates   ...  (new redundants) done
Evaluating the initial hessian          ...  (Almloef) done
Evaluating the coordinates              ...  done
Calculating the B-matrix                .... done
Calculating the G-matrix                .... done
Diagonalizing the G-matrix              .... done
The first mode is                       ....  171
The number of degrees of freedom        ....   33

    -----------------------------------------------------------------
                    Redundant Internal Coordinates


    -----------------------------------------------------------------
         Definition                    Initial Value    Approx d2E/dq
    -----------------------------------------------------------------
      1. B(Au  4,Au  0)                  2.7729         0.007526   
      2. B(Au  5,Au  4)                  2.7637         0.007785   
      3. B(Au  7,Au  4)                  2.8816         0.005048   
      4. B(Au  7,Au  6)                  2.7727         0.007533   
      5. B(Au 10,Au  7)                  2.7636         0.007789   
      6. B(Au 11,Au  5)                  2.9565         0.003833   
      7. B(Au 11,Au  8)                  2.8248         0.006219   
      8. B(Au 11,Au 10)                  2.9564         0.003835   
      9. B(Au 11,Au  7)                  2.8530         0.005607   
     10. B(Au 11,Au  4)                  2.8532         0.005603   
     11. B(Fe 12,Au  8)                  2.8161         0.046689   
     12. B(Fe 12,Au  6)                  2.7055         0.070100   
     13. B(Fe 12,Au  2)                  2.5793         0.111443   
     14. B(Fe 12,Au  5)                  2.7389         0.061987   
     15. B(Fe 12,Au 10)                  2.7389         0.061989   
     16. B(Fe 12,Au  9)                  2.5864         0.108576   
     17. B(Fe 12,Au  3)                  2.5865         0.108527   
     18. B(Fe 12,Au  1)                  2.5834         0.109757   
     19. B(Fe 12,Au  0)                  2.7052         0.070156   
     20. A(Au  4,Au  0,Fe 12)           98.0342         0.184547   
     21. A(Au  7,Au  4,Au 11)           59.6658         0.132927   
     22. A(Au  5,Au  4,Au  7)          102.6681         0.136321   
     23. A(Au  0,Au  4,Au 11)          106.2841         0.137082   
     24. A(Au  0,Au  4,Au  7)           89.8152         0.135959   
     25. A(Au  0,Au  4,Au  5)           61.3167         0.140798   
     26. A(Au  5,Au  4,Au 11)           63.4970         0.137452   
     27. A(Au  4,Au  5,Au 11)           59.7269         0.133463   
     28. A(Au  4,Au  5,Fe 12)           97.4557         0.182623   
     29. A(Au 11,Au  5,Fe 12)           87.7777         0.168752   
     30. A(Au  7,Au  6,Fe 12)           98.0333         0.184551   
     31. A(Au  4,Au  7,Au  6)           89.8145         0.135970   
     32. A(Au  4,Au  7,Au 10)          102.6725         0.136326   
     33. A(Au  4,Au  7,Au 11)           59.6720         0.132933   
     34. A(Au  6,Au  7,Au 11)          106.2912         0.137100   
     35. A(Au  6,Au  7,Au 10)           61.3228         0.140815   
     36. A(Au 10,Au  7,Au 11)           63.4979         0.137465   
     37. A(Au 11,Au  8,Fe 12)           88.9371         0.172453   
     38. A(Au 11,Au 10,Fe 12)           87.7806         0.168761   
     39. A(Au  7,Au 10,Fe 12)           97.4572         0.182634   
     40. A(Au  7,Au 10,Au 11)           59.7258         0.133473   
     41. A(Au  5,Au 11,Au  8)           58.7465         0.131259   
     42. A(Au  7,Au 11,Au 10)           56.7763         0.130285   
     43. A(Au  4,Au 11,Au  5)           56.7761         0.130274   
     44. A(Au  4,Au 11,Au  8)          111.7784         0.135051   
     45. A(Au  5,Au 11,Au  7)           98.7070         0.130280   
     46. A(Au  4,Au 11,Au 10)           98.7069         0.130278   
     47. A(Au  8,Au 11,Au 10)           58.7432         0.131264   
     48. A(Au  5,Au 11,Au 10)           87.6366         0.126880   
     49. A(Au  7,Au 11,Au  8)          111.7764         0.135057   
     50. A(Au  4,Au 11,Au  7)           60.6622         0.133984   
     51. A(Au  2,Fe 12,Au 10)          126.2849         0.280771   
     52. A(Au  1,Fe 12,Au 10)          121.3215         0.280111   
     53. A(Au  5,Fe 12,Au  6)          109.1989         0.261667   
     54. A(Au  0,Fe 12,Au 10)          109.2040         0.261700   
     55. A(Au  8,Fe 12,Au  9)           64.0471         0.267796   
     56. A(Au  3,Fe 12,Au  6)          168.0400         0.285003   
     57. A(Au  0,Fe 12,Au  5)           62.4701         0.261699   
     58. A(Au  6,Fe 12,Au  9)          104.1278         0.285024   
     59. A(Au  5,Fe 12,Au  9)          124.9580         0.279642   
     60. A(Au  2,Fe 12,Au  6)          118.1953         0.286183   
     61. A(Au  3,Fe 12,Au  9)           87.8303         0.305407   
     62. A(Au  2,Fe 12,Au  9)           66.5143         0.306710   
     63. A(Au  1,Fe 12,Au  6)           63.5084         0.285504   
     64. A(Au  2,Fe 12,Au  3)           66.5089         0.306687   
     65. A(Au  1,Fe 12,Au  2)           65.5502         0.307244   
     66. A(Au  1,Fe 12,Au  9)          112.4081         0.305960   
     67. A(Au  0,Fe 12,Au  9)          168.0387         0.285059   
     68. A(Au  0,Fe 12,Au  6)           63.9120         0.266574   
     69. A(Au  6,Fe 12,Au  8)          120.8316         0.250939   
     70. A(Au  5,Fe 12,Au  8)           61.4291         0.246493   
     71. A(Au  3,Fe 12,Au  5)           62.3703         0.279622   
     72. A(Au  1,Fe 12,Au  3)          112.4191         0.305938   
     73. A(Au  3,Fe 12,Au  8)           64.0497         0.267778   
     74. A(Au  9,Fe 12,Au 10)           62.3675         0.279643   
     75. A(Au  2,Fe 12,Au  8)          109.0000         0.268854   
     76. A(Au  2,Fe 12,Au  5)          126.2805         0.280770   
     77. A(Au  8,Fe 12,Au 10)           61.4242         0.246494   
     78. A(Au  6,Fe 12,Au 10)           62.4686         0.261669   
     79. A(Au  1,Fe 12,Au  8)          174.5502         0.268235   
     80. A(Au  5,Fe 12,Au 10)           96.7255         0.256928   
     81. A(Au  3,Fe 12,Au 10)          124.9556         0.279624   
     82. A(Au  0,Fe 12,Au  8)          120.8383         0.250968   
     83. A(Au  1,Fe 12,Au  5)          121.3325         0.280109   
     84. A(Au  0,Fe 12,Au  3)          104.1292         0.285039   
     85. A(Au  0,Fe 12,Au  2)          118.1873         0.286219   
     86. A(Au  0,Fe 12,Au  1)           63.5124         0.285540   
     87. D(Au 11,Au  4,Au  0,Fe 12)     -0.4753         0.001502   
     88. D(Au  5,Au  4,Au  0,Fe 12)    -46.8654         0.001502   
     89. D(Au  7,Au  4,Au  0,Fe 12)     57.7154         0.001502   
     90. D(Fe 12,Au  5,Au  4,Au  0)     46.0364         0.001502   
     91. D(Fe 12,Au  5,Au  4,Au 11)    -83.0114         0.001502   
     92. D(Au 11,Au  5,Au  4,Au  0)    129.0478         0.001502   
     93. D(Au 11,Au  5,Au  4,Au  7)     46.3292         0.001502   
     94. D(Fe 12,Au  5,Au  4,Au  7)    -36.6822         0.001502   
     95. D(Au  6,Au  7,Au  4,Au  0)      0.0075         0.001501   
     96. D(Au 10,Au  7,Au  4,Au  5)      0.0019         0.001501   
     97. D(Au  4,Au  7,Au  6,Fe 12)    -57.7242         0.001502   
     98. D(Au  6,Au  7,Au  4,Au 11)    109.0801         0.001501   
     99. D(Au  6,Au  7,Au  4,Au  5)     60.4912         0.001501   
    100. D(Au 10,Au  7,Au  6,Fe 12)     46.8612         0.001502   
    101. D(Au 10,Au  7,Au  4,Au  0)    -60.4818         0.001501   
    102. D(Au 11,Au  7,Au  4,Au  5)    -48.5889         0.001501   
    103. D(Au 11,Au  7,Au  6,Fe 12)      0.4714         0.001502   
    104. D(Au 10,Au  7,Au  4,Au 11)     48.5909         0.001501   
    105. D(Au 11,Au  7,Au  4,Au  0)   -109.0727         0.001501   
    106. D(Fe 12,Au 10,Au  7,Au  6)    -46.0377         0.001502   
    107. D(Fe 12,Au 10,Au  7,Au  4)     36.6793         0.001502   
    108. D(Au 11,Au 10,Au  7,Au  6)   -129.0513         0.001502   
    109. D(Fe 12,Au 10,Au  7,Au 11)     83.0137         0.001502   
    110. D(Au 11,Au 10,Au  7,Au  4)    -46.3343         0.001502   
    111. D(Au  8,Au 11,Au  4,Au  5)     21.6333         0.001501   
    112. D(Au  4,Au 11,Au  5,Fe 12)     99.9631         0.001501   
    113. D(Au  4,Au 11,Au 10,Fe 12)    -53.8179         0.001501   
    114. D(Au  8,Au 11,Au  4,Au  0)    -23.5848         0.001501   
    115. D(Au  7,Au 11,Au 10,Fe 12)    -99.9632         0.001501   
    116. D(Au  8,Au 11,Au 10,Au  7)    156.3955         0.001501   
    117. D(Au  7,Au 11,Au  4,Au  5)    125.1495         0.001501   
    118. D(Au  4,Au 11,Au  8,Fe 12)     32.9405         0.001501   
    119. D(Au  8,Au 11,Au  5,Au  4)   -156.3926         0.001501   
    120. D(Au 10,Au 11,Au  5,Au  4)   -102.0138         0.001501   
    121. D(Au  8,Au 11,Au  7,Au  4)    103.5195         0.001501   
    122. D(Au  8,Au 11,Au  7,Au 10)    -21.6296         0.001501   
    123. D(Au  5,Au 11,Au  7,Au 10)    -81.3628         0.001501   
    124. D(Au  5,Au 11,Au  7,Au  4)     43.7863         0.001501   
    125. D(Au  5,Au 11,Au  7,Au  6)    -36.1421         0.001501   
    126. D(Au  4,Au 11,Au  7,Au 10)   -125.1491         0.001501   
    127. D(Au  4,Au 11,Au  7,Au  6)    -79.9285         0.001501   
    128. D(Au  5,Au 11,Au  4,Au  0)    -45.2181         0.001501   
    129. D(Au 10,Au 11,Au  5,Fe 12)     -2.0507         0.001501   
    130. D(Au 10,Au 11,Au  7,Au  6)     45.2206         0.001501   
    131. D(Au  8,Au 11,Au  7,Au  6)     23.5910         0.001501   
    132. D(Au  5,Au 11,Au  8,Fe 12)     54.0870         0.001501   
    133. D(Au  7,Au 11,Au  4,Au  0)     79.9314         0.001501   
    134. D(Au  5,Au 11,Au  4,Au  7)   -125.1495         0.001501   
    135. D(Au  7,Au 11,Au  5,Au  4)    -46.1451         0.001501   
    136. D(Au  7,Au 11,Au  5,Fe 12)     53.8181         0.001501   
    137. D(Au 10,Au 11,Au  8,Fe 12)    -54.0894         0.001501   
    138. D(Au  7,Au 11,Au  8,Fe 12)    -32.9457         0.001501   
    139. D(Au  5,Au 11,Au 10,Fe 12)      2.0507         0.001501   
    140. D(Au  8,Au 11,Au  5,Fe 12)    -56.4295         0.001501   
    141. D(Au 10,Au 11,Au  4,Au  7)    -43.7867         0.001501   
    142. D(Au  5,Au 11,Au 10,Au  7)    102.0139         0.001501   
    143. D(Au 10,Au 11,Au  4,Au  5)     81.3628         0.001501   
    144. D(Au 10,Au 11,Au  4,Au  0)     36.1447         0.001501   
    145. D(Au  4,Au 11,Au 10,Au  7)     46.1453         0.001501   
    146. D(Au  8,Au 11,Au 10,Fe 12)     56.4322         0.001501   
    147. D(Au 10,Au 11,Au  7,Au  4)    125.1491         0.001501   
    148. D(Au  8,Au 11,Au  4,Au  7)   -103.5161         0.001501   
    149. D(Au  1,Fe 12,Au  0,Au  4)   -157.0487         0.001522   
    150. D(Au  9,Fe 12,Au 10,Au 11)   -128.3479         0.001518   
    151. D(Au  9,Fe 12,Au 10,Au  7)    172.5756         0.001518   
    152. D(Au  8,Fe 12,Au 10,Au 11)    -54.4504         0.001518   
    153. D(Au  8,Fe 12,Au 10,Au  7)   -113.5269         0.001518   
    154. D(Au  6,Fe 12,Au 10,Au 11)    105.9492         0.001518   
    155. D(Au  6,Fe 12,Au 10,Au  7)     46.8727         0.001518   
    156. D(Au  5,Fe 12,Au 10,Au 11)     -2.2271         0.001518   
    157. D(Au  3,Fe 12,Au 10,Au 11)    -63.0626         0.001518   
    158. D(Au  3,Fe 12,Au 10,Au  7)   -122.1392         0.001518   
    159. D(Au  2,Fe 12,Au 10,Au 11)   -147.8921         0.001518   
    160. D(Au  1,Fe 12,Au 10,Au 11)    130.9843         0.001518   
    161. D(Au  1,Fe 12,Au 10,Au  7)     71.9077         0.001518   
    162. D(Au  0,Fe 12,Au 10,Au 11)     60.9159         0.001518   
    163. D(Au 10,Fe 12,Au  8,Au 11)     58.3224         0.001510   
    164. D(Au  9,Fe 12,Au  8,Au 11)    129.5223         0.001510   
    165. D(Au  6,Fe 12,Au  8,Au 11)     38.0533         0.001510   
    166. D(Au  5,Fe 12,Au  8,Au 11)    -58.3221         0.001510   
    167. D(Au  3,Fe 12,Au  8,Au 11)   -129.5227         0.001510   
    168. D(Au  2,Fe 12,Au  8,Au 11)   -179.9976         0.001510   
    169. D(Au  1,Fe 12,Au  8,Au 11)    179.9042         0.001510   
    170. D(Au 10,Fe 12,Au  6,Au  7)    -46.7555         0.001522   
    171. D(Au  9,Fe 12,Au  6,Au  7)    -94.6466         0.001522   
    172. D(Au  8,Fe 12,Au  6,Au  7)    -26.6909         0.001522   
    173. D(Au  5,Fe 12,Au  6,Au  7)     40.8565         0.001522   
    174. D(Au  3,Fe 12,Au  6,Au  7)     84.3194         0.001522   
    175. D(Au  2,Fe 12,Au  6,Au  7)   -165.2962         0.001522   
    176. D(Au  1,Fe 12,Au  6,Au  7)    157.0674         0.001522   
    177. D(Au  0,Fe 12,Au  6,Au  7)     85.1764         0.001522   
    178. D(Au 10,Fe 12,Au  5,Au 11)      2.2271         0.001518   
    179. D(Au 10,Fe 12,Au  5,Au  4)     61.3043         0.001518   
    180. D(Au  0,Fe 12,Au  8,Au 11)    -38.0537         0.001510   
    181. D(Au  9,Fe 12,Au  5,Au 11)     63.0584         0.001518   
    182. D(Au  9,Fe 12,Au  5,Au  4)    122.1357         0.001518   
    183. D(Au  8,Fe 12,Au  5,Au 11)     54.4468         0.001518   
    184. D(Au  8,Fe 12,Au  5,Au  4)    113.5240         0.001518   
    185. D(Au  6,Fe 12,Au  5,Au 11)    -60.9146         0.001518   
    186. D(Au  6,Fe 12,Au  5,Au  4)     -1.8374         0.001518   
    187. D(Au  3,Fe 12,Au  5,Au 11)    128.3444         0.001518   
    188. D(Au  0,Fe 12,Au 10,Au  7)      1.8394         0.001518   
    189. D(Au  3,Fe 12,Au  5,Au  4)   -172.5783         0.001518   
    190. D(Au  2,Fe 12,Au  5,Au 11)    147.8942         0.001518   
    191. D(Au  2,Fe 12,Au  5,Au  4)   -153.0286         0.001518   
    192. D(Au  2,Fe 12,Au 10,Au  7)    153.0314         0.001518   
    193. D(Au  1,Fe 12,Au  5,Au 11)   -130.9772         0.001518   
    194. D(Au  1,Fe 12,Au  5,Au  4)    -71.9000         0.001518   
    195. D(Au  0,Fe 12,Au  5,Au 11)   -105.9551         0.001518   
    196. D(Au  5,Fe 12,Au 10,Au  7)    -61.3037         0.001518   
    197. D(Au  0,Fe 12,Au  5,Au  4)    -46.8778         0.001518   
    198. D(Au 10,Fe 12,Au  0,Au  4)    -40.8516         0.001522   
    199. D(Au  9,Fe 12,Au  0,Au  4)    -84.3352         0.001522   
    200. D(Au  8,Fe 12,Au  0,Au  4)     26.6935         0.001522   
    201. D(Au  6,Fe 12,Au  0,Au  4)    -85.1637         0.001522   
    202. D(Au  5,Fe 12,Au  0,Au  4)     46.7582         0.001522   
    203. D(Au  3,Fe 12,Au  0,Au  4)     94.6531         0.001522   
    204. D(Au  2,Fe 12,Au  0,Au  4)    165.2967         0.001522   
    -----------------------------------------------------------------

Number of atoms                         .... 13
Number of degrees of freedom            .... 204

         *************************************************************
         *                GEOMETRY OPTIMIZATION CYCLE   1            *
         *************************************************************
---------------------------------
CARTESIAN COORDINATES (ANGSTROEM)
---------------------------------
  Au     6.113854    8.478040    3.741977
  Au     8.318875    6.826548    4.152819
  Au     7.716320    5.018803    6.197276
  Au     4.972822    5.621387    6.563664
  Au     4.630037   10.630932    4.665243
  Au     4.164764    8.134277    5.755306
  Au     8.385812    9.397087    5.223332
  Au     6.916245   11.555325    6.156064
  Au     5.146912    7.822373    8.399690
  Au     7.819410    6.772582    8.419554
  Au     7.412871    9.447697    7.873182
  Au     4.658467   10.459650    7.513168
  Fe     6.781094    7.421896    6.141495

----------------------------
CARTESIAN COORDINATES (A.U.)
----------------------------
  NO LB      ZA    FRAG     MASS         X           Y           Z
   0 Au   19.0000*   0   196.966   11.553510   16.021173    7.071312
   1 Au   19.0000*   0   196.966   15.720396   12.900307    7.847691
   2 Au   19.0000*   0   196.966   14.581731    9.484163   11.711155
   3 Au   19.0000*   0   196.966    9.397272   10.622881   12.403527
   4 Au   19.0000*   0   196.966    8.749501   20.089550    8.816031
   5 Au   19.0000*   0   196.966    7.870264   15.371556   10.875953
   6 Au   19.0000*   0   196.966   15.846887   17.757920    9.870667
   7 Au   19.0000*   0   196.966   13.069809   21.836400   11.633274
   8 Au   19.0000*   0   196.966    9.726254   14.782143   15.873114
   9 Au   19.0000*   0   196.966   14.776543   12.798325   15.910651
  10 Au   19.0000*   0   196.966   14.008296   17.853560   14.878158
  11 Au   19.0000*   0   196.966    8.803228   19.765873   14.197829
  12 Fe   26.0000    0    55.850   12.814410   14.025350   11.605743
* core charge reduced due to ECP

--------------------------------
INTERNAL COORDINATES (ANGSTROEM)
--------------------------------
 Au     0   0   0     0.000000000000     0.00000000     0.00000000
 Au     1   0   0     2.785378565371     0.00000000     0.00000000
 Au     2   1   0     2.794784648101   108.70742040     0.00000000
 Au     3   2   1     2.832689219808    99.54559894     7.06922941
 Au     1   2   3     2.772918648145   146.59947737    76.18512866
 Au     4   3   2     2.760618888382   116.05632659   336.54493076
 Au     2   1   3     2.785344808322    61.86992720   258.27421052
 Au     7   2   1     2.772653586206   146.60820764    25.56166793
 Au     6   4   3     2.838074210403    61.69490681   272.15545670
 Au     3   2   1     2.832822983744    99.53040781   287.16374484
 Au    10   3   2     2.760441423904   116.06089676    23.47364222
 Au     9   6   4     2.824841076179    62.94451340   172.10546104
 Fe     3   2   1     2.579266258595    57.29643146   327.12183073

---------------------------
INTERNAL COORDINATES (A.U.)
---------------------------
 Au     0   0   0     0.000000000000     0.00000000     0.00000000
 Au     1   0   0     5.263602667845     0.00000000     0.00000000
 Au     2   1   0     5.281377588198   108.70742040     0.00000000
 Au     3   2   1     5.353006847949    99.54559894     7.06922941
 Au     1   2   3     5.240056836638   146.59947737    76.18512866
 Au     4   3   2     5.216813659173   116.05632659   336.54493076
 Au     2   1   3     5.263538876268    61.86992720   258.27421052
 Au     7   2   1     5.239555942165   146.60820764    25.56166793
 Au     6   4   3     5.363183005406    61.69490681   272.15545670
 Au     3   2   1     5.353259625154    99.53040781   287.16374484
 Au    10   3   2     5.216478299909   116.06089676    23.47364222
 Au     9   6   4     5.338176005830    62.94451340   172.10546104
 Fe     3   2   1     4.874106855209    57.29643146   327.12183073

---------------------
BASIS SET INFORMATION
---------------------
There are 2 groups of distinct atoms

 Group   1 Type Au  : 8s7p6d1f contracted to 6s4p3d1f pattern {311111/4111/411/1}
 Group   2 Type Fe  : 17s11p7d1f contracted to 6s4p4d1f pattern {842111/6311/4111/1}

Atom   0Au   basis set group =>   1
Atom   1Au   basis set group =>   1
Atom   2Au   basis set group =>   1
Atom   3Au   basis set group =>   1
Atom   4Au   basis set group =>   1
Atom   5Au   basis set group =>   1
Atom   6Au   basis set group =>   1
Atom   7Au   basis set group =>   1
Atom   8Au   basis set group =>   1
Atom   9Au   basis set group =>   1
Atom  10Au   basis set group =>   1
Atom  11Au   basis set group =>   1
Atom  12Fe   basis set group =>   2
---------------------------------
AUXILIARY/J BASIS SET INFORMATION
---------------------------------
There are 2 groups of distinct atoms

 Group   1 Type Au  : 11s5p5d3f3g contracted to 8s5p5d2f3g pattern {41111111/11111/11111/21/111}
 Group   2 Type Fe  : 19s5p5d3f3g contracted to 8s5p5d2f3g pattern {121111111/11111/11111/21/111}

Atom   0Au   basis set group =>   1
Atom   1Au   basis set group =>   1
Atom   2Au   basis set group =>   1
Atom   3Au   basis set group =>   1
Atom   4Au   basis set group =>   1
Atom   5Au   basis set group =>   1
Atom   6Au   basis set group =>   1
Atom   7Au   basis set group =>   1
Atom   8Au   basis set group =>   1
Atom   9Au   basis set group =>   1
Atom  10Au   basis set group =>   1
Atom  11Au   basis set group =>   1
Atom  12Fe   basis set group =>   2
-------------------------
ECP PARAMETER INFORMATION
-------------------------

 Group 1, Type Au ECP Def2-ECP (replacing 60 core electrons, lmax=3)

Atom   0Au   ECP group =>   1
Atom   1Au   ECP group =>   1
Atom   2Au   ECP group =>   1
Atom   3Au   ECP group =>   1
Atom   4Au   ECP group =>   1
Atom   5Au   ECP group =>   1
Atom   6Au   ECP group =>   1
Atom   7Au   ECP group =>   1
Atom   8Au   ECP group =>   1
Atom   9Au   ECP group =>   1
Atom  10Au   ECP group =>   1
Atom  11Au   ECP group =>   1

------------------------------------------------------------------------------
                           ORCA GTO INTEGRAL CALCULATION
                           -- RI-GTO INTEGRALS CHOSEN --
------------------------------------------------------------------------------
------------------------------------------------------------------------------
                   ___                                                        
                  /   \      - P O W E R E D   B Y -                         
                 /     \                                                     
                 |  |  |   _    _      __       _____    __    __             
                 |  |  |  | |  | |    /  \     |  _  \  |  |  /  |          
                  \  \/   | |  | |   /    \    | | | |  |  | /  /          
                 / \  \   | |__| |  /  /\  \   | |_| |  |  |/  /          
                |  |  |   |  __  | /  /__\  \  |    /   |      \           
                |  |  |   | |  | | |   __   |  |    \   |  |\   \          
                \     /   | |  | | |  |  |  |  | |\  \  |  | \   \       
                 \___/    |_|  |_| |__|  |__|  |_| \__\ |__|  \__/        
                                                                              
                      - O R C A' S   B I G   F R I E N D -                    
                                      &                                       
                       - I N T E G R A L  F E E D E R -                       
                                                                              
 v1 FN, 2020, v2 2021                                                         
------------------------------------------------------------------------------


Reading SHARK input file pbe.SHARKINP.tmp ... ok
----------------------
SHARK INTEGRAL PACKAGE
----------------------

Number of atoms                             ...     13
Number of basis functions                   ...    525
Number of shells                            ...    183
Maximum angular momentum                    ...      3
Integral batch strategy                     ... SHARK/LIBINT Hybrid
RI-J (if used) integral strategy            ... SPLIT-RIJ (Revised 2003 algorithm where possible)
Printlevel                                  ...      1
Contraction scheme used                     ... SEGMENTED contraction
Coulomb Range Separation                    ... NOT USED
Exchange Range Separation                   ... NOT USED
Finite Nucleus Model                        ... NOT USED
Auxiliary Coulomb fitting basis             ... AVAILABLE
   # of basis functions in Aux-J            ...   1157
   # of shells in Aux-J                     ...    299
   Maximum angular momentum in Aux-J        ...      4
Auxiliary J/K fitting basis                 ... NOT available
Auxiliary Correlation fitting basis         ... NOT available
Auxiliary 'external' fitting basis          ... NOT available
Integral threshold                          ...     2.500000e-11
Primitive cut-off                           ...     2.500000e-12
Primitive pair pre-selection threshold      ...     2.500000e-12

Calculating pre-screening integrals         ... done (  0.5 sec) Dimension = 183
Organizing shell pair data                  ... done (  0.4 sec)
Shell pair information
Total number of shell pairs                 ...     16836
Shell pairs after pre-screening             ...     13748
Total number of primitive shell pairs       ...     45389
Primitive shell pairs kept                  ...     26955
          la=0 lb=0:   2139 shell pairs
          la=1 lb=0:   3144 shell pairs
          la=1 lb=1:   1186 shell pairs
          la=2 lb=0:   2724 shell pairs
          la=2 lb=1:   1909 shell pairs
          la=2 lb=2:    790 shell pairs
          la=3 lb=0:    725 shell pairs
          la=3 lb=1:    564 shell pairs
          la=3 lb=2:    489 shell pairs
          la=3 lb=3:     78 shell pairs

Calculating one electron integrals          ... done (  0.1 sec)
Calculating ECP integrals                   ... done (  8.8 sec)
Calculating RI/J V-Matrix + Cholesky decomp.... done (  0.1 sec)
Calculating Nuclear repulsion               ... done (  0.0 sec) ENN=   4370.182876019189 Eh

SHARK setup successfully completed in  10.8 seconds

Maximum memory used throughout the entire GTOINT-calculation: 401.3 MB
-------------------------------------------------------------------------------
                                 ORCA SCF
-------------------------------------------------------------------------------

------------
SCF SETTINGS
------------
Hamiltonian:
 Density Functional     Method          .... DFT(GTOs)
 Exchange Functional    Exchange        .... PBE
   PBE kappa parameter   XKappa         ....  0.804000
   PBE mue parameter    XMuePBE         ....  0.219520
 Correlation Functional Correlation     .... PBE
   PBE beta parameter  CBetaPBE         ....  0.066725
 LDA part of GGA corr.  LDAOpt          .... PW91-LDA
 Gradients option       PostSCFGGA      .... off
   Density functional embedding theory  .... OFF
   NL short-range parameter             ....  6.400000
 RI-approximation to the Coulomb term is turned on
   Number of AuxJ basis functions       .... 1157


General Settings:
 Integral files         IntName         .... pbe
 Hartree-Fock type      HFTyp           .... UHF
 Total Charge           Charge          ....    0
 Multiplicity           Mult            ....    5
 Number of Electrons    NEL             ....  254
 Basis Dimension        Dim             ....  525
 Nuclear Repulsion      ENuc            ....   4370.1828760192 Eh

Convergence Acceleration:
 DIIS                   CNVDIIS         .... off
 Trust-Rad. Augm. Hess. CNVTRAH         .... auto
   Auto Start mean grad. ratio tolernc. ....  1.125000
   Auto Start start iteration           ....    20
   Auto Start num. interpolation iter.  ....    10
   Max. Number of Micro iterations      ....    16
   Max. Number of Macro iterations      .... Maxiter - #DIIS iter
   Number of Davidson start vectors     ....     2
   Converg. threshold I  (grad. norm)   ....   1.000e-05
   Converg. threshold II (energy diff.) ....   1.000e-08
   Grad. Scal. Fac. for Micro threshold ....   0.100
   Minimum threshold for Micro iter.    ....   0.010
   NR start threshold (gradient norm)   ....   0.001
   Initial trust radius                 ....   0.400
   Minimum AH scaling param. (alpha)    ....   1.000
   Maximum AH scaling param. (alpha)    .... 1000.000
   Orbital update algorithm             .... Taylor
   White noise on init. David. guess    .... on
   Maximum white noise                  ....   0.010
   Quad. conv. algorithm                .... NR
 SOSCF                  CNVSOSCF        .... off
 Level Shifting         CNVShift        .... off
 Zerner damping         CNVZerner       .... off
 Static damping         CNVDamp         .... off
 Fernandez-Rico         CNVRico         .... off

SCF Procedure:
 Maximum # iterations   MaxIter         ....   125
 SCF integral mode      SCFMode         .... Direct
   Integral package                     .... SHARK and LIBINT hybrid scheme
 Reset frequency        DirectResetFreq ....    20
 Integral Threshold     Thresh          ....  2.500e-11 Eh
 Primitive CutOff       TCut            ....  2.500e-12 Eh

Convergence Tolerance:
 Convergence Check Mode ConvCheckMode   .... Total+1el-Energy
 Convergence forced     ConvForced      .... 0
 Energy Change          TolE            ....  1.000e-08 Eh
 1-El. energy change                    ....  1.000e-05 Eh


Diagonalization of the overlap matrix:
Smallest eigenvalue                        ... 5.738e-04
Time for diagonalization                   ...    0.074 sec
Threshold for overlap eigenvalues          ... 1.000e-08
Number of eigenvalues below threshold      ... 0
Time for construction of square roots      ...    0.033 sec
Total time needed                          ...    0.108 sec

Time for model grid setup =    1.589 sec

------------------------------
INITIAL GUESS: MODEL POTENTIAL
------------------------------
Loading Hartree-Fock densities                     ... done
  calling /home/ehlert/src/miniconda3/envs/orca500/Programs/ORCA501/orca pbe_atom79.inp > pbe_atom79.out in order to generate an atomic fitting density for atom 0 (Au with ECP) on-the-fly... 
    atom 0 (Au), assumed electronic state with S=2: 1s2 2s2 2p6 3s2 3p6 4s2 3d10 4p6 5s2 4d10 5p6 6s1 4f14 5d10           ... done
Calculating cut-offs                               ... done
Initializing the effective Hamiltonian             ... done
Setting up the integral package (SHARK)            ... done
Starting the Coulomb interaction                   ... done (   2.3 sec)
Reading the grid                                   ... done
Mapping shells                                     ... done
Starting the XC term evaluation                    ... done (   2.8 sec)
  promolecular density results
     # of electrons  =    974.012463883
     EX              =  -4443.919639584
     EC              =    -59.257929940
     EX+EC           =  -4503.177569524
Transforming the Hamiltonian                       ... done (   0.0 sec)
Diagonalizing the Hamiltonian                      ... done (   0.1 sec)
Back transforming the eigenvectors                 ... done (   0.0 sec)
Now organizing SCF variables                       ... done
                      ------------------
                      INITIAL GUESS DONE (   7.9 sec)
                      ------------------
-------------------
DFT GRID GENERATION
-------------------

General Integration Accuracy     IntAcc      ... 4.388
Radial Grid Type                 RadialGrid  ... OptM3 with GC (2021)
Angular Grid (max. ang.)         AngularGrid ... 4 (Lebedev-302)
Angular grid pruning method      GridPruning ... 4 (adaptive)
Weight generation scheme         WeightScheme... Becke
Basis function cutoff            BFCut       ... 1.0000e-11
Integration weight cutoff        WCut        ... 1.0000e-14
Angular grids for H and He will be reduced by one unit
Partially contracted basis set               ... off
Rotationally invariant grid construction     ... off

Total number of grid points                  ...   144657
Total number of batches                      ...     2266
Average number of points per batch           ...       63
Average number of grid points per atom       ...    11127
Time for grid setup =    3.801 sec

--------------
SCF ITERATIONS
--------------
ITER       Energy         Delta-E        Max-DP      RMS-DP      [F,P]   Gradient Norm
               ***  Starting incremental Fock matrix formation  ***
                             ****Resetting KDIIS****
                             ****Turning on KDIIS(Cayley)****
  0  -2890.2226566918   0.000000000000 0.45336090  0.00217066  0.4102038   0.252641873
  1  -2892.2468057148  -2.024149023087 0.59763280  0.00216039  0.3671090   0.168494558
  2  -2892.8970355528  -0.650229837986 0.10158713  0.00143895  0.2900700   0.123950053
  3  -2893.1371796748  -0.240144122022 0.19090641  0.00160246  0.1691801   0.074435231
  4  -2893.2027516179  -0.065571943025 0.05230383  0.00060848  0.0423520   0.026100592
  5  -2893.2635489074  -0.060797289502 0.25809170  0.00097939  0.0307539   0.011925046
  6  -2893.3009596585  -0.037410751142 0.06001940  0.00081069  0.0395454   0.012963684
  7  -2893.3302880518  -0.029328393256 0.02492669  0.00027962  0.0093555   0.007180835
  8  -2893.3411078321  -0.010819780301 0.01382025  0.00017356  0.0119386   0.005903225
  9  -2893.3481002366  -0.006992404521 0.01759090  0.00024465  0.0137693   0.003203107
 10  -2893.3568091569  -0.008708920317 0.02803892  0.00033154  0.0071830   0.003656621
 11  -2893.3664167832  -0.009607626317 0.02504706  0.00029644  0.0064713   0.003454977
 12  -2893.3729734518  -0.006556668567 0.03344588  0.00016193  0.0059941   0.003019928
 13  -2893.3707451070   0.002228344757 0.01710355  0.00020336  0.0106707   0.005479964
 14  -2893.3760282616  -0.005283154603 0.01249494  0.00016044  0.0049952   0.002093701
 15  -2893.3787215606  -0.002693298947 0.00793742  0.00012324  0.0051460   0.001445362
 16  -2893.3804978305  -0.001776269923 0.01474500  0.00006368  0.0045081   0.001975282
 17  -2893.3809681676  -0.000470337098 0.00432287  0.00005378  0.0052784   0.001578704
 18  -2893.3816539686  -0.000685801009 0.01096632  0.00016959  0.0044603   0.001299794
 19  -2893.3840348416  -0.002380873025 0.00680517  0.00004623  0.0037828   0.001781481
               *** Restarting incremental Fock matrix formation ***
                             ****Resetting KDIIS****

 WARNING: the maximum gradient error descreased on average only by a factor   1.1
          during the last 20 iterations

                      *** Initiating the TRAH-SCF procedure ***

                    *** KDIIS BlockDiag ( 0.160 sec) ***

TRAH GRID
---------

General Integration Accuracy     IntAcc      ... 3.467
Radial Grid Type                 RadialGrid  ... OptM3 with GC (2021)
Angular Grid (max. ang.)         AngularGrid ... 1 (Lebedev-50)
Angular grid pruning method      GridPruning ... 4 (adaptive)
Weight generation scheme         WeightScheme... Becke
Basis function cutoff            BFCut       ... 1.0000e-11
Integration weight cutoff        WCut        ... 1.0000e-14
Angular grids for H and He will be reduced by one unit
Partially contracted basis set               ... off
Rotationally invariant grid construction     ... off

Total number of grid points                  ...    62396
Total number of batches                      ...      983
Average number of points per batch           ...       63
Average number of grid points per atom       ...     4800

 --------------------------------------------------------------------------------------------
   Iter.        energy            ||Error||_2        Shift      TRadius  Mac/Mic        Rej.
 --------------------------------------------------------------------------------------------
WARNING: 1 diagonal Hessian elements are negative!
    0      -2893.383779161311     3.242382e-02                     0.400 (TRAH MAcro)   No
WARNING : negative HOMO - LUMO gap : (op =  beta) -0.000061
    0     dE    -2.134838e-04     3.953262e-02    -2.1347e-04      0.007 (TRAH MIcro)
    0     dE    -1.894472e-03     6.274868e-02    -1.8562e-03      0.144 (TRAH MIcro)
    0     dE    -4.190618e-03     3.533542e-02    -3.7727e-03      0.333 (TRAH MIcro)
    0     dE    -4.955421e-03     1.533207e-02    -4.2878e-03      0.395 (TRAH MIcro)
    0     dE    -5.114135e-03     1.014661e-02    -4.8983e-03      0.400 (TRAH MIcro)
    0     dE    -5.164783e-03     6.164655e-03    -5.2334e-03      0.400 (TRAH MIcro)
    0     dE    -5.180391e-03     3.659584e-03    -5.3008e-03      0.400 (TRAH MIcro)
    0     dE    -5.186904e-03     1.991482e-03    -5.3904e-03      0.400 (TRAH MIcro)
    1      -2893.388059786498     5.610857e-02                     0.480 (TRAH MAcro)   No
WARNING : small    HOMO - LUMO gap : (op =  beta) 0.001702
    1     dE    -6.021402e-04     3.746185e-02    -6.0207e-04      0.011 (TRAH MIcro)
    1     dE    -9.735817e-04     1.000076e-02    -9.7199e-04      0.040 (TRAH MIcro)
    1     dE    -1.077019e-03     8.037279e-03    -1.0739e-03      0.054 (TRAH MIcro)
    1     dE    -1.144139e-03     4.889048e-03    -1.1376e-03      0.076 (TRAH MIcro)
    2      -2893.389209845906     4.970568e-03                     0.576 (TRAH MAcro)   No
WARNING : small    HOMO - LUMO gap : (op =  beta) 0.009918
    2     dE    -3.899331e-06     1.333342e-02    -3.8993e-06      0.001 (TRAH MIcro)
    2     dE    -2.451495e-05     8.733699e-03    -2.4512e-05      0.012 (TRAH MIcro)
    2     dE    -5.256231e-05     6.748875e-03    -5.2516e-05      0.030 (TRAH MIcro)
    2     dE    -6.923744e-05     4.079877e-03    -6.9105e-05      0.044 (TRAH MIcro)
    2     dE    -7.460750e-05     1.909033e-03    -7.4423e-05      0.050 (TRAH MIcro)
    2     dE    -7.800947e-05     2.994381e-03    -7.7773e-05      0.055 (TRAH MIcro)
    2     dE    -7.971558e-05     1.686623e-03    -7.9443e-05      0.059 (TRAH MIcro)
    2     dE    -8.027228e-05     5.888984e-04    -7.9986e-05      0.060 (TRAH MIcro)
    2     dE    -8.047481e-05     3.573531e-04    -8.0181e-05      0.060 (TRAH MIcro)
    3      -2893.389287810150     1.492230e-03                     0.691 (TRAH MAcro)   No
WARNING : small    HOMO - LUMO gap : (op =  beta) 0.010239
    3     dE    -3.276470e-07     3.641991e-03    -3.2765e-07      0.000 (TRAH MIcro)
    3     dE    -6.357784e-07     5.966272e-04    -6.3578e-07      0.001 (TRAH MIcro)
    3     dE    -7.445631e-07     2.649926e-04    -7.4456e-07      0.001 (TRAH MIcro)
    3     dE    -8.154199e-07     1.703627e-04    -8.1542e-07      0.002 (TRAH MIcro)
    3     dE    -8.281161e-07     1.627804e-04    -8.2811e-07      0.002 (TRAH MIcro)
    3     dE    -8.353936e-07     7.190255e-05    -8.3539e-07      0.003 (TRAH MIcro)
    4      -2893.389288647636     7.190025e-05                           (NR   MAcro)
WARNING : small    HOMO - LUMO gap : (op =  beta) 0.010177
    4     dE    -1.640652e-09     4.405458e-05                           (NR   MIcro)
    4     dE    -2.174806e-09     3.702886e-05                           (NR   MIcro)
    4     dE    -2.746119e-09     2.773609e-05                           (NR   MIcro)
    4     dE    -3.269633e-09     1.996354e-05                           (NR   MIcro)
    4     dE    -3.489456e-09     1.417205e-05                           (NR   MIcro)
    4     dE    -3.590712e-09     9.766925e-06                           (NR   MIcro)
    4     dE    -3.641066e-09     6.505255e-06                           (NR   MIcro)
    4     dE    -3.671719e-09     6.164682e-06                           (NR   MIcro)
    4     dE    -3.714106e-09     6.941477e-06                           (NR   MIcro)
    4     dE    -3.735576e-09     5.175841e-06                           (NR   MIcro)
    4     dE    -3.746910e-09     2.612508e-06                           (NR   MIcro)
    4     dE    -3.750758e-09     1.677492e-06                           (NR   MIcro)
    4     dE    -3.752613e-09     1.473476e-06                           (NR   MIcro)
    4     dE    -3.754113e-09     1.095954e-06                           (NR   MIcro)
    4     dE    -3.754655e-09     5.735296e-07                           (NR   MIcro)
    5      -2893.389288651407     6.930298e-07                           (NR   MAcro)
WARNING : small    HOMO - LUMO gap : (op =  beta) 0.010177

               *****************************************************
               *                     SUCCESS                       *
               *           SCF CONVERGED AFTER  68 CYCLES          *
               *****************************************************


----------------
TOTAL SCF ENERGY
----------------

Total Energy       :        -2893.38928865 Eh          -78733.12526 eV

Components:
Nuclear Repulsion  :         4370.18287602 Eh          118918.72177 eV
Electronic Energy  :        -7263.57216467 Eh         -197651.84703 eV
One Electron Energy:       -13340.67249122 Eh         -363018.15397 eV
Two Electron Energy:         6077.10032655 Eh          165366.30695 eV

Virial components:
Potential Energy   :        -4704.44950143 Eh         -128014.57907 eV
Kinetic Energy     :         1811.06021277 Eh           49281.45381 eV
Virial Ratio       :            2.59762181


DFT components:
N(Alpha)           :      129.000063390397 electrons
N(Beta)            :      125.000064943491 electrons
N(Total)           :      254.000128333888 electrons
E(X)               :     -198.888717497608 Eh       
E(C)               :      -11.069265200069 Eh       
E(XC)              :     -209.957982697677 Eh       
DFET-embed. en.    :        0.000000000000 Eh       

---------------
SCF CONVERGENCE
---------------

  Last Energy change         ...   -3.7708e-09  Tolerance :   1.0000e-08
  Last Orbital Gradient      ...    6.9303e-07  Tolerance :   1.0000e-05
  Last Orbital Rotation      ...    5.2960e-04

             **** THE GBW FILE WAS UPDATED (pbe.gbw) ****
             **** DENSITY pbe.scfp WAS UPDATED ****
             **** ENERGY FILE WAS UPDATED (pbe.en.tmp) ****
----------------------
UHF SPIN CONTAMINATION
----------------------

Warning: in a DFT calculation there is little theoretical justification to 
         calculate <S**2> as in Hartree-Fock theory. We will do it anyways
         but you should keep in mind that the values have only limited relevance

Expectation value of <S**2>     :     6.184669
Ideal value S*(S+1) for S=2.0   :     6.000000
Deviation                       :     0.184669

             **** THE GBW FILE WAS UPDATED (pbe.gbw) ****
             **** DENSITY pbe.scfp WAS UPDATED ****
----------------
ORBITAL ENERGIES
----------------
                 SPIN UP ORBITALS
  NO   OCC          E(Eh)            E(eV) 
   0   1.0000    -254.764137     -6932.4846 
   1   1.0000     -29.605920      -805.6180 
   2   1.0000     -25.550590      -695.2669 
   3   1.0000     -25.539973      -694.9780 
   4   1.0000     -25.531922      -694.7589 
   5   1.0000      -4.034411      -109.7819 
   6   1.0000      -4.034406      -109.7818 
   7   1.0000      -4.030155      -109.6661 
   8   1.0000      -4.029163      -109.6391 
   9   1.0000      -4.029088      -109.6371 
  10   1.0000      -4.027980      -109.6069 
  11   1.0000      -4.020554      -109.4048 
  12   1.0000      -4.018822      -109.3577 
  13   1.0000      -4.018804      -109.3572 
  14   1.0000      -4.014014      -109.2269 
  15   1.0000      -4.013936      -109.2247 
  16   1.0000      -4.011097      -109.1475 
  17   1.0000      -3.385303       -92.1188 
  18   1.0000      -2.250914       -61.2505 
  19   1.0000      -2.250905       -61.2502 
  20   1.0000      -2.248691       -61.1900 
  21   1.0000      -2.247565       -61.1593 
  22   1.0000      -2.247551       -61.1590 
  23   1.0000      -2.245267       -61.0968 
  24   1.0000      -2.245237       -61.0960 
  25   1.0000      -2.244806       -61.0843 
  26   1.0000      -2.244572       -61.0779 
  27   1.0000      -2.243009       -61.0354 
  28   1.0000      -2.242734       -61.0279 
  29   1.0000      -2.241756       -61.0013 
  30   1.0000      -2.241160       -60.9851 
  31   1.0000      -2.241142       -60.9846 
  32   1.0000      -2.239688       -60.9450 
  33   1.0000      -2.239380       -60.9366 
  34   1.0000      -2.238988       -60.9260 
  35   1.0000      -2.238651       -60.9168 
  36   1.0000      -2.237048       -60.8732 
  37   1.0000      -2.235883       -60.8415 
  38   1.0000      -2.235771       -60.8384 
  39   1.0000      -2.232503       -60.7495 
  40   1.0000      -2.232406       -60.7468 
  41   1.0000      -2.230421       -60.6928 
  42   1.0000      -2.229860       -60.6776 
  43   1.0000      -2.229520       -60.6683 
  44   1.0000      -2.229298       -60.6623 
  45   1.0000      -2.228002       -60.6270 
  46   1.0000      -2.227272       -60.6072 
  47   1.0000      -2.226732       -60.5925 
  48   1.0000      -2.226696       -60.5915 
  49   1.0000      -2.225526       -60.5596 
  50   1.0000      -2.224671       -60.5364 
  51   1.0000      -2.224026       -60.5188 
  52   1.0000      -2.222939       -60.4892 
  53   1.0000      -2.222028       -60.4645 
  54   1.0000      -2.218090       -60.3573 
  55   1.0000      -2.196217       -59.7621 
  56   1.0000      -2.181210       -59.3538 
  57   1.0000      -0.421053       -11.4574 
  58   1.0000      -0.379510       -10.3270 
  59   1.0000      -0.378389       -10.2965 
  60   1.0000      -0.375489       -10.2176 
  61   1.0000      -0.370439       -10.0801 
  62   1.0000      -0.363069        -9.8796 
  63   1.0000      -0.362093        -9.8531 
  64   1.0000      -0.355421        -9.6715 
  65   1.0000      -0.354837        -9.6556 
  66   1.0000      -0.353267        -9.6129 
  67   1.0000      -0.347786        -9.4637 
  68   1.0000      -0.343866        -9.3571 
  69   1.0000      -0.342844        -9.3293 
  70   1.0000      -0.339561        -9.2399 
  71   1.0000      -0.338082        -9.1997 
  72   1.0000      -0.338032        -9.1983 
  73   1.0000      -0.334119        -9.0919 
  74   1.0000      -0.333050        -9.0628 
  75   1.0000      -0.331055        -9.0085 
  76   1.0000      -0.327574        -8.9138 
  77   1.0000      -0.326303        -8.8792 
  78   1.0000      -0.324232        -8.8228 
  79   1.0000      -0.316579        -8.6146 
  80   1.0000      -0.315429        -8.5833 
  81   1.0000      -0.314604        -8.5608 
  82   1.0000      -0.313863        -8.5406 
  83   1.0000      -0.310257        -8.4425 
  84   1.0000      -0.305639        -8.3169 
  85   1.0000      -0.304015        -8.2727 
  86   1.0000      -0.301084        -8.1929 
  87   1.0000      -0.299457        -8.1486 
  88   1.0000      -0.298548        -8.1239 
  89   1.0000      -0.297523        -8.0960 
  90   1.0000      -0.292808        -7.9677 
  91   1.0000      -0.287918        -7.8346 
  92   1.0000      -0.285495        -7.7687 
  93   1.0000      -0.284722        -7.7477 
  94   1.0000      -0.280912        -7.6440 
  95   1.0000      -0.279955        -7.6180 
  96   1.0000      -0.277629        -7.5547 
  97   1.0000      -0.277412        -7.5488 
  98   1.0000      -0.276338        -7.5195 
  99   1.0000      -0.272946        -7.4272 
 100   1.0000      -0.272431        -7.4132 
 101   1.0000      -0.270935        -7.3725 
 102   1.0000      -0.266039        -7.2393 
 103   1.0000      -0.265851        -7.2342 
 104   1.0000      -0.265534        -7.2255 
 105   1.0000      -0.263500        -7.1702 
 106   1.0000      -0.259906        -7.0724 
 107   1.0000      -0.259799        -7.0695 
 108   1.0000      -0.259706        -7.0670 
 109   1.0000      -0.257499        -7.0069 
 110   1.0000      -0.257259        -7.0004 
 111   1.0000      -0.253525        -6.8988 
 112   1.0000      -0.253245        -6.8911 
 113   1.0000      -0.253185        -6.8895 
 114   1.0000      -0.250297        -6.8109 
 115   1.0000      -0.250177        -6.8077 
 116   1.0000      -0.248989        -6.7753 
 117   1.0000      -0.248327        -6.7573 
 118   1.0000      -0.246755        -6.7145 
 119   1.0000      -0.245118        -6.6700 
 120   1.0000      -0.241844        -6.5809 
 121   1.0000      -0.240149        -6.5348 
 122   1.0000      -0.240136        -6.5344 
 123   1.0000      -0.239785        -6.5249 
 124   1.0000      -0.235006        -6.3948 
 125   1.0000      -0.232641        -6.3305 
 126   1.0000      -0.209049        -5.6885 
 127   1.0000      -0.197472        -5.3735 
 128   1.0000      -0.196007        -5.3336 
 129   0.0000      -0.159850        -4.3497 
 130   0.0000      -0.157805        -4.2941 
 131   0.0000      -0.131848        -3.5878 
 132   0.0000      -0.125894        -3.4257 
 133   0.0000      -0.123251        -3.3538 
 134   0.0000      -0.122163        -3.3242 
 135   0.0000      -0.073180        -1.9913 
 136   0.0000      -0.059604        -1.6219 
 137   0.0000      -0.059591        -1.6216 
 138   0.0000      -0.053010        -1.4425 
 139   0.0000      -0.047645        -1.2965 
 140   0.0000      -0.035187        -0.9575 
 141   0.0000      -0.034267        -0.9324 
 142   0.0000      -0.031641        -0.8610 
 143   0.0000      -0.021011        -0.5717 
 144   0.0000      -0.016657        -0.4533 
 145   0.0000      -0.009398        -0.2557 
 146   0.0000       0.008624         0.2347 
 147   0.0000       0.014970         0.4073 
 148   0.0000       0.028652         0.7797 
 149   0.0000       0.034483         0.9383 
 150   0.0000       0.043412         1.1813 
 151   0.0000       0.045290         1.2324 
 152   0.0000       0.051557         1.4029 
 153   0.0000       0.053271         1.4496 
 154   0.0000       0.058277         1.5858 
 155   0.0000       0.060726         1.6524 
 156   0.0000       0.061583         1.6757 
 157   0.0000       0.065069         1.7706 
 158   0.0000       0.066469         1.8087 
 159   0.0000       0.068811         1.8725 
 160   0.0000       0.086613         2.3569 
 161   0.0000       0.087629         2.3845 
 162   0.0000       0.097303         2.6477 
 163   0.0000       0.103263         2.8099 
 164   0.0000       0.104535         2.8445 
 165   0.0000       0.109880         2.9900 
 166   0.0000       0.111903         3.0450 
 167   0.0000       0.123729         3.3668 
 168   0.0000       0.124498         3.3878 
 169   0.0000       0.137746         3.7483 
 170   0.0000       0.140169         3.8142 
 171   0.0000       0.148866         4.0509 
 172   0.0000       0.156299         4.2531 
 173   0.0000       0.160611         4.3705 
 174   0.0000       0.165442         4.5019 
 175   0.0000       0.170078         4.6281 
 176   0.0000       0.172177         4.6852 
 177   0.0000       0.180470         4.9108 
 178   0.0000       0.182710         4.9718 
 179   0.0000       0.197269         5.3680 
 180   0.0000       0.208205         5.6656 
 181   0.0000       0.208323         5.6688 
 182   0.0000       0.210956         5.7404 
 183   0.0000       0.218232         5.9384 
 184   0.0000       0.224546         6.1102 
 185   0.0000       0.228305         6.2125 
 186   0.0000       0.231950         6.3117 
 187   0.0000       0.235066         6.3965 
 188   0.0000       0.236249         6.4287 
 189   0.0000       0.248106         6.7513 
 190   0.0000       0.248716         6.7679 
 191   0.0000       0.252710         6.8766 
 192   0.0000       0.264234         7.1902 
 193   0.0000       0.269358         7.3296 
 194   0.0000       0.273655         7.4465 
 195   0.0000       0.277412         7.5488 
 196   0.0000       0.278429         7.5764 
 197   0.0000       0.284384         7.7385 
 198   0.0000       0.285265         7.7625 
 199   0.0000       0.288717         7.8564 
 200   0.0000       0.291174         7.9232 
 201   0.0000       0.302371         8.2279 
 202   0.0000       0.307864         8.3774 
 203   0.0000       0.309643         8.4258 
 204   0.0000       0.322413         8.7733 
 205   0.0000       0.324421         8.8280 
 206   0.0000       0.326228         8.8771 
 207   0.0000       0.332541         9.0489 
 208   0.0000       0.337372         9.1804 
 209   0.0000       0.339318         9.2333 
 210   0.0000       0.341230         9.2853 
 211   0.0000       0.353175         9.6104 
 212   0.0000       0.353707         9.6248 
 213   0.0000       0.359367         9.7789 
 214   0.0000       0.366890         9.9836 
 215   0.0000       0.370596        10.0844 
 216   0.0000       0.376619        10.2483 
 217   0.0000       0.379327        10.3220 
 218   0.0000       0.389405        10.5962 
 219   0.0000       0.392751        10.6873 
 220   0.0000       0.399496        10.8708 
 221   0.0000       0.399975        10.8839 
 222   0.0000       0.408715        11.1217 
 223   0.0000       0.418112        11.3774 
 224   0.0000       0.422985        11.5100 
 225   0.0000       0.425037        11.5658 
 226   0.0000       0.429546        11.6885 
 227   0.0000       0.433375        11.7927 
 228   0.0000       0.440170        11.9776 
 229   0.0000       0.451169        12.2769 
 230   0.0000       0.452831        12.3222 
 231   0.0000       0.457255        12.4425 
 232   0.0000       0.467683        12.7263 
 233   0.0000       0.472521        12.8580 
 234   0.0000       0.472783        12.8651 
 235   0.0000       0.475927        12.9506 
 236   0.0000       0.476747        12.9729 
 237   0.0000       0.490303        13.3418 
 238   0.0000       0.496821        13.5192 
 239   0.0000       0.499227        13.5846 
 240   0.0000       0.503686        13.7060 
 241   0.0000       0.504541        13.7293 
 242   0.0000       0.513626        13.9765 
 243   0.0000       0.516604        14.0575 
 244   0.0000       0.519500        14.1363 
 245   0.0000       0.522361        14.2142 
 246   0.0000       0.526363        14.3231 
 247   0.0000       0.529215        14.4007 
 248   0.0000       0.532068        14.4783 
 249   0.0000       0.539785        14.6883 
 250   0.0000       0.547025        14.8853 
 251   0.0000       0.548677        14.9303 
 252   0.0000       0.612751        16.6738 
 253   0.0000       0.615923        16.7601 
 254   0.0000       0.649855        17.6835 
 255   0.0000       0.661086        17.9891 
 256   0.0000       0.672704        18.3052 
 257   0.0000       0.683428        18.5970 
 258   0.0000       0.697681        18.9849 
 259   0.0000       0.703109        19.1326 
 260   0.0000       0.711538        19.3619 
 261   0.0000       0.712889        19.3987 
 262   0.0000       0.730404        19.8753 
 263   0.0000       0.730677        19.8827 
 264   0.0000       0.742753        20.2113 
 265   0.0000       0.756995        20.5989 
 266   0.0000       0.769336        20.9347 
 267   0.0000       0.774545        21.0764 
 268   0.0000       0.783904        21.3311 
 269   0.0000       0.793194        21.5839 
 270   0.0000       0.795434        21.6449 
 271   0.0000       0.817180        22.2366 
 272   0.0000       0.817795        22.2533 
 273   0.0000       0.830466        22.5981 
 274   0.0000       0.831004        22.6128 
 275   0.0000       0.852156        23.1883 
 276   0.0000       0.865251        23.5447 
 277   0.0000       0.866892        23.5893 
 278   0.0000       0.873828        23.7781 
 279   0.0000       0.886355        24.1189 
 280   0.0000       0.890736        24.2382 
 281   0.0000       0.904456        24.6115 
 282   0.0000       0.913437        24.8559 
 283   0.0000       0.916258        24.9326 
 284   0.0000       0.954623        25.9766 
 285   0.0000       0.974619        26.5207 
 286   0.0000       0.986806        26.8524 
 287   0.0000       0.995855        27.0986 
 288   0.0000       1.005254        27.3544 
 289   0.0000       1.044875        28.4325 
 290   0.0000       1.068591        29.0778 
 291   0.0000       1.125579        30.6286 
 292   0.0000       1.203603        32.7517 
 293   0.0000       1.211535        32.9675 
 294   0.0000       1.219597        33.1869 
 295   0.0000       1.250867        34.0378 
 296   0.0000       1.255439        34.1622 
 297   0.0000       1.272608        34.6294 
 298   0.0000       1.274827        34.6898 
 299   0.0000       1.279324        34.8122 
 300   0.0000       1.294464        35.2241 
 301   0.0000       1.307369        35.5753 
 302   0.0000       1.308974        35.6190 
 303   0.0000       1.311026        35.6748 
 304   0.0000       1.320709        35.9383 
 305   0.0000       1.333154        36.2770 
 306   0.0000       1.334150        36.3041 
 307   0.0000       1.346324        36.6353 
 308   0.0000       1.365930        37.1688 
 309   0.0000       1.368549        37.2401 
 310   0.0000       1.378238        37.5038 
 311   0.0000       1.387741        37.7624 
 312   0.0000       1.394558        37.9478 
 313   0.0000       1.397835        38.0370 
 314   0.0000       1.398060        38.0431 
 315   0.0000       1.412689        38.4412 
 316   0.0000       1.417628        38.5756 
 317   0.0000       1.420883        38.6642 
 318   0.0000       1.422361        38.7044 
 319   0.0000       1.423974        38.7483 
 320   0.0000       1.432801        38.9885 
 321   0.0000       1.433266        39.0011 
 322   0.0000       1.440303        39.1926 
 323   0.0000       1.441632        39.2288 
 324   0.0000       1.444779        39.3144 
 325   0.0000       1.448097        39.4047 
 326   0.0000       1.453969        39.5645 
 327   0.0000       1.457942        39.6726 
 328   0.0000       1.460302        39.7368 
 329   0.0000       1.463896        39.8346 
 330   0.0000       1.468259        39.9534 
 331   0.0000       1.469065        39.9753 
 332   0.0000       1.472732        40.0751 
 333   0.0000       1.475972        40.1632 
 334   0.0000       1.476933        40.1894 
 335   0.0000       1.480011        40.2731 
 336   0.0000       1.480194        40.2781 
 337   0.0000       1.481289        40.3079 
 338   0.0000       1.483681        40.3730 
 339   0.0000       1.484853        40.4049 
 340   0.0000       1.488052        40.4920 
 341   0.0000       1.488196        40.4959 
 342   0.0000       1.491496        40.5857 
 343   0.0000       1.493316        40.6352 
 344   0.0000       1.495074        40.6830 
 345   0.0000       1.495157        40.6853 
 346   0.0000       1.496589        40.7243 
 347   0.0000       1.498378        40.7729 
 348   0.0000       1.499250        40.7967 
 349   0.0000       1.500829        40.8396 
 350   0.0000       1.502825        40.8940 
 351   0.0000       1.504659        40.9438 
 352   0.0000       1.505760        40.9738 
 353   0.0000       1.507210        41.0133 
 354   0.0000       1.507288        41.0154 
 355   0.0000       1.509095        41.0646 
 356   0.0000       1.510190        41.0944 
 357   0.0000       1.511046        41.1176 
 358   0.0000       1.512899        41.1681 
 359   0.0000       1.515232        41.2316 
 360   0.0000       1.516491        41.2658 
 361   0.0000       1.516985        41.2793 
 362   0.0000       1.517569        41.2951 
 363   0.0000       1.521503        41.4022 
 364   0.0000       1.522332        41.4248 
 365   0.0000       1.523298        41.4511 
 366   0.0000       1.523881        41.4669 
 367   0.0000       1.525123        41.5007 
 368   0.0000       1.526630        41.5417 
 369   0.0000       1.532210        41.6936 
 370   0.0000       1.532545        41.7027 
 371   0.0000       1.537575        41.8395 
 372   0.0000       1.540733        41.9255 
 373   0.0000       1.542269        41.9673 
 374   0.0000       1.545237        42.0480 
 375   0.0000       1.546715        42.0882 
 376   0.0000       1.547148        42.1000 
 377   0.0000       1.550976        42.2042 
 378   0.0000       1.555526        42.3280 
 379   0.0000       1.559246        42.4292 
 380   0.0000       1.561149        42.4810 
 381   0.0000       1.563266        42.5386 
 382   0.0000       1.564449        42.5708 
 383   0.0000       1.567411        42.6514 
 384   0.0000       1.568665        42.6856 
 385   0.0000       1.568961        42.6936 
 386   0.0000       1.577768        42.9332 
 387   0.0000       1.578310        42.9480 
 388   0.0000       1.581831        43.0438 
 389   0.0000       1.583925        43.1008 
 390   0.0000       1.587624        43.2014 
 391   0.0000       1.590119        43.2693 
 392   0.0000       1.591876        43.3171 
 393   0.0000       1.593410        43.3589 
 394   0.0000       1.594615        43.3917 
 395   0.0000       1.596541        43.4441 
 396   0.0000       1.597158        43.4609 
 397   0.0000       1.601899        43.5899 
 398   0.0000       1.604666        43.6652 
 399   0.0000       1.608427        43.7675 
 400   0.0000       1.609028        43.7839 
 401   0.0000       1.612301        43.8729 
 402   0.0000       1.614983        43.9459 
 403   0.0000       1.618940        44.0536 
 404   0.0000       1.630000        44.3545 
 405   0.0000       1.632932        44.4343 
 406   0.0000       1.638456        44.5847 
 407   0.0000       1.642817        44.7033 
 408   0.0000       1.652926        44.9784 
 409   0.0000       1.660068        45.1728 
 410   0.0000       1.665346        45.3164 
 411   0.0000       1.669583        45.4317 
 412   0.0000       1.679484        45.7011 
 413   0.0000       1.689121        45.9633 
 414   0.0000       1.698559        46.2202 
 415   0.0000       1.708720        46.4966 
 416   0.0000       1.732213        47.1359 
 417   0.0000       1.739457        47.3330 
 418   0.0000       1.747920        47.5633 
 419   0.0000       1.751867        47.6707 
 420   0.0000       1.763112        47.9767 
 421   0.0000       1.773482        48.2589 
 422   0.0000       1.778111        48.3849 
 423   0.0000       1.789808        48.7032 
 424   0.0000       1.795781        48.8657 
 425   0.0000       1.795817        48.8667 
 426   0.0000       1.811412        49.2910 
 427   0.0000       1.813122        49.3376 
 428   0.0000       1.822652        49.5969 
 429   0.0000       1.831933        49.8494 
 430   0.0000       1.833626        49.8955 
 431   0.0000       1.843374        50.1608 
 432   0.0000       1.876104        51.0514 
 433   0.0000       1.882524        51.2261 
 434   0.0000       1.896506        51.6066 
 435   0.0000       1.901916        51.7538 
 436   0.0000       1.913552        52.0704 
 437   0.0000       2.116471        57.5921 
 438   0.0000       2.241538        60.9953 
 439   0.0000       2.252317        61.2887 
 440   0.0000       2.256380        61.3992 
 441   0.0000       2.298502        62.5454 
 442   0.0000       2.304300        62.7032 
 443   0.0000       2.368985        64.4633 
 444   0.0000       2.370963        64.5172 
 445   0.0000       2.387943        64.9792 
 446   0.0000       2.445882        66.5558 
 447   0.0000       2.459710        66.9321 
 448   0.0000       2.477960        67.4287 
 449   0.0000       2.486032        67.6484 
 450   0.0000       2.499244        68.0079 
 451   0.0000       2.527741        68.7833 
 452   0.0000       3.205802        87.2343 
 453   0.0000       3.525829        95.9427 
 454   0.0000       3.532501        96.1242 
 455   0.0000       3.612560        98.3028 
 456   0.0000       3.660774        99.6147 
 457   0.0000       3.741051       101.7992 
 458   0.0000       3.885121       105.7195 
 459   0.0000       3.889858       105.8484 
 460   0.0000       3.893733       105.9539 
 461   0.0000       3.904438       106.2452 
 462   0.0000       3.914012       106.5057 
 463   0.0000       3.922362       106.7329 
 464   0.0000       3.922740       106.7432 
 465   0.0000      23.783709       647.1876 
 466   0.0000      23.843477       648.8140 
 467   0.0000      23.930963       651.1946 
 468   0.0000      24.181192       658.0037 
 469   0.0000      24.304853       661.3687 
 470   0.0000      24.533473       667.5897 
 471   0.0000      24.705961       672.2834 
 472   0.0000      24.750204       673.4873 
 473   0.0000      24.864619       676.6007 
 474   0.0000      24.902923       677.6430 
 475   0.0000      25.129331       683.8039 
 476   0.0000      25.347699       689.7460 
 477   0.0000      25.472931       693.1537 
 478   0.0000      25.573323       695.8855 
 479   0.0000      25.605787       696.7689 
 480   0.0000      25.759598       700.9543 
 481   0.0000      25.769788       701.2316 
 482   0.0000      25.859448       703.6713 
 483   0.0000      26.028673       708.2762 
 484   0.0000      26.113268       710.5781 
 485   0.0000      26.125775       710.9185 
 486   0.0000      26.186231       712.5636 
 487   0.0000      26.385848       717.9954 
 488   0.0000      26.553957       722.5699 
 489   0.0000      26.627738       724.5776 
 490   0.0000      26.706249       726.7140 
 491   0.0000      26.892876       731.7923 
 492   0.0000      27.155118       738.9283 
 493   0.0000      27.216136       740.5887 
 494   0.0000      27.398463       745.5501 
 495   0.0000      27.875689       758.5361 
 496   0.0000      27.898303       759.1514 
 497   0.0000      27.983752       761.4766 
 498   0.0000      28.037902       762.9501 
 499   0.0000      29.030361       789.9563 
 500   0.0000      29.489799       802.4582 
 501   0.0000      43.854481      1193.3411 
 502   0.0000      43.969049      1196.4587 
 503   0.0000      44.011872      1197.6239 
 504   0.0000      44.018744      1197.8109 
 505   0.0000      44.077562      1199.4115 
 506   0.0000      44.080055      1199.4793 
 507   0.0000      44.109214      1200.2727 
 508   0.0000      44.138353      1201.0657 
 509   0.0000      44.155657      1201.5365 
 510   0.0000      44.167091      1201.8476 
 511   0.0000      44.186799      1202.3839 
 512   0.0000      44.190697      1202.4900 
 513   0.0000     205.072957      5580.3189 
 514   0.0000     205.118624      5581.5615 
 515   0.0000     205.133417      5581.9641 
 516   0.0000     205.139842      5582.1389 
 517   0.0000     205.168370      5582.9152 
 518   0.0000     205.169529      5582.9467 
 519   0.0000     205.180207      5583.2373 
 520   0.0000     205.192421      5583.5696 
 521   0.0000     205.195941      5583.6654 
 522   0.0000     205.198433      5583.7332 
 523   0.0000     205.208955      5584.0196 
 524   0.0000     205.212194      5584.1077 

                 SPIN DOWN ORBITALS
  NO   OCC          E(Eh)            E(eV) 
   0   1.0000    -254.763391     -6932.4643 
   1   1.0000     -29.545444      -803.9724 
   2   1.0000     -25.500419      -693.9017 
   3   1.0000     -25.494814      -693.7492 
   4   1.0000     -25.490193      -693.6234 
   5   1.0000      -4.033409      -109.7546 
   6   1.0000      -4.033405      -109.7545 
   7   1.0000      -4.028614      -109.6242 
   8   1.0000      -4.028199      -109.6129 
   9   1.0000      -4.028137      -109.6112 
  10   1.0000      -4.027401      -109.5912 
  11   1.0000      -4.018826      -109.3578 
  12   1.0000      -4.017789      -109.3296 
  13   1.0000      -4.017772      -109.3291 
  14   1.0000      -4.013789      -109.2207 
  15   1.0000      -4.013711      -109.2186 
  16   1.0000      -4.010800      -109.1394 
  17   1.0000      -3.248640       -88.4000 
  18   1.0000      -2.249607       -61.2149 
  19   1.0000      -2.249604       -61.2148 
  20   1.0000      -2.246856       -61.1401 
  21   1.0000      -2.246591       -61.1329 
  22   1.0000      -2.246435       -61.1286 
  23   1.0000      -2.243770       -61.0561 
  24   1.0000      -2.243746       -61.0554 
  25   1.0000      -2.243527       -61.0495 
  26   1.0000      -2.243371       -61.0452 
  27   1.0000      -2.241926       -61.0059 
  28   1.0000      -2.241685       -60.9994 
  29   1.0000      -2.240785       -60.9748 
  30   1.0000      -2.240378       -60.9638 
  31   1.0000      -2.239945       -60.9520 
  32   1.0000      -2.239409       -60.9374 
  33   1.0000      -2.237940       -60.8974 
  34   1.0000      -2.237768       -60.8928 
  35   1.0000      -2.236402       -60.8556 
  36   1.0000      -2.235971       -60.8439 
  37   1.0000      -2.234257       -60.7972 
  38   1.0000      -2.234190       -60.7954 
  39   1.0000      -2.231138       -60.7124 
  40   1.0000      -2.231071       -60.7105 
  41   1.0000      -2.229727       -60.6740 
  42   1.0000      -2.229192       -60.6594 
  43   1.0000      -2.229148       -60.6582 
  44   1.0000      -2.227971       -60.6262 
  45   1.0000      -2.227674       -60.6181 
  46   1.0000      -2.226956       -60.5986 
  47   1.0000      -2.226187       -60.5776 
  48   1.0000      -2.226155       -60.5767 
  49   1.0000      -2.225285       -60.5531 
  50   1.0000      -2.224390       -60.5287 
  51   1.0000      -2.223713       -60.5103 
  52   1.0000      -2.222623       -60.4806 
  53   1.0000      -2.221706       -60.4557 
  54   1.0000      -2.071247       -56.3615 
  55   1.0000      -2.063800       -56.1589 
  56   1.0000      -2.059776       -56.0493 
  57   1.0000      -0.415351       -11.3023 
  58   1.0000      -0.376470       -10.2443 
  59   1.0000      -0.373707       -10.1691 
[...]
 140( 0) :    -0.034560 a.u.    -0.940 eV
 141( 0) :    -0.034016 a.u.    -0.926 eV
 142( 0) :    -0.027906 a.u.    -0.759 eV
 143( 0) :    -0.020718 a.u.    -0.564 eV
 144( 0) :    -0.016665 a.u.    -0.453 eV
 145( 0) :    -0.005637 a.u.    -0.153 eV
 146( 0) :     0.008294 a.u.     0.226 eV
 147( 0) :     0.014626 a.u.     0.398 eV
 148( 0) :     0.030050 a.u.     0.818 eV
 149( 0) :     0.036392 a.u.     0.990 eV
 150( 0) :     0.041534 a.u.     1.130 eV
 151( 0) :     0.045755 a.u.     1.245 eV
 152( 0) :     0.052593 a.u.     1.431 eV
 153( 0) :     0.053553 a.u.     1.457 eV
 154( 0) :     0.058819 a.u.     1.601 eV
 155( 0) :     0.061709 a.u.     1.679 eV
 156( 0) :     0.062343 a.u.     1.696 eV
 157( 0) :     0.065191 a.u.     1.774 eV
 158( 0) :     0.068270 a.u.     1.858 eV
 159( 0) :     0.068952 a.u.     1.876 eV
 160( 0) :     0.087375 a.u.     2.378 eV
 161( 0) :     0.089085 a.u.     2.424 eV
 162( 0) :     0.095182 a.u.     2.590 eV
 163( 0) :     0.104438 a.u.     2.842 eV
 164( 0) :     0.105881 a.u.     2.881 eV
 165( 0) :     0.112822 a.u.     3.070 eV
 166( 0) :     0.112997 a.u.     3.075 eV
 167( 0) :     0.123482 a.u.     3.360 eV
 168( 0) :     0.124698 a.u.     3.393 eV
 169( 0) :     0.137709 a.u.     3.747 eV
 170( 0) :     0.142427 a.u.     3.876 eV
 171( 0) :     0.149015 a.u.     4.055 eV
 172( 0) :     0.156247 a.u.     4.252 eV
 173( 0) :     0.162997 a.u.     4.435 eV
 174( 0) :     0.167749 a.u.     4.565 eV
 175( 0) :     0.171274 a.u.     4.661 eV
 176( 0) :     0.172607 a.u.     4.697 eV
 177( 0) :     0.179689 a.u.     4.890 eV
 178( 0) :     0.180034 a.u.     4.899 eV
 179( 0) :     0.190874 a.u.     5.194 eV
 180( 0) :     0.205580 a.u.     5.594 eV
 181( 0) :     0.210319 a.u.     5.723 eV
 182( 0) :     0.212405 a.u.     5.780 eV
 183( 0) :     0.217698 a.u.     5.924 eV
 184( 0) :     0.228294 a.u.     6.212 eV
 185( 0) :     0.229683 a.u.     6.250 eV
 186( 0) :     0.234123 a.u.     6.371 eV
 187( 0) :     0.235007 a.u.     6.395 eV
 188( 0) :     0.235832 a.u.     6.417 eV
 189( 0) :     0.247092 a.u.     6.724 eV
 190( 0) :     0.249666 a.u.     6.794 eV
 191( 0) :     0.253513 a.u.     6.898 eV
 192( 0) :     0.263255 a.u.     7.164 eV
 193( 0) :     0.270636 a.u.     7.364 eV
 194( 0) :     0.274702 a.u.     7.475 eV
 195( 0) :     0.278149 a.u.     7.569 eV
 196( 0) :     0.281960 a.u.     7.673 eV
 197( 0) :     0.283031 a.u.     7.702 eV
 198( 0) :     0.283241 a.u.     7.707 eV
 199( 0) :     0.291204 a.u.     7.924 eV
 200( 0) :     0.291358 a.u.     7.928 eV
 201( 0) :     0.301861 a.u.     8.214 eV
 202( 0) :     0.305446 a.u.     8.312 eV
 203( 0) :     0.308763 a.u.     8.402 eV
 204( 0) :     0.321574 a.u.     8.750 eV
 205( 0) :     0.322919 a.u.     8.787 eV
 206( 0) :     0.331490 a.u.     9.020 eV
 207( 0) :     0.332299 a.u.     9.042 eV
 208( 0) :     0.336302 a.u.     9.151 eV
 209( 0) :     0.340158 a.u.     9.256 eV
 210( 0) :     0.345877 a.u.     9.412 eV
 211( 0) :     0.352933 a.u.     9.604 eV
 212( 0) :     0.357340 a.u.     9.724 eV
 213( 0) :     0.361969 a.u.     9.850 eV
 214( 0) :     0.363334 a.u.     9.887 eV
 215( 0) :     0.373868 a.u.    10.173 eV
 216( 0) :     0.379587 a.u.    10.329 eV
 217( 0) :     0.380458 a.u.    10.353 eV
 218( 0) :     0.385780 a.u.    10.498 eV
 219( 0) :     0.394537 a.u.    10.736 eV
 220( 0) :     0.399008 a.u.    10.858 eV
 221( 0) :     0.402419 a.u.    10.950 eV
 222( 0) :     0.409781 a.u.    11.151 eV
 223( 0) :     0.416728 a.u.    11.340 eV
 224( 0) :     0.421811 a.u.    11.478 eV
 225( 0) :     0.428025 a.u.    11.647 eV
 226( 0) :     0.430100 a.u.    11.704 eV
 227( 0) :     0.431613 a.u.    11.745 eV
 228( 0) :     0.440549 a.u.    11.988 eV
 229( 0) :     0.450611 a.u.    12.262 eV
 230( 0) :     0.454128 a.u.    12.357 eV
 231( 0) :     0.455019 a.u.    12.382 eV
 232( 0) :     0.469768 a.u.    12.783 eV
 233( 0) :     0.469936 a.u.    12.788 eV
 234( 0) :     0.472450 a.u.    12.856 eV
 235( 0) :     0.473871 a.u.    12.895 eV
 236( 0) :     0.476930 a.u.    12.978 eV
 237( 0) :     0.491272 a.u.    13.368 eV
 238( 0) :     0.495980 a.u.    13.496 eV
 239( 0) :     0.498027 a.u.    13.552 eV
 240( 0) :     0.503258 a.u.    13.694 eV
 241( 0) :     0.503494 a.u.    13.701 eV
 242( 0) :     0.513006 a.u.    13.960 eV
 243( 0) :     0.517794 a.u.    14.090 eV
 244( 0) :     0.519402 a.u.    14.134 eV
 245( 0) :     0.524542 a.u.    14.274 eV
 246( 0) :     0.527860 a.u.    14.364 eV
 247( 0) :     0.530711 a.u.    14.441 eV
 248( 0) :     0.531056 a.u.    14.451 eV
 249( 0) :     0.540214 a.u.    14.700 eV
 250( 0) :     0.543796 a.u.    14.797 eV
 251( 0) :     0.548878 a.u.    14.936 eV
 252( 0) :     0.602653 a.u.    16.399 eV
 253( 0) :     0.609106 a.u.    16.575 eV
 254( 0) :     0.640553 a.u.    17.430 eV
 255( 0) :     0.655449 a.u.    17.836 eV
 256( 0) :     0.659970 a.u.    17.959 eV
 257( 0) :     0.681592 a.u.    18.547 eV
 258( 0) :     0.689529 a.u.    18.763 eV
 259( 0) :     0.690803 a.u.    18.798 eV
 260( 0) :     0.704524 a.u.    19.171 eV
 261( 0) :     0.713515 a.u.    19.416 eV
 262( 0) :     0.727180 a.u.    19.788 eV
 263( 0) :     0.742080 a.u.    20.193 eV
 264( 0) :     0.744588 a.u.    20.261 eV
 265( 0) :     0.748708 a.u.    20.373 eV
 266( 0) :     0.769408 a.u.    20.937 eV
 267( 0) :     0.771862 a.u.    21.003 eV
 268( 0) :     0.783515 a.u.    21.321 eV
 269( 0) :     0.790161 a.u.    21.501 eV
 270( 0) :     0.800145 a.u.    21.773 eV
 271( 0) :     0.815301 a.u.    22.185 eV
 272( 0) :     0.824387 a.u.    22.433 eV
 273( 0) :     0.832028 a.u.    22.641 eV
 274( 0) :     0.834274 a.u.    22.702 eV
 275( 0) :     0.852994 a.u.    23.211 eV
 276( 0) :     0.858420 a.u.    23.359 eV
 277( 0) :     0.868616 a.u.    23.636 eV
 278( 0) :     0.875567 a.u.    23.825 eV
 279( 0) :     0.888163 a.u.    24.168 eV
 280( 0) :     0.889052 a.u.    24.192 eV
 281( 0) :     0.908266 a.u.    24.715 eV
 282( 0) :     0.923548 a.u.    25.131 eV
 283( 0) :     0.925519 a.u.    25.185 eV
 284( 0) :     0.962208 a.u.    26.183 eV
 285( 0) :     0.973262 a.u.    26.484 eV
 286( 0) :     0.975595 a.u.    26.547 eV
 287( 0) :     0.991554 a.u.    26.982 eV
 288( 0) :     1.014014 a.u.    27.593 eV
 289( 0) :     1.039778 a.u.    28.294 eV
 290( 0) :     1.061279 a.u.    28.879 eV
 291( 0) :     1.134835 a.u.    30.880 eV
 292( 0) :     1.198864 a.u.    32.623 eV
 293( 0) :     1.208471 a.u.    32.884 eV
 294( 0) :     1.210923 a.u.    32.951 eV
 295( 0) :     1.245292 a.u.    33.886 eV
 296( 0) :     1.250964 a.u.    34.040 eV
 297( 0) :     1.260867 a.u.    34.310 eV
 298( 0) :     1.267837 a.u.    34.500 eV
 299( 0) :     1.280639 a.u.    34.848 eV
 300( 0) :     1.286913 a.u.    35.019 eV
 301( 0) :     1.306250 a.u.    35.545 eV
 302( 0) :     1.308540 a.u.    35.607 eV
 303( 0) :     1.310397 a.u.    35.658 eV
 304( 0) :     1.312735 a.u.    35.721 eV
 305( 0) :     1.330089 a.u.    36.194 eV
 306( 0) :     1.341027 a.u.    36.491 eV
 307( 0) :     1.344822 a.u.    36.594 eV
 308( 0) :     1.356619 a.u.    36.915 eV
 309( 0) :     1.360706 a.u.    37.027 eV
 310( 0) :     1.372175 a.u.    37.339 eV
 311( 0) :     1.381856 a.u.    37.602 eV
 312( 0) :     1.386411 a.u.    37.726 eV
 313( 0) :     1.391804 a.u.    37.873 eV
 314( 0) :     1.398406 a.u.    38.053 eV
 315( 0) :     1.411486 a.u.    38.408 eV
 316( 0) :     1.416894 a.u.    38.556 eV
 317( 0) :     1.417352 a.u.    38.568 eV
 318( 0) :     1.419780 a.u.    38.634 eV
 319( 0) :     1.421235 a.u.    38.674 eV
 320( 0) :     1.427707 a.u.    38.850 eV
 321( 0) :     1.430569 a.u.    38.928 eV
 322( 0) :     1.434277 a.u.    39.029 eV
 323( 0) :     1.436774 a.u.    39.097 eV
 324( 0) :     1.442152 a.u.    39.243 eV
 325( 0) :     1.445466 a.u.    39.333 eV
 326( 0) :     1.450552 a.u.    39.472 eV
 327( 0) :     1.455629 a.u.    39.610 eV
 328( 0) :     1.458137 a.u.    39.678 eV
 329( 0) :     1.460408 a.u.    39.740 eV
 330( 0) :     1.466545 a.u.    39.907 eV
 331( 0) :     1.470554 a.u.    40.016 eV
 332( 0) :     1.470899 a.u.    40.025 eV
 333( 0) :     1.473875 a.u.    40.106 eV
 334( 0) :     1.478940 a.u.    40.244 eV
 335( 0) :     1.479846 a.u.    40.269 eV
 336( 0) :     1.481368 a.u.    40.310 eV
 337( 0) :     1.482961 a.u.    40.353 eV
 338( 0) :     1.485386 a.u.    40.419 eV
 339( 0) :     1.488812 a.u.    40.513 eV
 340( 0) :     1.488934 a.u.    40.516 eV
 341( 0) :     1.489069 a.u.    40.520 eV
 342( 0) :     1.491582 a.u.    40.588 eV
 343( 0) :     1.492536 a.u.    40.614 eV
 344( 0) :     1.493322 a.u.    40.635 eV
 345( 0) :     1.495914 a.u.    40.706 eV
 346( 0) :     1.496817 a.u.    40.730 eV
 347( 0) :     1.498804 a.u.    40.785 eV
 348( 0) :     1.502372 a.u.    40.882 eV
 349( 0) :     1.503898 a.u.    40.923 eV
 350( 0) :     1.504005 a.u.    40.926 eV
 351( 0) :     1.505749 a.u.    40.974 eV
 352( 0) :     1.509369 a.u.    41.072 eV
 353( 0) :     1.511716 a.u.    41.136 eV
 354( 0) :     1.512041 a.u.    41.145 eV
 355( 0) :     1.513809 a.u.    41.193 eV
 356( 0) :     1.514023 a.u.    41.199 eV
 357( 0) :     1.514966 a.u.    41.224 eV
 358( 0) :     1.515718 a.u.    41.245 eV
 359( 0) :     1.516167 a.u.    41.257 eV
 360( 0) :     1.519210 a.u.    41.340 eV
 361( 0) :     1.520124 a.u.    41.365 eV
 362( 0) :     1.521482 a.u.    41.402 eV
 363( 0) :     1.523580 a.u.    41.459 eV
 364( 0) :     1.524217 a.u.    41.476 eV
 365( 0) :     1.525454 a.u.    41.510 eV
 366( 0) :     1.525626 a.u.    41.514 eV
 367( 0) :     1.529182 a.u.    41.611 eV
 368( 0) :     1.529570 a.u.    41.622 eV
 369( 0) :     1.532412 a.u.    41.699 eV
 370( 0) :     1.533959 a.u.    41.741 eV
 371( 0) :     1.536129 a.u.    41.800 eV
 372( 0) :     1.538153 a.u.    41.855 eV
 373( 0) :     1.539137 a.u.    41.882 eV
 374( 0) :     1.542224 a.u.    41.966 eV
 375( 0) :     1.544809 a.u.    42.036 eV
 376( 0) :     1.550068 a.u.    42.179 eV
 377( 0) :     1.553098 a.u.    42.262 eV
 378( 0) :     1.555580 a.u.    42.329 eV
 379( 0) :     1.557796 a.u.    42.390 eV
 380( 0) :     1.558194 a.u.    42.401 eV
 381( 0) :     1.561319 a.u.    42.486 eV
 382( 0) :     1.564572 a.u.    42.574 eV
 383( 0) :     1.566489 a.u.    42.626 eV
 384( 0) :     1.567358 a.u.    42.650 eV
 385( 0) :     1.575608 a.u.    42.874 eV
 386( 0) :     1.577396 a.u.    42.923 eV
 387( 0) :     1.579178 a.u.    42.972 eV
 388( 0) :     1.583440 a.u.    43.088 eV
 389( 0) :     1.584511 a.u.    43.117 eV
 390( 0) :     1.585599 a.u.    43.146 eV
 391( 0) :     1.590158 a.u.    43.270 eV
 392( 0) :     1.592811 a.u.    43.343 eV
 393( 0) :     1.593726 a.u.    43.367 eV
 394( 0) :     1.594994 a.u.    43.402 eV
 395( 0) :     1.596379 a.u.    43.440 eV
 396( 0) :     1.598536 a.u.    43.498 eV
 397( 0) :     1.599783 a.u.    43.532 eV
 398( 0) :     1.603367 a.u.    43.630 eV
 399( 0) :     1.603737 a.u.    43.640 eV
 400( 0) :     1.608137 a.u.    43.760 eV
 401( 0) :     1.615476 a.u.    43.959 eV
 402( 0) :     1.619733 a.u.    44.075 eV
 403( 0) :     1.622249 a.u.    44.144 eV
 404( 0) :     1.623742 a.u.    44.184 eV
 405( 0) :     1.634124 a.u.    44.467 eV
 406( 0) :     1.635893 a.u.    44.515 eV
 407( 0) :     1.637580 a.u.    44.561 eV
 408( 0) :     1.653099 a.u.    44.983 eV
 409( 0) :     1.654736 a.u.    45.028 eV
 410( 0) :     1.667371 a.u.    45.371 eV
 411( 0) :     1.674999 a.u.    45.579 eV
 412( 0) :     1.680830 a.u.    45.738 eV
 413( 0) :     1.697055 a.u.    46.179 eV
 414( 0) :     1.705024 a.u.    46.396 eV
 415( 0) :     1.711943 a.u.    46.584 eV
 416( 0) :     1.733028 a.u.    47.158 eV
 417( 0) :     1.736539 a.u.    47.254 eV
 418( 0) :     1.750448 a.u.    47.632 eV
 419( 0) :     1.761649 a.u.    47.937 eV
 420( 0) :     1.774369 a.u.    48.283 eV
 421( 0) :     1.784348 a.u.    48.555 eV
 422( 0) :     1.785995 a.u.    48.599 eV
 423( 0) :     1.799475 a.u.    48.966 eV
 424( 0) :     1.801384 a.u.    49.018 eV
 425( 0) :     1.802608 a.u.    49.051 eV
 426( 0) :     1.822905 a.u.    49.604 eV
 427( 0) :     1.836447 a.u.    49.972 eV
 428( 0) :     1.837522 a.u.    50.002 eV
 429( 0) :     1.843383 a.u.    50.161 eV
 430( 0) :     1.849927 a.u.    50.339 eV
 431( 0) :     1.860290 a.u.    50.621 eV
 432( 0) :     1.869240 a.u.    50.865 eV
 433( 0) :     1.896191 a.u.    51.598 eV
 434( 0) :     1.909169 a.u.    51.951 eV
 435( 0) :     1.910893 a.u.    51.998 eV
 436( 0) :     1.942551 a.u.    52.859 eV
 437( 0) :     2.113755 a.u.    57.518 eV
 438( 0) :     2.249745 a.u.    61.219 eV
 439( 0) :     2.261466 a.u.    61.538 eV
 440( 0) :     2.270286 a.u.    61.778 eV
 441( 0) :     2.317200 a.u.    63.054 eV
 442( 0) :     2.326924 a.u.    63.319 eV
 443( 0) :     2.378970 a.u.    64.735 eV
 444( 0) :     2.379907 a.u.    64.761 eV
 445( 0) :     2.400794 a.u.    65.329 eV
 446( 0) :     2.450024 a.u.    66.669 eV
 447( 0) :     2.480697 a.u.    67.503 eV
 448( 0) :     2.481887 a.u.    67.536 eV
 449( 0) :     2.499910 a.u.    68.026 eV
 450( 0) :     2.506162 a.u.    68.196 eV
 451( 0) :     2.547827 a.u.    69.330 eV
 452( 0) :     3.210537 a.u.    87.363 eV
 453( 0) :     3.532982 a.u.    96.137 eV
 454( 0) :     3.552556 a.u.    96.670 eV
 455( 0) :     3.618213 a.u.    98.457 eV
 456( 0) :     3.671317 a.u.    99.902 eV
 457( 0) :     3.704050 a.u.   100.792 eV
 458( 0) :     3.883989 a.u.   105.689 eV
 459( 0) :     3.890050 a.u.   105.854 eV
 460( 0) :     3.891478 a.u.   105.893 eV
 461( 0) :     3.898399 a.u.   106.081 eV
 462( 0) :     3.909635 a.u.   106.387 eV
 463( 0) :     3.915788 a.u.   106.554 eV
 464( 0) :     3.915992 a.u.   106.560 eV
 465( 0) :    23.776093 a.u.   646.980 eV
 466( 0) :    23.805530 a.u.   647.781 eV
 467( 0) :    23.872785 a.u.   649.612 eV
 468( 0) :    24.131786 a.u.   656.659 eV
 469( 0) :    24.279515 a.u.   660.679 eV
 470( 0) :    24.462997 a.u.   665.672 eV
 471( 0) :    24.595628 a.u.   669.281 eV
 472( 0) :    24.711142 a.u.   672.424 eV
 473( 0) :    24.865027 a.u.   676.612 eV
 474( 0) :    24.907725 a.u.   677.774 eV
 475( 0) :    25.288180 a.u.   688.126 eV
 476( 0) :    25.354627 a.u.   689.934 eV
 477( 0) :    25.584447 a.u.   696.188 eV
 478( 0) :    25.619131 a.u.   697.132 eV
 479( 0) :    25.622692 a.u.   697.229 eV
 480( 0) :    25.797755 a.u.   701.993 eV
 481( 0) :    25.811746 a.u.   702.373 eV
 482( 0) :    25.965205 a.u.   706.549 eV
 483( 0) :    26.108165 a.u.   710.439 eV
 484( 0) :    26.111463 a.u.   710.529 eV
 485( 0) :    26.253084 a.u.   714.383 eV
 486( 0) :    26.299206 a.u.   715.638 eV
 487( 0) :    26.527837 a.u.   721.859 eV
 488( 0) :    26.657511 a.u.   725.388 eV
 489( 0) :    26.811589 a.u.   729.580 eV
 490( 0) :    26.907242 a.u.   732.183 eV
 491( 0) :    27.035294 a.u.   735.668 eV
 492( 0) :    27.230281 a.u.   740.974 eV
 493( 0) :    27.388838 a.u.   745.288 eV
 494( 0) :    27.431482 a.u.   746.449 eV
 495( 0) :    27.968242 a.u.   761.055 eV
 496( 0) :    28.093429 a.u.   764.461 eV
 497( 0) :    28.122255 a.u.   765.245 eV
 498( 0) :    28.171536 a.u.   766.586 eV
 499( 0) :    28.896721 a.u.   786.320 eV
 500( 0) :    29.578699 a.u.   804.877 eV
 501( 0) :    43.858359 a.u.  1193.447 eV
 502( 0) :    43.979926 a.u.  1196.755 eV
 503( 0) :    44.023762 a.u.  1197.947 eV
 504( 0) :    44.024518 a.u.  1197.968 eV
 505( 0) :    44.087687 a.u.  1199.687 eV
 506( 0) :    44.089801 a.u.  1199.744 eV
 507( 0) :    44.116167 a.u.  1200.462 eV
 508( 0) :    44.142091 a.u.  1201.167 eV
 509( 0) :    44.171317 a.u.  1201.963 eV
 510( 0) :    44.171423 a.u.  1201.966 eV
 511( 0) :    44.194354 a.u.  1202.590 eV
 512( 0) :    44.201159 a.u.  1202.775 eV
 513( 0) :   205.074077 a.u.  5580.349 eV
 514( 0) :   205.122528 a.u.  5581.668 eV
 515( 0) :   205.137853 a.u.  5582.085 eV
 516( 0) :   205.140888 a.u.  5582.167 eV
 517( 0) :   205.171347 a.u.  5582.996 eV
 518( 0) :   205.171650 a.u.  5583.004 eV
 519( 0) :   205.181724 a.u.  5583.279 eV
 520( 0) :   205.195242 a.u.  5583.646 eV
 521( 0) :   205.198974 a.u.  5583.748 eV
 522( 0) :   205.199760 a.u.  5583.769 eV
 523( 0) :   205.212149 a.u.  5584.106 eV
 524( 0) :   205.214960 a.u.  5584.183 eV
-------
TIMINGS
-------

Total SCF time: 0 days 0 hours 4 min 24 sec 

Total time                  ....     264.916 sec
Sum of individual times     ....     260.572 sec  ( 98.4%)

Fock matrix formation       ....     249.912 sec  ( 94.3%)
  Split-RI-J                ....      86.835 sec  ( 34.7% of F)
  XC integration            ....     162.684 sec  ( 65.1% of F)
    Basis function eval.    ....      31.904 sec  ( 19.6% of XC)
    Density eval.           ....      80.529 sec  ( 49.5% of XC)
    XC-Functional eval.     ....       4.472 sec  (  2.7% of XC)
    XC-Potential eval.      ....      40.575 sec  ( 24.9% of XC)
Diagonalization             ....       3.636 sec  (  1.4%)
Density matrix formation    ....       0.517 sec  (  0.2%)
Population analysis         ....       2.207 sec  (  0.8%)
Initial guess               ....       0.266 sec  (  0.1%)
Orbital Transformation      ....       0.162 sec  (  0.1%)
Orbital Orthonormalization  ....       0.231 sec  (  0.1%)
DIIS solution               ....       0.000 sec  (  0.0%)
Grid generation             ....       3.869 sec  (  1.5%)

Maximum memory used throughout the entire SCF-calculation: 479.7 MB

-------------------------   --------------------
FINAL SINGLE POINT ENERGY     -2893.392494327139
-------------------------   --------------------

                                *** OPTIMIZATION RUN DONE ***

                            ***************************************
                            *     ORCA property calculations      *
                            ***************************************

                                    ---------------------
                                    Active property flags
                                    ---------------------
   (+) Dipole Moment


------------------------------------------------------------------------------
                       ORCA ELECTRIC PROPERTIES CALCULATION
------------------------------------------------------------------------------

Dipole Moment Calculation                       ... on
Quadrupole Moment Calculation                   ... off
Polarizability Calculation                      ... off
GBWName                                         ... pbe.gbw
Electron density                                ... pbe.scfp
The origin for moment calculation is the CENTER OF MASS  = (12.031898, 15.722243 11.754009)

-------------
DIPOLE MOMENT
-------------
                                X             Y             Z
Electronic contribution:    -14.36050      30.99830       2.93231
Nuclear contribution   :     14.48390     -31.07082      -3.07883
                        -----------------------------------------
Total Dipole Moment    :      0.12340      -0.07251      -0.14652
                        -----------------------------------------
Magnitude (a.u.)       :      0.20482
Magnitude (Debye)      :      0.52062



--------------------
Rotational spectrum 
--------------------
 
Rotational constants in cm-1:     0.001622     0.001213     0.001098 
Rotational constants in MHz :    48.629548    36.379718    32.918020 

 Dipole components along the rotational axes: 
x,y,z [a.u.] :     0.082946     0.187272    -0.001027 
x,y,z [Debye]:     0.210833     0.476008    -0.002611 

 

Timings for individual modules:

Sum of individual times         ...     8264.720 sec (= 137.745 min)
GTO integral calculation        ...      136.763 sec (=   2.279 min)   1.7 %
SCF iterations                  ...     6643.687 sec (= 110.728 min)  80.4 %
SCF Gradient evaluation         ...     1483.627 sec (=  24.727 min)  18.0 %
Geometry relaxation             ...        0.642 sec (=   0.011 min)   0.0 %
                             ****ORCA TERMINATED NORMALLY****
TOTAL RUN TIME: 0 days 2 hours 17 minutes 46 seconds 301 msec
