
                                 *****************
                                 * O   R   C   A *
                                 *****************

                                            #,                                       
                                            ###                                      
                                            ####                                     
                                            #####                                    
                                            ######                                   
                                           ########,                                 
                                     ,,################,,,,,                         
                               ,,#################################,,                 
                          ,,##########################################,,             
                       ,#########################################, ''#####,          
                    ,#############################################,,   '####,        
                  ,##################################################,,,,####,       
                ,###########''''           ''''###############################       
              ,#####''   ,,,,##########,,,,          '''####'''          '####       
            ,##' ,,,,###########################,,,                        '##       
           ' ,,###''''                  '''############,,,                           
         ,,##''                                '''############,,,,        ,,,,,,###''
      ,#''                                            '''#######################'''  
     '                                                          ''''####''''         
             ,#######,   #######,   ,#######,      ##                                
            ,#'     '#,  ##    ##  ,#'     '#,    #''#        ######   ,####,        
            ##       ##  ##   ,#'  ##            #'  '#       #        #'  '#        
            ##       ##  #######   ##           ,######,      #####,   #    #        
            '#,     ,#'  ##    ##  '#,     ,#' ,#      #,         ##   #,  ,#        
             '#######'   ##     ##  '#######'  #'      '#     #####' # '####'        



                  #######################################################
                  #                        -***-                        #
                  #          Department of theory and spectroscopy      #
                  #    Directorship and core code : Frank Neese         #
                  #        Max Planck Institute fuer Kohlenforschung    #
                  #                Kaiser Wilhelm Platz 1               #
                  #                 D-45470 Muelheim/Ruhr               #
                  #                      Germany                        #
                  #                                                     #
                  #                  All rights reserved                #
                  #                        -***-                        #
                  #######################################################


                         Program Version 5.0.3 -  RELEASE  -


 With contributions from (in alphabetic order):
   Daniel Aravena         : Magnetic Suceptibility
   Michael Atanasov       : Ab Initio Ligand Field Theory (pilot matlab implementation)
   Alexander A. Auer      : GIAO ZORA, VPT2 properties, NMR spectrum
   Ute Becker             : Parallelization
   Giovanni Bistoni       : ED, misc. LED, open-shell LED, HFLD
   Martin Brehm           : Molecular dynamics
   Dmytro Bykov           : SCF Hessian
   Vijay G. Chilkuri      : MRCI spin determinant printing, contributions to CSF-ICE
   Dipayan Datta          : RHF DLPNO-CCSD density
   Achintya Kumar Dutta   : EOM-CC, STEOM-CC
   Dmitry Ganyushin       : Spin-Orbit,Spin-Spin,Magnetic field MRCI
   Miquel Garcia          : C-PCM and meta-GGA Hessian, CC/C-PCM, Gaussian charge scheme
   Yang Guo               : DLPNO-NEVPT2, F12-NEVPT2, CIM, IAO-localization
   Andreas Hansen         : Spin unrestricted coupled pair/coupled cluster methods
   Benjamin Helmich-Paris : MC-RPA, TRAH-SCF, COSX integrals
   Lee Huntington         : MR-EOM, pCC
   Robert Izsak           : Overlap fitted RIJCOSX, COSX-SCS-MP3, EOM
   Marcus Kettner         : VPT2
   Christian Kollmar      : KDIIS, OOCD, Brueckner-CCSD(T), CCSD density, CASPT2, CASPT2-K
   Simone Kossmann        : Meta GGA functionals, TD-DFT gradient, OOMP2, MP2 Hessian
   Martin Krupicka        : Initial AUTO-CI
   Lucas Lang             : DCDCAS
   Marvin Lechner         : AUTO-CI (C++ implementation), FIC-MRCC
   Dagmar Lenk            : GEPOL surface, SMD
   Dimitrios Liakos       : Extrapolation schemes; Compound Job, initial MDCI parallelization
   Dimitrios Manganas     : Further ROCIS development; embedding schemes
   Dimitrios Pantazis     : SARC Basis sets
   Anastasios Papadopoulos: AUTO-CI, single reference methods and gradients
   Taras Petrenko         : DFT Hessian,TD-DFT gradient, ASA, ECA, R-Raman, ABS, FL, XAS/XES, NRVS
   Peter Pinski           : DLPNO-MP2, DLPNO-MP2 Gradient
   Christoph Reimann      : Effective Core Potentials
   Marius Retegan         : Local ZFS, SOC
   Christoph Riplinger    : Optimizer, TS searches, QM/MM, DLPNO-CCSD(T), (RO)-DLPNO pert. Triples
   Tobias Risthaus        : Range-separated hybrids, TD-DFT gradient, RPA, STAB
   Michael Roemelt        : Original ROCIS implementation
   Masaaki Saitow         : Open-shell DLPNO-CCSD energy and density
   Barbara Sandhoefer     : DKH picture change effects
   Avijit Sen             : IP-ROCIS
   Kantharuban Sivalingam : CASSCF convergence, NEVPT2, FIC-MRCI
   Bernardo de Souza      : ESD, SOC TD-DFT
   Georgi Stoychev        : AutoAux, RI-MP2 NMR, DLPNO-MP2 response
   Willem Van den Heuvel  : Paramagnetic NMR
   Boris Wezisla          : Elementary symmetry handling
   Frank Wennmohs         : Technical directorship


 We gratefully acknowledge several colleagues who have allowed us to
 interface, adapt or use parts of their codes:
   Stefan Grimme, W. Hujo, H. Kruse, P. Pracht,  : VdW corrections, initial TS optimization,
                  C. Bannwarth, S. Ehlert          DFT functionals, gCP, sTDA/sTD-DF
   Ed Valeev, F. Pavosevic, A. Kumar             : LibInt (2-el integral package), F12 methods
   Garnet Chan, S. Sharma, J. Yang, R. Olivares  : DMRG
   Ulf Ekstrom                                   : XCFun DFT Library
   Mihaly Kallay                                 : mrcc  (arbitrary order and MRCC methods)
   Jiri Pittner, Ondrej Demel                    : Mk-CCSD
   Frank Weinhold                                : gennbo (NPA and NBO analysis)
   Christopher J. Cramer and Donald G. Truhlar   : smd solvation model
   Lars Goerigk                                  : TD-DFT with DH, B97 family of functionals
   V. Asgeirsson, H. Jonsson                     : NEB implementation
   FAccTs GmbH                                   : IRC, NEB, NEB-TS, DLPNO-Multilevel, CI-OPT
                                                   MM, QMMM, 2- and 3-layer-ONIOM, Crystal-QMMM,
                                                   LR-CPCM, SF, NACMEs, symmetry and pop. for TD-DFT,
                                                   nearIR, NL-DFT gradient (VV10), updates on ESD,
                                                   ML-optimized integration grids
   S Lehtola, MJT Oliveira, MAL Marques          : LibXC Library
   Liviu Ungur et al                             : ANISO software


 Your calculation uses the libint2 library for the computation of 2-el integrals
 For citations please refer to: http://libint.valeyev.net

 Your ORCA version has been built with support for libXC version: 5.1.0
 For citations please refer to: https://tddft.org/programs/libxc/

 This ORCA versions uses:
   CBLAS   interface :  Fast vector & matrix operations
   LAPACKE interface :  Fast linear algebra routines
   SCALAPACK package :  Parallel linear algebra routines
   Shared memory     :  Shared parallel matrices
   BLAS/LAPACK       :  OpenBLAS 0.3.15  USE64BITINT DYNAMIC_ARCH NO_AFFINITY Sandybridge SINGLE_THREADED
        Core in use  :  Sandybridge
   Copyright (c) 2011-2014, The OpenBLAS Project




***************************************
The coordinates will be read from file: pbe.xyz
***************************************


================================================================================

cite the ECPs for Au [Def2-ECP] as follows:
Ce-Yb(ecp-28): M. Dolg, H. Stoll, H.Preuss, J. Chem. Phys., 1989, 90, 1730-1734.
Y-Cd(ecp-28), Hf-Hg(ecp-46): D. Andrae,U. Haeussermann, M. Dolg, H. Stoll, H. Preuss, Theor. Chim. Acta, 1990, 77, 123-141.
In-Sb(ecp-28), Tl-Bi(ecp-46): B. Metz, H. Stoll, M. Dolg, J. Chem. Phys., 2000, 113, 2563-2569.
Te-Xe(ecp-28), Po-Rn(ecp-46): K. A. Peterson, D. Figgen, E. Goll, H. Stoll, M. Dolg, J. Chem. Phys., 2003, 119, 11113-11123.
Rb(ecp-28), Cs(ecp-46): T. Leininger, A. Nicklass, W. Kuechle, H. Stoll, M. Dolg, A. Bergner, Chem. Phys. Lett., 1996, 255, 274-280.
Sr(ecp-28), Ba(ecp-46): M. Kaupp, P. V. Schleyer, H. Stoll and H. Preuss, J. Chem. Phys., 1991, 94, 1360-1366.
La(ecp-46): M. Dolg, H. Stoll, A. Savin, H. Preuss, Theor. Chim. Acta, 1989, 75, 173-194.
Lu(ecp-28): X. Cao, M. Dolg, J. Chem. Phys., 2001, 115, 7348-7355.

ECP parameters for Au [Def2-ECP] have been obtained from:
TURBOMOLE (7.0.2)

----- Orbital basis set information -----
Your calculation utilizes the basis: def2-TZVP
   F. Weigend and R. Ahlrichs, Phys. Chem. Chem. Phys. 7, 3297 (2005).

----- AuxJ basis set information -----
Your calculation utilizes the auxiliary basis: def2/J
   F. Weigend, Phys. Chem. Chem. Phys. 8, 1057 (2006).

----- AuxC basis set information -----
Your calculation utilizes the auxiliary basis: def2-TZVP/C
  H-La, Hf-Rn : A. Hellweg, C. Hattig, S. Hofener and W. Klopper, Theor. Chem. Acc. 117, 587 (2007).
        Ce-Lu : J. Chmela and M. E. Harding, Mol. Phys. (2018).

================================================================================
                                        WARNINGS
                       Please study these warnings very carefully!
================================================================================


INFO   : the flag for use of the SHARK integral package has been found!

================================================================================
                                       INPUT FILE
================================================================================
NAME = casscf.inp
|  1> !CASSCF def2-TZVP def2-TZVP/C
|  2> !MOREAD RIJCOSX
|  3> %maxcore 6000
|  4> %moinp "pbe.qro"
|  5> %pal nprocs 16 end 
|  6> 
|  7> %casscf
|  8>  mult 6,4
|  9>  bweight 1,1
| 10>  nroots 1,24
| 11>  nel 5
| 12>  norb 5
| 13> end
| 14> 
| 15> 
| 16> *xyzfile 0 6 pbe.xyz
| 17> 
| 18> 
| 19>                          ****END OF INPUT****
================================================================================

                       ****************************
                       * Single Point Calculation *
                       ****************************

---------------------------------
CARTESIAN COORDINATES (ANGSTROEM)
---------------------------------
  Au     5.588670   10.258068    8.439902
  Au     7.392651    7.201897    4.562333
  Au     5.600582    8.393807    6.369173
  Au     5.709012    5.613601    5.979016
  Au     7.826176    4.039181    6.762381
  Au     6.172563    5.043184    8.739026
  Au     5.746517    7.659148    9.248846
  Au     9.877353    8.233305    8.626274
  Au     8.162567    6.618469   10.070160
  Au     7.789002    9.427335   10.131694
  Au     8.037479    9.819883    7.327312
  Au     9.905227    5.449746    8.193137
  Au     9.533248    5.651428    5.331870
  Au     9.699675    8.377279    5.767483
  Mn     7.783301    6.895930    7.282775

----------------------------
CARTESIAN COORDINATES (A.U.)
----------------------------
  NO LB      ZA    FRAG     MASS         X           Y           Z
   0 Au   19.0000*   0   196.966   10.561056   19.384939   15.949103
   1 Au   19.0000*   0   196.966   13.970085   13.609613    8.621560
   2 Au   19.0000*   0   196.966   10.583567   15.861996   12.035992
   3 Au   19.0000*   0   196.966   10.788469   10.608169   11.298704
   4 Au   19.0000*   0   196.966   14.789330    7.632946   12.779049
   5 Au   19.0000*   0   196.966   11.664454    9.530238   16.514366
   6 Au   19.0000*   0   196.966   10.859342   14.473691   17.477786
   7 Au   19.0000*   0   196.966   18.665491   15.558691   16.301295
   8 Au   19.0000*   0   196.966   15.425017   12.507094   19.029844
   9 Au   19.0000*   0   196.966   14.719081   17.815082   19.146128
  10 Au   19.0000*   0   196.966   15.188634   18.556890   13.846612
  11 Au   19.0000*   0   196.966   18.718167   10.298528   15.482785
  12 Au   19.0000*   0   196.966   18.015227   10.679651   10.075775
  13 Au   19.0000*   0   196.966   18.329729   15.830764   10.898963
  14 Mn   25.0000    0    54.940   14.708307   13.031418   13.762451
* core charge reduced due to ECP

--------------------------------
INTERNAL COORDINATES (ANGSTROEM)
--------------------------------
 Au     0   0   0     0.000000000000     0.00000000     0.00000000
 Au     1   0   0     5.256430448370     0.00000000     0.00000000
 Au     1   2   0     2.786311056202    20.16409880     0.00000000
 Au     2   1   3     2.713726860079    75.06442130   316.82967041
 Au     4   2   1     2.752243537069    90.35199575   246.30911807
 Au     5   4   2     2.765787772665    62.34398314   127.11097321
 Au     6   5   4     2.699017362014   125.53573601   299.26326581
 Au     7   6   5     4.216759364227    87.10226163   318.89731088
 Au     7   6   5     2.755879047337    63.37847527   284.96102476
 Au     9   7   6     2.834266470934    61.09772371   169.24035275
 Au     1   2   3     2.725164967471    45.32793127   179.29700452
 Au     9   7   6     2.815313726290   120.04829473    58.73421477
 Au     5   4   2     2.749507941201    89.66068550     0.12104982
 Au    11   1   2     2.697604108822   151.13343045   346.08818032
 Mn    12   9   7     2.724477273504    61.33597316    12.10267184

---------------------------
INTERNAL COORDINATES (A.U.)
---------------------------
 Au     0   0   0     0.000000000000     0.00000000     0.00000000
 Au     1   0   0     9.933213989425     0.00000000     0.00000000
 Au     1   2   0     5.265364820139    20.16409880     0.00000000
 Au     2   1   3     5.128200567815    75.06442130   316.82967041
 Au     4   2   1     5.200986538916    90.35199575   246.30911807
 Au     5   4   2     5.226581434886    62.34398314   127.11097321
 Au     6   5   4     5.100403644905   125.53573601   299.26326581
 Au     7   6   5     7.968520371037    87.10226163   318.89731088
 Au     7   6   5     5.207856657678    63.37847527   284.96102476
 Au     9   7   6     5.355987420621    61.09772371   169.24035275
 Au     1   2   3     5.149815458277    45.32793127   179.29700452
 Au     9   7   6     5.320171923757   120.04829473    58.73421477
 Au     5   4   2     5.195817011912    89.66068550     0.12104982
 Au    11   1   2     5.097732983414   151.13343045   346.08818032
 Mn    12   9   7     5.148515905015    61.33597316    12.10267184

---------------------
BASIS SET INFORMATION
---------------------
There are 2 groups of distinct atoms

 Group   1 Type Au  : 8s7p6d1f contracted to 6s4p3d1f pattern {311111/4111/411/1}
 Group   2 Type Mn  : 17s11p7d1f contracted to 6s4p4d1f pattern {842111/6311/4111/1}

Atom   0Au   basis set group =>   1
Atom   1Au   basis set group =>   1
Atom   2Au   basis set group =>   1
Atom   3Au   basis set group =>   1
Atom   4Au   basis set group =>   1
Atom   5Au   basis set group =>   1
Atom   6Au   basis set group =>   1
Atom   7Au   basis set group =>   1
Atom   8Au   basis set group =>   1
Atom   9Au   basis set group =>   1
Atom  10Au   basis set group =>   1
Atom  11Au   basis set group =>   1
Atom  12Au   basis set group =>   1
Atom  13Au   basis set group =>   1
Atom  14Mn   basis set group =>   2
---------------------------------
AUXILIARY/J BASIS SET INFORMATION
---------------------------------
There are 2 groups of distinct atoms

 Group   1 Type Au  : 11s5p5d3f3g contracted to 8s5p5d2f3g pattern {41111111/11111/11111/21/111}
 Group   2 Type Mn  : 19s5p5d3f3g contracted to 8s5p5d2f3g pattern {121111111/11111/11111/21/111}

Atom   0Au   basis set group =>   1
Atom   1Au   basis set group =>   1
Atom   2Au   basis set group =>   1
Atom   3Au   basis set group =>   1
Atom   4Au   basis set group =>   1
Atom   5Au   basis set group =>   1
Atom   6Au   basis set group =>   1
Atom   7Au   basis set group =>   1
Atom   8Au   basis set group =>   1
Atom   9Au   basis set group =>   1
Atom  10Au   basis set group =>   1
Atom  11Au   basis set group =>   1
Atom  12Au   basis set group =>   1
Atom  13Au   basis set group =>   1
Atom  14Mn   basis set group =>   2
---------------------------------
AUXILIARY/C BASIS SET INFORMATION
---------------------------------
There are 2 groups of distinct atoms

 Group   1 Type Au  : 8s8p7d5f3g2h contracted to 8s8p7d5f3g2h pattern {11111111/11111111/1111111/11111/111/11}
 Group   2 Type Mn  : 11s9p8d6f5g2h contracted to 9s8p8d6f5g2h pattern {311111111/21111111/11111111/111111/11111/11}

Atom   0Au   basis set group =>   1
Atom   1Au   basis set group =>   1
Atom   2Au   basis set group =>   1
Atom   3Au   basis set group =>   1
Atom   4Au   basis set group =>   1
Atom   5Au   basis set group =>   1
Atom   6Au   basis set group =>   1
Atom   7Au   basis set group =>   1
Atom   8Au   basis set group =>   1
Atom   9Au   basis set group =>   1
Atom  10Au   basis set group =>   1
Atom  11Au   basis set group =>   1
Atom  12Au   basis set group =>   1
Atom  13Au   basis set group =>   1
Atom  14Mn   basis set group =>   2
-------------------------
ECP PARAMETER INFORMATION
-------------------------

 Group 1, Type Au ECP Def2-ECP (replacing 60 core electrons, lmax=3)

Atom   0Au   ECP group =>   1
Atom   1Au   ECP group =>   1
Atom   2Au   ECP group =>   1
Atom   3Au   ECP group =>   1
Atom   4Au   ECP group =>   1
Atom   5Au   ECP group =>   1
Atom   6Au   ECP group =>   1
Atom   7Au   ECP group =>   1
Atom   8Au   ECP group =>   1
Atom   9Au   ECP group =>   1
Atom  10Au   ECP group =>   1
Atom  11Au   ECP group =>   1
Atom  12Au   ECP group =>   1
Atom  13Au   ECP group =>   1



           ************************************************************
           *        Program running with 16 parallel MPI-processes    *
           *              working on a common directory               *
           ************************************************************
------------------------------------------------------------------------------
                           ORCA GTO INTEGRAL CALCULATION
                           -- RI-GTO INTEGRALS CHOSEN --
------------------------------------------------------------------------------
------------------------------------------------------------------------------
                   ___                                                        
                  /   \      - P O W E R E D   B Y -                         
                 /     \                                                     
                 |  |  |   _    _      __       _____    __    __             
                 |  |  |  | |  | |    /  \     |  _  \  |  |  /  |          
                  \  \/   | |  | |   /    \    | | | |  |  | /  /          
                 / \  \   | |__| |  /  /\  \   | |_| |  |  |/  /          
                |  |  |   |  __  | /  /__\  \  |    /   |      \           
                |  |  |   | |  | | |   __   |  |    \   |  |\   \          
                \     /   | |  | | |  |  |  |  | |\  \  |  | \   \       
                 \___/    |_|  |_| |__|  |__|  |_| \__\ |__|  \__/        
                                                                              
                      - O R C A' S   B I G   F R I E N D -                    
                                      &                                       
                       - I N T E G R A L  F E E D E R -                       
                                                                              
 v1 FN, 2020, v2 2021                                                         
------------------------------------------------------------------------------


Reading SHARK input file casscf.SHARKINP.tmp ... ok
----------------------
SHARK INTEGRAL PACKAGE
----------------------

Number of atoms                             ...     15
Number of basis functions                   ...    605
Number of shells                            ...    211
Maximum angular momentum                    ...      3
Integral batch strategy                     ... SHARK/LIBINT Hybrid
RI-J (if used) integral strategy            ... SPLIT-RIJ (Revised 2003 algorithm where possible)
Printlevel                                  ...      1
Contraction scheme used                     ... SEGMENTED contraction
Coulomb Range Separation                    ... NOT USED
Exchange Range Separation                   ... NOT USED
Finite Nucleus Model                        ... NOT USED
Auxiliary Coulomb fitting basis             ... AVAILABLE
   # of basis functions in Aux-J            ...   1335
   # of shells in Aux-J                     ...    345
   Maximum angular momentum in Aux-J        ...      4
Auxiliary J/K fitting basis                 ... NOT available
Auxiliary Correlation fitting basis         ... AVAILABLE
   # of basis functions in Aux-C            ...   2296
   # of shells in Aux-C                     ...    500
   Maximum angular momentum in Aux-C        ...      5
Auxiliary 'external' fitting basis          ... NOT available
Integral threshold                          ...     1.000000e-10
Primitive cut-off                           ...     1.000000e-11
Primitive pair pre-selection threshold      ...     1.000000e-11

Calculating pre-screening integrals         ... done (  0.1 sec) Dimension = 211
Organizing shell pair data                  ... done (  0.7 sec)
Shell pair information
Total number of shell pairs                 ...     22366
Shell pairs after pre-screening             ...     17802
Total number of primitive shell pairs       ...     59609
Primitive shell pairs kept                  ...     34344
          la=0 lb=0:   2791 shell pairs
          la=1 lb=0:   4025 shell pairs
          la=1 lb=1:   1543 shell pairs
          la=2 lb=0:   3537 shell pairs
          la=2 lb=1:   2500 shell pairs
          la=2 lb=2:   1024 shell pairs
          la=3 lb=0:    936 shell pairs
          la=3 lb=1:    716 shell pairs
          la=3 lb=2:    629 shell pairs
          la=3 lb=3:    101 shell pairs

Calculating one electron integrals          ... done (  0.0 sec)
Calculating ECP integrals                   ... done ( 11.9 sec)
Calculating RI/J V-Matrix + Cholesky decomp.... done (  0.1 sec)
Calculating RI/C V-Matrix + Cholesky decomp.... done (  0.3 sec)
Calculating Nuclear repulsion               ... done (  0.0 sec) ENN=   5652.222803884474 Eh

SHARK setup successfully completed in  13.6 seconds

Maximum memory used throughout the entire GTOINT-calculation: 37.9 MB


           ************************************************************
           *        Program running with 16 parallel MPI-processes    *
           *              working on a common directory               *
           ************************************************************
-------------------------------------------------------------------------------
                                 ORCA SCF
-------------------------------------------------------------------------------

------------
SCF SETTINGS
------------
Hamiltonian:
 Ab initio Hamiltonian  Method          .... Hartree-Fock(GTOs)
 RI-approximation to the Coulomb term is turned on
   Number of AuxJ basis functions       .... 1335
   RIJ-COSX (HFX calculated with COS-X)).... on


General Settings:
 Integral files         IntName         .... casscf
 Hartree-Fock type      HFTyp           .... CASSCF
 Total Charge           Charge          ....    0
 Multiplicity           Mult            ....    6
 Number of Electrons    NEL             ....  291
 Basis Dimension        Dim             ....  605
 Nuclear Repulsion      ENuc            ....   5652.2228038845 Eh


Diagonalization of the overlap matrix:
Smallest eigenvalue                        ... 3.744e-04
Time for diagonalization                   ...    0.103 sec
Threshold for overlap eigenvalues          ... 1.000e-08
Number of eigenvalues below threshold      ... 0
Time for construction of square roots      ...    0.063 sec
Total time needed                          ...    0.169 sec

---------------------
INITIAL GUESS: MOREAD
---------------------
Guess MOs are being read from file: pbe.qro
Input Geometry matches current geometry (good)
Input basis set matches current basis set (good)
MOs were renormalized
Gram-Schmidt orthogonalization of all MOs with pivot on actives
                      ------------------
                      INITIAL GUESS DONE (   7.7 sec)
                      ------------------
--------------------
COSX GRID GENERATION
--------------------

GRIDX 1
-------
General Integration Accuracy     IntAcc      ... 3.816
Radial Grid Type                 RadialGrid  ... OptM3 with GC (2021)
Angular Grid (max. ang.)         AngularGrid ... 1 (Lebedev-50)
Angular grid pruning method      GridPruning ... 4 (adaptive)
Weight generation scheme         WeightScheme... Becke
Basis function cutoff            BFCut       ... 1.0000e-10
Integration weight cutoff        WCut        ... 1.0000e-14
Angular grids for H and He will be reduced by one unit
Partially contracted basis set               ... on
Rotationally invariant grid construction     ... off

Total number of grid points                  ...    17299
Total number of batches                      ...      279
Average number of points per batch           ...       62
Average number of grid points per atom       ...     1153
UseSFitting                                  ... on

GRIDX 2
-------
General Integration Accuracy     IntAcc      ... 4.020
Radial Grid Type                 RadialGrid  ... OptM3 with GC (2021)
Angular Grid (max. ang.)         AngularGrid ... 2 (Lebedev-110)
Angular grid pruning method      GridPruning ... 4 (adaptive)
Weight generation scheme         WeightScheme... Becke
Basis function cutoff            BFCut       ... 1.0000e-10
Integration weight cutoff        WCut        ... 1.0000e-14
Angular grids for H and He will be reduced by one unit
Partially contracted basis set               ... on
Rotationally invariant grid construction     ... off

Total number of grid points                  ...    52578
Total number of batches                      ...      830
Average number of points per batch           ...       63
Average number of grid points per atom       ...     3505
UseSFitting                                  ... on

GRIDX 3
-------
General Integration Accuracy     IntAcc      ... 4.338
Radial Grid Type                 RadialGrid  ... OptM3 with GC (2021)
Angular Grid (max. ang.)         AngularGrid ... 3 (Lebedev-194)
Angular grid pruning method      GridPruning ... 4 (adaptive)
Weight generation scheme         WeightScheme... Becke
Basis function cutoff            BFCut       ... 1.0000e-10
Integration weight cutoff        WCut        ... 1.0000e-14
Angular grids for H and He will be reduced by one unit
Partially contracted basis set               ... on
Rotationally invariant grid construction     ... off

Total number of grid points                  ...    95685
Total number of batches                      ...     1504
Average number of points per batch           ...       63
Average number of grid points per atom       ...     6379
UseSFitting                                  ... on

Time for X-Grid setup             =    1.309 sec



 ... the calculation is a CASSCF calculation -I'm leaving here GOOD LUCK!!!



           ************************************************************
           *        Program running with 16 parallel MPI-processes    *
           *              working on a common directory               *
           ************************************************************
-------------------------------------------------------------------------------
                              ORCA-CASSCF
-------------------------------------------------------------------------------

Setting up the integral package       ... done
Setting up the integral package (RI)  ... done
Building the CAS space                ... done (1 configurations for Mult=6)
Building the CAS space                ... done (21 configurations for Mult=4)

SYSTEM-SPECIFIC SETTINGS:
Number of active electrons          ...    5
Number of active orbitals           ...    5
Total number of electrons           ...  291
Total number of orbitals            ...  605
Total number aux. functions         ... 2296

Determined orbital ranges:
   Internal       0 -  142 ( 143 orbitals)
   Active       143 -  147 (   5 orbitals)
   External     148 -  604 ( 457 orbitals)
Number of rotation parameters      ...  68351

CI-STEP:
CI strategy                         ... General CI
Number of multiplicity blocks       ...    2
BLOCK  1 WEIGHT=   0.5000
  Multiplicity                      ...    6
  #(Configurations)                 ...    1
  #(CSFs)                           ...    1
  #(Roots)                          ...    1
    ROOT=0 WEIGHT=    0.500000

BLOCK  2 WEIGHT=   0.5000
  Multiplicity                      ...    4
  #(Configurations)                 ...   21
  #(CSFs)                           ...   24
  #(Roots)                          ...   24
    ROOT=0 WEIGHT=    0.020833
    ROOT=1 WEIGHT=    0.020833
    ROOT=2 WEIGHT=    0.020833
    ROOT=3 WEIGHT=    0.020833
    ROOT=4 WEIGHT=    0.020833
    ROOT=5 WEIGHT=    0.020833
    ROOT=6 WEIGHT=    0.020833
    ROOT=7 WEIGHT=    0.020833
    ROOT=8 WEIGHT=    0.020833
    ROOT=9 WEIGHT=    0.020833
    ROOT=10 WEIGHT=    0.020833
    ROOT=11 WEIGHT=    0.020833
    ROOT=12 WEIGHT=    0.020833
    ROOT=13 WEIGHT=    0.020833
    ROOT=14 WEIGHT=    0.020833
    ROOT=15 WEIGHT=    0.020833
    ROOT=16 WEIGHT=    0.020833
    ROOT=17 WEIGHT=    0.020833
    ROOT=18 WEIGHT=    0.020833
    ROOT=19 WEIGHT=    0.020833
    ROOT=20 WEIGHT=    0.020833
    ROOT=21 WEIGHT=    0.020833
    ROOT=22 WEIGHT=    0.020833
    ROOT=23 WEIGHT=    0.020833

  PrintLevel                        ...    1
  N(GuessMat)                       ...       512
  MaxDim(CI)                        ...        10
  MaxIter(CI)                       ...        64
  Energy Tolerance CI               ...  1.00e-08
  Residual Tolerance CI             ...  1.00e-08
  Shift(CI)                         ...  1.00e-04

INTEGRAL-TRANSFORMATION-STEP:
  Algorithm                         ... RI-MO

ORBITAL-IMPROVEMENT-STEP:
  Algorithm                         ... SuperCI(PT)
  Default Parametrization           ... CAYLEY
  Act-Act rotations                 ... depends on algorithm used

  Note: SuperCI(PT) will ignore FreezeIE, FreezeAct and FreezeGrad. In general Default settings are encouraged.
        In conjunction with ShiftUp, ShiftDn or GradScaling the performance of SuperCI(PT) is less optimal.  

  MaxRot                            ... 2.00e-01 
  Max. no of vectors (DIIS)         ... 15
  DThresh (cut-off) metric          ... 1.00e-06
  Switch step at gradient           ...  3.00e-02 
  Switch step at iteration          ...        50   
  Switch step to                    ... SuperCI(PT)    

SCF-SETTINGS:
  Incremental                       ... off
  RIJCOSX approximation             ... on
  UseFinalGrid                      ... on
  RI-JK approximation               ... off
  AO integral handling              ... DIRECT
  Integral Neglect Thresh           ...  1.00e-10
  Primitive cutoff TCut             ...  1.00e-11
  Energy convergence tolerance      ...  1.00e-07
  Orbital gradient convergence      ...  1.00e-03
  Max. number of iterations         ...        75  


FINAL ORBITALS:
  Active   Orbitals                 ... natural 
  Internal Orbitals                 ... canonical 
  External Orbitals                 ... canonical 

------------------
CAS-SCF ITERATIONS
------------------


MACRO-ITERATION   1: 
   --- Inactive Energy E0 = -3028.04858198 Eh
CI-ITERATION   0: 
 -3036.786278069   0.000000000000 (    0.00)
   CI-PROBLEM SOLVED
   DENSITIES MADE
CI-ITERATION   0: 
 -3036.684455519   0.000000000000 (    0.00)
 -3036.681953547   0.000000000000
 -3036.681498999   0.000000000000
 -3036.680815368   0.000000000000
 -3036.679699557   0.000000000000
 -3036.679188725   0.000000000000
 -3036.678519839   0.000000000000
 -3036.678361071   0.000000000000
 -3036.678180819   0.000000000000
 -3036.662124617   0.000000000000
 -3036.661568021   0.000000000000
 -3036.660133184   0.000000000000
 -3036.654722750   0.000000000000
 -3036.654590645   0.000000000000
 -3036.653109658   0.000000000000
 -3036.652093977   0.000000000000
 -3036.651871362   0.000000000000
 -3036.612014486   0.000000000000
 -3036.608048816   0.000000000000
 -3036.607608287   0.000000000000
 -3036.605287298   0.000000000000
 -3036.604052268   0.000000000000
 -3036.603611721   0.000000000000
 -3036.601590299   0.000000000000
   CI-PROBLEM SOLVED
   DENSITIES MADE

                 <<<<<<<<<<<<<<<<<<INITIAL CI STATE CHECK>>>>>>>>>>>>>>>>>>

BLOCK  1 MULT= 6 NROOTS= 1 
ROOT   0:  E=   -3036.7862780688 Eh
      1.00000 [     0]: 11111

BLOCK  2 MULT= 4 NROOTS=24 
ROOT   0:  E=   -3036.6844555188 Eh
      0.71515 [     0]: 21110
      0.11388 [    20]: 01112
      0.10167 [     9]: 11120
      0.03427 [    11]: 11102
      0.02312 [     8]: 11201
      0.00498 [    18]: 01211
      0.00419 [     2]: 21011
ROOT   1:  E=   -3036.6819535474 Eh  0.068 eV    549.1 cm**-1
      0.36149 [     7]: 11210
      0.24730 [     1]: 21101
      0.16876 [    13]: 11012
      0.12492 [    10]: 11111
      0.07931 [    19]: 01121
      0.01329 [    14]: 10211
      0.00312 [     6]: 12011
ROOT   2:  E=   -3036.6814989991 Eh  0.080 eV    648.9 cm**-1
      0.77980 [    10]: 11111
      0.04727 [    14]: 10211
      0.04253 [     1]: 21101
      0.04110 [     6]: 12011
      0.03293 [     7]: 11210
      0.03054 [    19]: 01121
      0.01428 [    13]: 11012
      0.00751 [     4]: 12110
      0.00391 [    16]: 10112
ROOT   3:  E=   -3036.6808153685 Eh  0.099 eV    798.9 cm**-1
      0.23241 [     2]: 21011
      0.14133 [     9]: 11120
      0.13224 [     8]: 11201
      0.13001 [    18]: 01211
      0.12321 [    12]: 11021
      0.11296 [    11]: 11102
      0.04003 [     5]: 12101
      0.03480 [     0]: 21110
      0.01915 [    17]: 02111
      0.01436 [     3]: 20111
      0.01019 [    20]: 01112
      0.00904 [    15]: 10121
ROOT   4:  E=   -3036.6796995565 Eh  0.129 eV   1043.8 cm**-1
      0.63833 [    10]: 11111
      0.18965 [     4]: 12110
      0.15374 [    16]: 10112
      0.00708 [    13]: 11012
      0.00466 [     6]: 12011
      0.00308 [    19]: 01121
ROOT   5:  E=   -3036.6791887247 Eh  0.143 eV   1155.9 cm**-1
      0.23534 [     8]: 11201
      0.16011 [     3]: 20111
      0.15383 [    12]: 11021
      0.13625 [     5]: 12101
      0.09733 [     2]: 21011
      0.08816 [    17]: 02111
      0.05252 [    15]: 10121
      0.04619 [    18]: 01211
      0.01315 [     0]: 21110
      0.00780 [     9]: 11120
      0.00602 [    20]: 01112
      0.00266 [    11]: 11102
ROOT   6:  E=   -3036.6785198386 Eh  0.162 eV   1302.7 cm**-1
      0.38423 [     5]: 12101
      0.22602 [    15]: 10121
      0.11164 [    11]: 11102
      0.07920 [     3]: 20111
      0.07402 [    17]: 02111
      0.07272 [     9]: 11120
      0.02869 [     0]: 21110
      0.00926 [    20]: 01112
      0.00659 [    12]: 11021
      0.00367 [    18]: 01211
      0.00257 [     8]: 11201
ROOT   7:  E=   -3036.6783610715 Eh  0.166 eV   1337.6 cm**-1
      0.44279 [    10]: 11111
      0.26656 [    14]: 10211
      0.24726 [     6]: 12011
      0.02225 [     7]: 11210
      0.01311 [    13]: 11012
      0.00438 [    16]: 10112
      0.00270 [     4]: 12110
ROOT   8:  E=   -3036.6781808188 Eh  0.171 eV   1377.1 cm**-1
      0.58857 [    10]: 11111
      0.14051 [     1]: 21101
      0.08682 [     6]: 12011
      0.06359 [    19]: 01121
      0.05554 [    14]: 10211
      0.02235 [     4]: 12110
      0.01908 [    16]: 10112
      0.01737 [    13]: 11012
      0.00574 [     7]: 11210
ROOT   9:  E=   -3036.6621246172 Eh  0.608 eV   4901.1 cm**-1
      0.28657 [    13]: 11012
      0.25351 [    14]: 10211
      0.18543 [     6]: 12011
      0.09372 [    19]: 01121
      0.08028 [     1]: 21101
      0.05538 [    10]: 11111
      0.03530 [     7]: 11210
      0.00843 [    16]: 10112
ROOT  10:  E=   -3036.6615680211 Eh  0.623 eV   5023.2 cm**-1
      0.28122 [    15]: 10121
      0.20195 [    11]: 11102
      0.13717 [    12]: 11021
      0.12468 [    20]: 01112
      0.06566 [     5]: 12101
      0.04476 [     8]: 11201
      0.03970 [     2]: 21011
      0.03264 [    18]: 01211
      0.02772 [     9]: 11120
      0.02425 [     3]: 20111
      0.01528 [     0]: 21110
      0.00490 [    17]: 02111
ROOT  11:  E=   -3036.6601331836 Eh  0.662 eV   5338.1 cm**-1
      0.47358 [    20]: 01112
      0.12093 [    18]: 01211
      0.11353 [    15]: 10121
      0.10079 [     5]: 12101
      0.07331 [     0]: 21110
      0.03633 [     3]: 20111
      0.02157 [    17]: 02111
      0.01787 [     8]: 11201
      0.01562 [    12]: 11021
      0.00993 [    11]: 11102
      0.00909 [     9]: 11120
      0.00734 [     2]: 21011
ROOT  12:  E=   -3036.6547227499 Eh  0.809 eV   6525.6 cm**-1
      0.21449 [     7]: 11210
      0.17054 [    10]: 11111
      0.16213 [     6]: 12011
      0.11516 [     1]: 21101
      0.08608 [    13]: 11012
      0.08435 [    19]: 01121
      0.06042 [    14]: 10211
      0.05124 [     4]: 12110
      0.03786 [    16]: 10112
      0.00395 [     9]: 11120
      0.00279 [     2]: 21011
ROOT  13:  E=   -3036.6545906454 Eh  0.813 eV   6554.6 cm**-1
      0.22749 [     9]: 11120
      0.15744 [     2]: 21011
      0.12147 [    11]: 11102
      0.10857 [    18]: 01211
      0.09603 [     8]: 11201
      0.07510 [    20]: 01112
      0.07460 [     3]: 20111
      0.05275 [    17]: 02111
      0.03661 [     5]: 12101
      0.01770 [     0]: 21110
      0.01040 [    12]: 11021
      0.00414 [    15]: 10121
      0.00350 [     7]: 11210
      0.00341 [     6]: 12011
      0.00281 [    10]: 11111
ROOT  14:  E=   -3036.6531096580 Eh  0.853 eV   6879.6 cm**-1
      0.84016 [    10]: 11111
      0.05105 [     4]: 12110
      0.04173 [    16]: 10112
      0.03902 [    14]: 10211
      0.01027 [    19]: 01121
      0.00995 [    13]: 11012
      0.00403 [     7]: 11210
      0.00333 [     6]: 12011
ROOT  15:  E=   -3036.6520939766 Eh  0.881 eV   7102.5 cm**-1
      0.35200 [    10]: 11111
      0.25243 [     4]: 12110
      0.15843 [    16]: 10112
      0.09899 [    19]: 01121
      0.09341 [     1]: 21101
      0.02886 [     7]: 11210
      0.01097 [     6]: 12011
      0.00413 [    14]: 10211
ROOT  16:  E=   -3036.6518713617 Eh  0.887 eV   7151.4 cm**-1
      0.24700 [     3]: 20111
      0.18134 [    17]: 02111
      0.13636 [     2]: 21011
      0.12801 [     8]: 11201
      0.11253 [    12]: 11021
      0.06888 [    15]: 10121
      0.05404 [    18]: 01211
      0.03713 [     5]: 12101
      0.01551 [     9]: 11120
      0.00772 [    20]: 01112
      0.00616 [    11]: 11102
      0.00506 [     0]: 21110
ROOT  17:  E=   -3036.6120144856 Eh  1.971 eV  15899.0 cm**-1
      0.28140 [    12]: 11021
      0.22754 [     9]: 11120
      0.21630 [    11]: 11102
      0.19289 [     8]: 11201
      0.04352 [    18]: 01211
      0.02397 [     2]: 21011
      0.00547 [    20]: 01112
      0.00379 [    15]: 10121
ROOT  18:  E=   -3036.6080488163 Eh  2.079 eV  16769.3 cm**-1
      0.38618 [    13]: 11012
      0.28062 [     7]: 11210
      0.09979 [    19]: 01121
      0.09488 [     6]: 12011
      0.08574 [    14]: 10211
      0.04601 [     1]: 21101
      0.00330 [    16]: 10112
ROOT  19:  E=   -3036.6076082869 Eh  2.091 eV  16866.0 cm**-1
      0.22454 [    15]: 10121
      0.18248 [     5]: 12101
      0.14720 [    11]: 11102
      0.14224 [     9]: 11120
      0.05419 [    18]: 01211
      0.05333 [    20]: 01112
      0.04427 [    12]: 11021
      0.04235 [     8]: 11201
      0.03812 [     2]: 21011
      0.03636 [     0]: 21110
      0.02063 [    17]: 02111
      0.01324 [     3]: 20111
ROOT  20:  E=   -3036.6052872985 Eh  2.154 eV  17375.4 cm**-1
      0.40636 [    16]: 10112
      0.30547 [     4]: 12110
      0.13241 [    19]: 01121
      0.06896 [     1]: 21101
      0.03828 [     6]: 12011
      0.03129 [    14]: 10211
      0.00875 [     7]: 11210
      0.00809 [    13]: 11012
ROOT  21:  E=   -3036.6040522679 Eh  2.188 eV  17646.5 cm**-1
      0.29843 [    19]: 01121
      0.16007 [    16]: 10112
      0.15993 [     1]: 21101
      0.13942 [    14]: 10211
      0.11671 [     6]: 12011
      0.11201 [     4]: 12110
ROOT  22:  E=   -3036.6036117211 Eh  2.200 eV  17743.2 cm**-1
      0.24738 [    18]: 01211
      0.16154 [     2]: 21011
      0.11708 [    20]: 01112
      0.10821 [    12]: 11021
      0.08842 [    17]: 02111
      0.07778 [     8]: 11201
      0.05632 [     0]: 21110
      0.05388 [     3]: 20111
      0.03021 [    11]: 11102
      0.01895 [     9]: 11120
      0.01551 [    15]: 10121
      0.01260 [     5]: 12101
      0.00370 [    19]: 01121
ROOT  23:  E=   -3036.6015902994 Eh  2.255 eV  18186.8 cm**-1
      0.44629 [    17]: 02111
      0.29351 [     3]: 20111
      0.14954 [    18]: 01211
      0.09666 [     2]: 21011
      0.00402 [     8]: 11201
      0.00333 [     9]: 11120
      0.00308 [    12]: 11021

                 <<<<<<<<<<<<<<<<<<INITIAL CI STATE CHECK>>>>>>>>>>>>>>>>>>

   E(CAS)= -3036.718453635 Eh DE=    0.000000e+00
   --- Energy gap subspaces: Ext-Act = 0.077   Act-Int = 0.128
   N(occ)=  1.00000 1.00000 1.00000 1.00000 1.00000
   ||g|| =     2.593848e+00 Max(G)=    5.039680e-01 Rot=522,1
   --- Orbital Update [SuperCI(PT)]
   --- Canonicalize Internal Space
   --- Canonicalize External Space
   --- SX_PT (Skipped TA=0 IT=0): ||X|| =      0.493727847 Max(X)(143,83) =     -0.087185987 
   --- SFit(Active Orbitals)

MACRO-ITERATION   2: 
   --- Inactive Energy E0 = -3027.01326071 Eh
CI-ITERATION   0: 
 -3037.201106001   0.000000000000 (    0.00)
   CI-PROBLEM SOLVED
   DENSITIES MADE
CI-ITERATION   0: 
 -3037.082081019   0.000000000000 (    0.00)
 -3037.078389947   0.000000000000
 -3037.077673181   0.000000000000
 -3037.076905149   0.000000000000
 -3037.076610055   0.000000000000
 -3037.076358244   0.000000000000
 -3037.075830261   0.000000000000
 -3037.075550982   0.000000000000
 -3037.075348387   0.000000000000
 -3037.055487313   0.000000000000
 -3037.054401361   0.000000000000
 -3037.052497416   0.000000000000
 -3037.046579739   0.000000000000
 -3037.046252030   0.000000000000
 -3037.045507642   0.000000000000
 -3037.044665547   0.000000000000
 -3037.044427930   0.000000000000
 -3036.993084901   0.000000000000
 -3036.990826046   0.000000000000
 -3036.990564483   0.000000000000
 -3036.989027636   0.000000000000
 -3036.988728493   0.000000000000
 -3036.988174467   0.000000000000
 -3036.988134099   0.000000000000
   CI-PROBLEM SOLVED
   DENSITIES MADE
   E(CAS)= -3037.121659382 Eh DE=   -4.032057e-01
   --- Energy gap subspaces: Ext-Act = 0.178   Act-Int = 0.024
   N(occ)=  1.00000 1.00000 1.00000 1.00000 1.00000
   ||g|| =     8.588075e-01 Max(G)=    5.804372e-02 Rot=148,143
   --- Orbital Update [SuperCI(PT)]
   --- Canonicalize Internal Space
   --- Canonicalize External Space
   --- SX_PT (Skipped TA=0 IT=0): ||X|| =      0.182750188 Max(X)(148,143) =      0.045961416 
   --- SFit(Active Orbitals)

MACRO-ITERATION   3: 
   --- Inactive Energy E0 = -3026.99221721 Eh
CI-ITERATION   0: 
 -3037.249532825   0.000000000000 (    0.00)
   CI-PROBLEM SOLVED
   DENSITIES MADE
CI-ITERATION   0: 
 -3037.119475263   0.000000000000 (    0.00)
 -3037.116224049   0.000000000000
 -3037.115563268   0.000000000000
 -3037.115113925   0.000000000000
 -3037.114914731   0.000000000000
 -3037.114793630   0.000000000000
 -3037.114331897   0.000000000000
 -3037.114155141   0.000000000000
 -3037.114046472   0.000000000000
 -3037.092499650   0.000000000000
 -3037.091967457   0.000000000000
 -3037.089542681   0.000000000000
 -3037.082310723   0.000000000000
 -3037.082133083   0.000000000000
 -3037.081754116   0.000000000000
 -3037.081011404   0.000000000000
 -3037.080631414   0.000000000000
 -3037.024492979   0.000000000000
 -3037.022817787   0.000000000000
 -3037.022569706   0.000000000000
 -3037.021395682   0.000000000000
 -3037.020807876   0.000000000000
 -3037.020692650   0.000000000000
 -3037.019989602   0.000000000000
   CI-PROBLEM SOLVED
   DENSITIES MADE
   E(CAS)= -3037.163792145 Eh DE=   -4.213276e-02
   --- Energy gap subspaces: Ext-Act = 0.071   Act-Int = 0.138
   N(occ)=  1.00000 1.00000 1.00000 1.00000 1.00000
   ||g|| =     5.223781e-01 Max(G)=    1.063178e-01 Rot=522,19
   --- Orbital Update [SuperCI(PT)]
   --- Canonicalize Internal Space
   --- Canonicalize External Space
   --- SX_PT (Skipped TA=0 IT=0): ||X|| =      0.119940370 Max(X)(147,140) =      0.035279428 
   --- SFit(Active Orbitals)

MACRO-ITERATION   4: 
   --- Inactive Energy E0 = -3026.68734694 Eh
CI-ITERATION   0: 
 -3037.265335564   0.000000000000 (    0.00)
   CI-PROBLEM SOLVED
   DENSITIES MADE
CI-ITERATION   0: 
 -3037.134186739   0.000000000000 (    0.00)
 -3037.130618354   0.000000000000
 -3037.130168440   0.000000000000
 -3037.129193673   0.000000000000
 -3037.129097501   0.000000000000
 -3037.129023663   0.000000000000
 -3037.128727090   0.000000000000
 -3037.128561095   0.000000000000
 -3037.128449891   0.000000000000
 -3037.106452113   0.000000000000
 -3037.105846749   0.000000000000
 -3037.103021820   0.000000000000
 -3037.096126616   0.000000000000
 -3037.095871963   0.000000000000
 -3037.095793981   0.000000000000
 -3037.094772901   0.000000000000
 -3037.094761393   0.000000000000
 -3037.036715710   0.000000000000
 -3037.035578306   0.000000000000
 -3037.035433041   0.000000000000
 -3037.034312781   0.000000000000
 -3037.034261378   0.000000000000
 -3037.034044241   0.000000000000
 -3037.033868932   0.000000000000
   CI-PROBLEM SOLVED
   DENSITIES MADE
   E(CAS)= -3037.178602956 Eh DE=   -1.481081e-02
   --- Energy gap subspaces: Ext-Act = 0.123   Act-Int = 0.082
   N(occ)=  1.00000 1.00000 1.00000 1.00000 1.00000
   ||g|| =     8.702382e-02 Max(G)=    9.838537e-03 Rot=530,143
   --- Orbital Update [SuperCI(PT)]
   --- Canonicalize Internal Space
   --- Canonicalize External Space
   --- SX_PT (Skipped TA=0 IT=0): ||X|| =      0.021517595 Max(X)(152,141) =     -0.007440072 
   --- SFit(Active Orbitals)

MACRO-ITERATION   5: 
   --- Inactive Energy E0 = -3026.64780803 Eh
CI-ITERATION   0: 
 -3037.266278586   0.000000000000 (    0.00)
   CI-PROBLEM SOLVED
   DENSITIES MADE
CI-ITERATION   0: 
 -3037.134224187   0.000000000000 (    0.00)
 -3037.130703682   0.000000000000
 -3037.130312657   0.000000000000
 -3037.129317388   0.000000000000
 -3037.129207338   0.000000000000
 -3037.129138804   0.000000000000
 -3037.128882001   0.000000000000
 -3037.128715138   0.000000000000
 -3037.128615767   0.000000000000
 -3037.106448568   0.000000000000
 -3037.105880313   0.000000000000
 -3037.103020012   0.000000000000
 -3037.096020062   0.000000000000
 -3037.095804140   0.000000000000
 -3037.095737189   0.000000000000
 -3037.094736231   0.000000000000
 -3037.094693227   0.000000000000
 -3037.036126068   0.000000000000
 -3037.035105693   0.000000000000
 -3037.034989360   0.000000000000
 -3037.033948090   0.000000000000
 -3037.033863739   0.000000000000
 -3037.033693136   0.000000000000
 -3037.033617288   0.000000000000
   CI-PROBLEM SOLVED
   DENSITIES MADE
   E(CAS)= -3037.179030961 Eh DE=   -4.280048e-04
   --- Energy gap subspaces: Ext-Act = 0.120   Act-Int = 0.085
   N(occ)=  1.00000 1.00000 1.00000 1.00000 1.00000
   ||g|| =     6.362545e-02 Max(G)=    4.943497e-03 Rot=522,19
   --- Orbital Update [SuperCI(PT)]
   --- Canonicalize Internal Space
   --- Canonicalize External Space
   --- SX_PT (Skipped TA=0 IT=0): ||X|| =      0.018748624 Max(X)(153,142) =      0.006415525 
   --- SFit(Active Orbitals)

MACRO-ITERATION   6: 
   --- Inactive Energy E0 = -3026.64911152 Eh
CI-ITERATION   0: 
 -3037.266621486   0.000000000000 (    0.00)
   CI-PROBLEM SOLVED
   DENSITIES MADE
CI-ITERATION   0: 
 -3037.134293175   0.000000000000 (    0.00)
 -3037.130844210   0.000000000000
 -3037.130471406   0.000000000000
 -3037.129466008   0.000000000000
 -3037.129359069   0.000000000000
 -3037.129290458   0.000000000000
 -3037.129049464   0.000000000000
 -3037.128898129   0.000000000000
 -3037.128798630   0.000000000000
 -3037.106617649   0.000000000000
 -3037.106046045   0.000000000000
 -3037.103215631   0.000000000000
 -3037.096122278   0.000000000000
 -3037.095912262   0.000000000000
 -3037.095846087   0.000000000000
 -3037.094882689   0.000000000000
 -3037.094804388   0.000000000000
 -3037.036104347   0.000000000000
 -3037.035153225   0.000000000000
 -3037.035033500   0.000000000000
 -3037.034023634   0.000000000000
 -3037.033955901   0.000000000000
 -3037.033745816   0.000000000000
 -3037.033699632   0.000000000000
   CI-PROBLEM SOLVED
   DENSITIES MADE
   E(CAS)= -3037.179261444 Eh DE=   -2.304824e-04
   --- Energy gap subspaces: Ext-Act = 0.119   Act-Int = 0.086
   N(occ)=  1.00000 1.00000 1.00000 1.00000 1.00000
   ||g|| =     2.144108e-02 Max(G)=    4.561277e-03 Rot=522,19
   --- Orbital Update [SuperCI(PT)]
   --- Canonicalize Internal Space
   --- Canonicalize External Space
   --- SX_PT (Skipped TA=0 IT=0): ||X|| =      0.007301141 Max(X)(152,141) =      0.003632937 
   --- SFit(Active Orbitals)

MACRO-ITERATION   7: 
   --- Inactive Energy E0 = -3026.63436284 Eh
CI-ITERATION   0: 
 -3037.266653948   0.000000000000 (    0.00)
   CI-PROBLEM SOLVED
   DENSITIES MADE
CI-ITERATION   0: 
 -3037.134319120   0.000000000000 (    0.00)
 -3037.130898811   0.000000000000
 -3037.130537725   0.000000000000
 -3037.129511441   0.000000000000
 -3037.129403634   0.000000000000
 -3037.129338814   0.000000000000
 -3037.129105778   0.000000000000
 -3037.128962558   0.000000000000
 -3037.128858453   0.000000000000
 -3037.106677389   0.000000000000
 -3037.106097906   0.000000000000
 -3037.103290325   0.000000000000
 -3037.096176841   0.000000000000
 -3037.095965957   0.000000000000
 -3037.095894469   0.000000000000
 -3037.094953040   0.000000000000
 -3037.094857338   0.000000000000
 -3037.036113361   0.000000000000
 -3037.035207623   0.000000000000
 -3037.035092613   0.000000000000
 -3037.034121067   0.000000000000
 -3037.034021986   0.000000000000
 -3037.033816363   0.000000000000
 -3037.033804790   0.000000000000
   CI-PROBLEM SOLVED
   DENSITIES MADE
   E(CAS)= -3037.179306711 Eh DE=   -4.526794e-05
   --- Energy gap subspaces: Ext-Act = 0.122   Act-Int = 0.084
   N(occ)=  1.00000 1.00000 1.00000 1.00000 1.00000
   ||g|| =     1.261587e-02 Max(G)=   -1.552636e-03 Rot=522,19
   --- Orbital Update [SuperCI(PT)]
   --- Canonicalize Internal Space
   --- Canonicalize External Space
   --- SX_PT (Skipped TA=0 IT=0): ||X|| =      0.004227887 Max(X)(149,139) =      0.001666615 
   --- SFit(Active Orbitals)

MACRO-ITERATION   8: 
   --- Inactive Energy E0 = -3026.63749885 Eh
CI-ITERATION   0: 
 -3037.266683409   0.000000000000 (    0.00)
   CI-PROBLEM SOLVED
   DENSITIES MADE
CI-ITERATION   0: 
 -3037.134317126   0.000000000000 (    0.00)
 -3037.130909188   0.000000000000
 -3037.130552308   0.000000000000
 -3037.129524021   0.000000000000
 -3037.129413607   0.000000000000
 -3037.129350305   0.000000000000
 -3037.129118760   0.000000000000
 -3037.128975068   0.000000000000
 -3037.128869735   0.000000000000
 -3037.106681982   0.000000000000
 -3037.106101290   0.000000000000
 -3037.103310986   0.000000000000
 -3037.096184177   0.000000000000
 -3037.095976954   0.000000000000
 -3037.095897037   0.000000000000
 -3037.094958675   0.000000000000
 -3037.094865738   0.000000000000
 -3037.036097596   0.000000000000
 -3037.035201371   0.000000000000
 -3037.035093932   0.000000000000
 -3037.034131772   0.000000000000
 -3037.034012683   0.000000000000
 -3037.033825406   0.000000000000
 -3037.033819610   0.000000000000
   CI-PROBLEM SOLVED
   DENSITIES MADE
   E(CAS)= -3037.179324815 Eh DE=   -1.810394e-05
   --- Energy gap subspaces: Ext-Act = 0.121   Act-Int = 0.084
   N(occ)=  1.00000 1.00000 1.00000 1.00000 1.00000
   ||g|| =     5.958062e-03 Max(G)=   -1.158260e-03 Rot=522,19
   --- Orbital Update [SuperCI(PT)]
   --- Canonicalize Internal Space
   --- Canonicalize External Space
   --- SX_PT (Skipped TA=0 IT=0): ||X|| =      0.002227285 Max(X)(152,141) =      0.000975138 
   --- SFit(Active Orbitals)

MACRO-ITERATION   9: 
   --- Inactive Energy E0 = -3026.63594727 Eh
CI-ITERATION   0: 
 -3037.266695380   0.000000000000 (    0.00)
   CI-PROBLEM SOLVED
   DENSITIES MADE
CI-ITERATION   0: 
 -3037.134322210   0.000000000000 (    0.00)
 -3037.130920247   0.000000000000
 -3037.130563930   0.000000000000
 -3037.129526960   0.000000000000
 -3037.129417017   0.000000000000
 -3037.129354457   0.000000000000
 -3037.129120711   0.000000000000
 -3037.128978976   0.000000000000
 -3037.128871469   0.000000000000
 -3037.106679493   0.000000000000
 -3037.106090408   0.000000000000
 -3037.103313870   0.000000000000
 -3037.096189159   0.000000000000
 -3037.095976911   0.000000000000
 -3037.095898776   0.000000000000
 -3037.094959078   0.000000000000
 -3037.094862680   0.000000000000
 -3037.036091483   0.000000000000
 -3037.035196202   0.000000000000
 -3037.035091402   0.000000000000
 -3037.034126111   0.000000000000
 -3037.034005992   0.000000000000
 -3037.033818241   0.000000000000
 -3037.033810898   0.000000000000
   CI-PROBLEM SOLVED
   DENSITIES MADE
   E(CAS)= -3037.179330746 Eh DE=   -5.930463e-06
   --- Energy gap subspaces: Ext-Act = 0.121   Act-Int = 0.084
   N(occ)=  1.00000 1.00000 1.00000 1.00000 1.00000
   ||g|| =     5.112407e-03 Max(G)=   -4.344078e-04 Rot=152,141
   --- Orbital Update [SuperCI(PT)]
   --- Canonicalize Internal Space
   --- Canonicalize External Space
   --- SX_PT (Skipped TA=0 IT=0): ||X|| =      0.001388515 Max(X)(152,141) =     -0.000482878 
   --- SFit(Active Orbitals)

MACRO-ITERATION  10: 
   --- Inactive Energy E0 = -3026.63882009 Eh
CI-ITERATION   0: 
 -3037.266687817   0.000000000000 (    0.00)
   CI-PROBLEM SOLVED
   DENSITIES MADE
CI-ITERATION   0: 
 -3037.134328904   0.000000000000 (    0.00)
 -3037.130930809   0.000000000000
 -3037.130573933   0.000000000000
 -3037.129535602   0.000000000000
 -3037.129425643   0.000000000000
 -3037.129363110   0.000000000000
 -3037.129128135   0.000000000000
 -3037.128986337   0.000000000000
 -3037.128878139   0.000000000000
 -3037.106685914   0.000000000000
 -3037.106095380   0.000000000000
 -3037.103327373   0.000000000000
 -3037.096202798   0.000000000000
 -3037.095988218   0.000000000000
 -3037.095910594   0.000000000000
 -3037.094968951   0.000000000000
 -3037.094875606   0.000000000000
 -3037.036112045   0.000000000000
 -3037.035213157   0.000000000000
 -3037.035111887   0.000000000000
 -3037.034143598   0.000000000000
 -3037.034022097   0.000000000000
 -3037.033836796   0.000000000000
 -3037.033829167   0.000000000000
   CI-PROBLEM SOLVED
   DENSITIES MADE
   E(CAS)= -3037.179332954 Eh DE=   -2.208170e-06
   --- Energy gap subspaces: Ext-Act = 0.121   Act-Int = 0.084
   N(occ)=  1.00000 1.00000 1.00000 1.00000 1.00000
   ||g|| =     2.403137e-03 Max(G)=    2.271114e-04 Rot=149,65
   --- Orbital Update [SuperCI(PT)]
   --- Canonicalize Internal Space
   --- Canonicalize External Space
   --- SX_PT (Skipped TA=0 IT=0): ||X|| =      0.000727427 Max(X)(153,142) =      0.000252543 
   --- SFit(Active Orbitals)

MACRO-ITERATION  11: 
   --- Inactive Energy E0 = -3026.63714898 Eh
CI-ITERATION   0: 
 -3037.266684146   0.000000000000 (    0.00)
   CI-PROBLEM SOLVED
   DENSITIES MADE
CI-ITERATION   0: 
 -3037.134337951   0.000000000000 (    0.00)
 -3037.130937496   0.000000000000
 -3037.130580247   0.000000000000
 -3037.129539475   0.000000000000
 -3037.129429370   0.000000000000
 -3037.129366884   0.000000000000
 -3037.129130883   0.000000000000
 -3037.128988973   0.000000000000
 -3037.128880524   0.000000000000
 -3037.106686628   0.000000000000
 -3037.106094784   0.000000000000
 -3037.103327158   0.000000000000
 -3037.096209227   0.000000000000
 -3037.095994091   0.000000000000
 -3037.095915580   0.000000000000
 -3037.094972802   0.000000000000
 -3037.094880072   0.000000000000
 -3037.036121045   0.000000000000
 -3037.035218619   0.000000000000
 -3037.035119199   0.000000000000
 -3037.034149776   0.000000000000
 -3037.034026120   0.000000000000
 -3037.033842933   0.000000000000
 -3037.033834973   0.000000000000
   CI-PROBLEM SOLVED
   DENSITIES MADE
   E(CAS)= -3037.179333423 Eh DE=   -4.689700e-07
   --- Energy gap subspaces: Ext-Act = 0.121   Act-Int = 0.084
   N(occ)=  1.00000 1.00000 1.00000 1.00000 1.00000
   ||g|| =     1.498684e-03 Max(G)=   -1.267742e-04 Rot=522,19
   --- Orbital Update [SuperCI(PT)]
   --- Canonicalize Internal Space
   --- Canonicalize External Space
   --- SX_PT (Skipped TA=0 IT=0): ||X|| =      0.000450856 Max(X)(152,141) =      0.000135717 
   --- SFit(Active Orbitals)

MACRO-ITERATION  12: 
   --- Inactive Energy E0 = -3026.63787406 Eh
CI-ITERATION   0: 
 -3037.266685207   0.000000000000 (    0.00)
   CI-PROBLEM SOLVED
   DENSITIES MADE
CI-ITERATION   0: 
 -3037.134338994   0.000000000000 (    0.00)
 -3037.130938824   0.000000000000
 -3037.130581167   0.000000000000
 -3037.129539743   0.000000000000
 -3037.129429771   0.000000000000
 -3037.129367059   0.000000000000
 -3037.129130159   0.000000000000
 -3037.128988328   0.000000000000
 -3037.128880030   0.000000000000
 -3037.106685049   0.000000000000
 -3037.106092317   0.000000000000
 -3037.103325921   0.000000000000
 -3037.096209433   0.000000000000
 -3037.095993876   0.000000000000
 -3037.095915482   0.000000000000
 -3037.094971715   0.000000000000
 -3037.094879256   0.000000000000
 -3037.036123033   0.000000000000
 -3037.035217324   0.000000000000
 -3037.035118438   0.000000000000
 -3037.034146323   0.000000000000
 -3037.034024995   0.000000000000
 -3037.033839610   0.000000000000
 -3037.033832237   0.000000000000
   CI-PROBLEM SOLVED
   DENSITIES MADE
   E(CAS)= -3037.179333626 Eh DE=   -2.028069e-07
   --- Energy gap subspaces: Ext-Act = 0.121   Act-Int = 0.084
   N(occ)=  1.00000 1.00000 1.00000 1.00000 1.00000
   ||g|| =     4.534625e-04 Max(G)=   -4.950591e-05 Rot=522,19
                     ---- THE CAS-SCF GRADIENT HAS CONVERGED ----
                            --- FINALIZING ORBITALS ---
                    ---- DOING ONE FINAL ITERATION FOR PRINTING ----
   --- Forming Natural Orbitals
   --- Canonicalize Internal Space
   --- Canonicalize External Space

MACRO-ITERATION  13: 
   --- Inactive Energy E0 = -3026.63787406 Eh
   --- All densities will be recomputed
CI-ITERATION   0: 
 -3037.266685207   0.000000000000 (    0.00)
   CI-PROBLEM SOLVED
   DENSITIES MADE
CI-ITERATION   0: 
 -3037.134338994   0.000000000000 (    0.00)
 -3037.130938824   0.000000000000
 -3037.130581167   0.000000000000
 -3037.129539743   0.000000000000
 -3037.129429771   0.000000000000
 -3037.129367060   0.000000000000
 -3037.129130159   0.000000000000
 -3037.128988328   0.000000000000
 -3037.128880030   0.000000000000
 -3037.106685049   0.000000000000
 -3037.106092317   0.000000000000
 -3037.103325921   0.000000000000
 -3037.096209433   0.000000000000
 -3037.095993876   0.000000000000
 -3037.095915482   0.000000000000
 -3037.094971715   0.000000000000
 -3037.094879256   0.000000000000
 -3037.036123033   0.000000000000
 -3037.035217324   0.000000000000
 -3037.035118438   0.000000000000
 -3037.034146323   0.000000000000
 -3037.034024996   0.000000000000
 -3037.033839611   0.000000000000
 -3037.033832238   0.000000000000
   CI-PROBLEM SOLVED
   DENSITIES MADE
   E(CAS)= -3037.179333626 Eh DE=   -1.027729e-10
   --- Energy gap subspaces: Ext-Act = 0.109   Act-Int = 0.062
   N(occ)=  1.00000 1.00000 1.00000 1.00000 1.00000
   ||g|| =     4.534625e-04 Max(G)=   -5.074778e-05 Rot=522,19
--------------
CASSCF RESULTS
--------------

Final CASSCF energy       : -3037.179333626 Eh  -82645.8513 eV

----------------
ORBITAL ENERGIES
----------------

  NO   OCC          E(Eh)            E(eV) 
   0   2.0000    -240.559660     -6545.9611 
   1   2.0000     -29.133629      -792.7664 
   2   2.0000     -24.838831      -675.8990 
   3   2.0000     -24.838548      -675.8913 
   4   2.0000     -24.838484      -675.8895 
   5   2.0000      -4.719604      -128.4269 
   6   2.0000      -4.719371      -128.4206 
   7   2.0000      -4.717805      -128.3780 
   8   2.0000      -4.717693      -128.3750 
   9   2.0000      -4.716406      -128.3399 
  10   2.0000      -4.716130      -128.3324 
  11   2.0000      -4.715323      -128.3105 
  12   2.0000      -4.715038      -128.3027 
  13   2.0000      -4.711633      -128.2101 
  14   2.0000      -4.711557      -128.2080 
  15   2.0000      -4.711484      -128.2060 
  16   2.0000      -4.709737      -128.1585 
  17   2.0000      -4.709489      -128.1517 
  18   2.0000      -4.693457      -127.7155 
  19   2.0000      -3.839111      -104.4675 
  20   2.0000      -2.760327       -75.1123 
  21   2.0000      -2.759874       -75.1000 
  22   2.0000      -2.759528       -75.0906 
  23   2.0000      -2.757552       -75.0368 
  24   2.0000      -2.756729       -75.0144 
  25   2.0000      -2.756509       -75.0084 
  26   2.0000      -2.755932       -74.9927 
  27   2.0000      -2.755413       -74.9786 
  28   2.0000      -2.754660       -74.9581 
  29   2.0000      -2.754017       -74.9406 
  30   2.0000      -2.753492       -74.9263 
  31   2.0000      -2.753377       -74.9232 
  32   2.0000      -2.753217       -74.9188 
  33   2.0000      -2.752584       -74.9016 
  34   2.0000      -2.752146       -74.8897 
  35   2.0000      -2.751802       -74.8803 
  36   2.0000      -2.751168       -74.8631 
  37   2.0000      -2.751119       -74.8618 
  38   2.0000      -2.750392       -74.8420 
  39   2.0000      -2.749917       -74.8291 
  40   2.0000      -2.749876       -74.8279 
  41   2.0000      -2.749702       -74.8232 
  42   2.0000      -2.748950       -74.8027 
  43   2.0000      -2.748843       -74.7998 
  44   2.0000      -2.747986       -74.7765 
  45   2.0000      -2.747971       -74.7761 
  46   2.0000      -2.747758       -74.7703 
  47   2.0000      -2.747123       -74.7530 
  48   2.0000      -2.746782       -74.7437 
  49   2.0000      -2.746584       -74.7383 
  50   2.0000      -2.745473       -74.7081 
  51   2.0000      -2.745035       -74.6962 
  52   2.0000      -2.744649       -74.6857 
  53   2.0000      -2.744154       -74.6722 
  54   2.0000      -2.743818       -74.6631 
  55   2.0000      -2.743316       -74.6494 
  56   2.0000      -2.742195       -74.6189 
  57   2.0000      -2.741983       -74.6132 
  58   2.0000      -2.740914       -74.5841 
  59   2.0000      -2.729749       -74.2802 
  60   2.0000      -2.729202       -74.2654 
  61   2.0000      -2.728307       -74.2410 
  62   2.0000      -2.507720       -68.2385 
  63   2.0000      -2.507641       -68.2364 
  64   2.0000      -2.507206       -68.2246 
  65   2.0000      -0.578794       -15.7498 
  66   2.0000      -0.559735       -15.2312 
  67   2.0000      -0.555049       -15.1036 
  68   2.0000      -0.554673       -15.0934 
  69   2.0000      -0.553470       -15.0607 
  70   2.0000      -0.552049       -15.0220 
  71   2.0000      -0.549818       -14.9613 
  72   2.0000      -0.544080       -14.8052 
  73   2.0000      -0.542092       -14.7511 
  74   2.0000      -0.540692       -14.7130 
  75   2.0000      -0.539150       -14.6710 
  76   2.0000      -0.537558       -14.6277 
  77   2.0000      -0.536990       -14.6122 
  78   2.0000      -0.535580       -14.5739 
  79   2.0000      -0.534522       -14.5451 
  80   2.0000      -0.532326       -14.4853 
  81   2.0000      -0.529052       -14.3962 
  82   2.0000      -0.527678       -14.3588 
  83   2.0000      -0.527408       -14.3515 
  84   2.0000      -0.524671       -14.2770 
  85   2.0000      -0.519564       -14.1381 
  86   2.0000      -0.516032       -14.0420 
  87   2.0000      -0.511074       -13.9070 
  88   2.0000      -0.510695       -13.8967 
  89   2.0000      -0.508067       -13.8252 
  90   2.0000      -0.507411       -13.8073 
  91   2.0000      -0.504757       -13.7351 
  92   2.0000      -0.502564       -13.6755 
  93   2.0000      -0.499665       -13.5966 
  94   2.0000      -0.494332       -13.4515 
  95   2.0000      -0.490500       -13.3472 
  96   2.0000      -0.488843       -13.3021 
  97   2.0000      -0.487027       -13.2527 
  98   2.0000      -0.485788       -13.2190 
  99   2.0000      -0.482940       -13.1415 
 100   2.0000      -0.478533       -13.0215 
 101   2.0000      -0.476845       -12.9756 
 102   2.0000      -0.476795       -12.9743 
 103   2.0000      -0.472814       -12.8659 
 104   2.0000      -0.472471       -12.8566 
 105   2.0000      -0.467815       -12.7299 
 106   2.0000      -0.467590       -12.7238 
 107   2.0000      -0.461040       -12.5455 
 108   2.0000      -0.459737       -12.5101 
 109   2.0000      -0.458525       -12.4771 
 110   2.0000      -0.455439       -12.3931 
 111   2.0000      -0.452345       -12.3089 
 112   2.0000      -0.451616       -12.2891 
 113   2.0000      -0.450407       -12.2562 
 114   2.0000      -0.447119       -12.1667 
 115   2.0000      -0.446625       -12.1533 
 116   2.0000      -0.444472       -12.0947 
 117   2.0000      -0.439777       -11.9669 
 118   2.0000      -0.434699       -11.8288 
 119   2.0000      -0.433577       -11.7982 
 120   2.0000      -0.433121       -11.7858 
 121   2.0000      -0.432338       -11.7645 
 122   2.0000      -0.428435       -11.6583 
 123   2.0000      -0.426956       -11.6181 
 124   2.0000      -0.425857       -11.5882 
 125   2.0000      -0.425359       -11.5746 
 126   2.0000      -0.424060       -11.5393 
 127   2.0000      -0.423900       -11.5349 
 128   2.0000      -0.421783       -11.4773 
 129   2.0000      -0.419531       -11.4160 
 130   2.0000      -0.411890       -11.2081 
 131   2.0000      -0.409673       -11.1478 
 132   2.0000      -0.408811       -11.1243 
 133   2.0000      -0.406773       -11.0689 
 134   2.0000      -0.406296       -11.0559 
 135   2.0000      -0.381373       -10.3777 
 136   2.0000      -0.379783       -10.3344 
 137   2.0000      -0.347830        -9.4649 
 138   2.0000      -0.347217        -9.4483 
 139   2.0000      -0.261738        -7.1222 
 140   2.0000      -0.244181        -6.6445 
 141   2.0000      -0.240063        -6.5325 
 142   2.0000      -0.224571        -6.1109 
 143   1.0000      -0.156076        -4.2470 
 144   1.0000      -0.149512        -4.0684 
 145   1.0000      -0.157779        -4.2934 
 146   1.0000      -0.162711        -4.4276 
 147   1.0000      -0.153147        -4.1673 
 148   0.0000      -0.040343        -1.0978 
 149   0.0000      -0.026828        -0.7300 
 150   0.0000      -0.008623        -0.2346 
 151   0.0000       0.001318         0.0359 
 152   0.0000       0.009523         0.2591 
 153   0.0000       0.014249         0.3877 
 154   0.0000       0.032427         0.8824 
 155   0.0000       0.035074         0.9544 
 156   0.0000       0.043022         1.1707 
 157   0.0000       0.043717         1.1896 
 158   0.0000       0.059462         1.6181 
 159   0.0000       0.061110         1.6629 
 160   0.0000       0.071742         1.9522 
 161   0.0000       0.089448         2.4340 
 162   0.0000       0.092539         2.5181 
 163   0.0000       0.095894         2.6094 
 164   0.0000       0.108138         2.9426 
 165   0.0000       0.111479         3.0335 
 166   0.0000       0.114500         3.1157 
 167   0.0000       0.120115         3.2685 
 168   0.0000       0.121240         3.2991 
 169   0.0000       0.125447         3.4136 
 170   0.0000       0.132545         3.6067 
 171   0.0000       0.140582         3.8254 
 172   0.0000       0.142062         3.8657 
 173   0.0000       0.144847         3.9415 
 174   0.0000       0.147327         4.0090 
 175   0.0000       0.150823         4.1041 
 176   0.0000       0.151046         4.1102 
 177   0.0000       0.155082         4.2200 
 178   0.0000       0.155921         4.2428 
 179   0.0000       0.158884         4.3234 
 180   0.0000       0.176445         4.8013 
 181   0.0000       0.179674         4.8892 
 182   0.0000       0.180917         4.9230 
 183   0.0000       0.185687         5.0528 
 184   0.0000       0.191408         5.2085 
 185   0.0000       0.192484         5.2378 
 186   0.0000       0.193213         5.2576 
 187   0.0000       0.201680         5.4880 
 188   0.0000       0.202994         5.5238 
 189   0.0000       0.214375         5.8335 
 190   0.0000       0.220484         5.9997 
 191   0.0000       0.224045         6.0966 
 192   0.0000       0.226535         6.1643 
 193   0.0000       0.244028         6.6403 
 194   0.0000       0.250914         6.8277 
 195   0.0000       0.251836         6.8528 
 196   0.0000       0.253227         6.8907 
 197   0.0000       0.264014         7.1842 
 198   0.0000       0.273441         7.4407 
 199   0.0000       0.275073         7.4851 
 200   0.0000       0.284213         7.7338 
 201   0.0000       0.292534         7.9603 
 202   0.0000       0.294238         8.0066 
 203   0.0000       0.305970         8.3259 
 204   0.0000       0.311324         8.4715 
 205   0.0000       0.350610         9.5406 
 206   0.0000       0.356564         9.7026 
 207   0.0000       0.366157         9.9636 
 208   0.0000       0.370938        10.0937 
 209   0.0000       0.373028        10.1506 
 210   0.0000       0.374090        10.1795 
 211   0.0000       0.391539        10.6543 
 212   0.0000       0.399464        10.8700 
 213   0.0000       0.402133        10.9426 
 214   0.0000       0.403352        10.9758 
 215   0.0000       0.406518        11.0619 
 216   0.0000       0.414800        11.2873 
 217   0.0000       0.417095        11.3497 
 218   0.0000       0.422940        11.5088 
 219   0.0000       0.424391        11.5483 
 220   0.0000       0.424474        11.5505 
 221   0.0000       0.431368        11.7381 
 222   0.0000       0.451308        12.2807 
 223   0.0000       0.454370        12.3640 
 224   0.0000       0.459357        12.4997 
 225   0.0000       0.473446        12.8831 
 226   0.0000       0.474031        12.8990 
 227   0.0000       0.476065        12.9544 
 228   0.0000       0.483514        13.1571 
 229   0.0000       0.484087        13.1727 
 230   0.0000       0.484125        13.1737 
 231   0.0000       0.492665        13.4061 
 232   0.0000       0.497149        13.5281 
 233   0.0000       0.499332        13.5875 
 234   0.0000       0.510077        13.8799 
 235   0.0000       0.516371        14.0512 
 236   0.0000       0.522265        14.2116 
 237   0.0000       0.523516        14.2456 
 238   0.0000       0.526165        14.3177 
 239   0.0000       0.527627        14.3575 
 240   0.0000       0.533099        14.5064 
 241   0.0000       0.534764        14.5517 
 242   0.0000       0.548147        14.9158 
 243   0.0000       0.548728        14.9316 
 244   0.0000       0.552440        15.0327 
 245   0.0000       0.558501        15.1976 
 246   0.0000       0.560961        15.2645 
 247   0.0000       0.570045        15.5117 
 248   0.0000       0.572954        15.5909 
 249   0.0000       0.576018        15.6742 
 250   0.0000       0.578296        15.7362 
 251   0.0000       0.582714        15.8565 
 252   0.0000       0.589890        16.0517 
 253   0.0000       0.593379        16.1467 
 254   0.0000       0.599854        16.3229 
 255   0.0000       0.601325        16.3629 
 256   0.0000       0.609610        16.5883 
 257   0.0000       0.612201        16.6588 
 258   0.0000       0.620878        16.8949 
 259   0.0000       0.625813        17.0292 
 260   0.0000       0.635404        17.2902 
 261   0.0000       0.639767        17.4089 
 262   0.0000       0.640834        17.4380 
 263   0.0000       0.649520        17.6743 
 264   0.0000       0.650613        17.7041 
 265   0.0000       0.655908        17.8482 
 266   0.0000       0.662888        18.0381 
 267   0.0000       0.665324        18.1044 
 268   0.0000       0.673275        18.3207 
 269   0.0000       0.682311        18.5666 
 270   0.0000       0.690041        18.7770 
 271   0.0000       0.692899        18.8547 
 272   0.0000       0.694828        18.9072 
 273   0.0000       0.696339        18.9484 
 274   0.0000       0.712001        19.3745 
 275   0.0000       0.713309        19.4101 
 276   0.0000       0.716977        19.5099 
 277   0.0000       0.718234        19.5441 
 278   0.0000       0.719167        19.5695 
 279   0.0000       0.722377        19.6569 
 280   0.0000       0.725519        19.7424 
 281   0.0000       0.726094        19.7580 
 282   0.0000       0.739471        20.1220 
 283   0.0000       0.740913        20.1613 
 284   0.0000       0.748107        20.3570 
 285   0.0000       0.757370        20.6091 
 286   0.0000       0.771171        20.9846 
 287   0.0000       0.789810        21.4918 
 288   0.0000       0.796278        21.6678 
 289   0.0000       0.803963        21.8769 
 290   0.0000       0.894874        24.3508 
 291   0.0000       0.922910        25.1137 
 292   0.0000       0.928041        25.2533 
 293   0.0000       0.942694        25.6520 
 294   0.0000       0.955337        25.9960 
 295   0.0000       0.958542        26.0833 
 296   0.0000       0.978305        26.6210 
 297   0.0000       0.995382        27.0857 
 298   0.0000       0.996445        27.1146 
 299   0.0000       0.997167        27.1343 
 300   0.0000       1.013588        27.5811 
 301   0.0000       1.017910        27.6987 
 302   0.0000       1.026994        27.9459 
 303   0.0000       1.030199        28.0331 
 304   0.0000       1.046186        28.4682 
 305   0.0000       1.050637        28.5893 
 306   0.0000       1.086160        29.5559 
 307   0.0000       1.086433        29.5633 
 308   0.0000       1.090223        29.6665 
 309   0.0000       1.100254        29.9394 
 310   0.0000       1.100904        29.9571 
 311   0.0000       1.112974        30.2856 
 312   0.0000       1.123625        30.5754 
 313   0.0000       1.124204        30.5911 
 314   0.0000       1.139861        31.0172 
 315   0.0000       1.147119        31.2147 
 316   0.0000       1.158271        31.5182 
 317   0.0000       1.164582        31.6899 
 318   0.0000       1.173560        31.9342 
 319   0.0000       1.178494        32.0684 
 320   0.0000       1.196337        32.5540 
 321   0.0000       1.204928        32.7878 
 322   0.0000       1.206002        32.8170 
 323   0.0000       1.212181        32.9851 
 324   0.0000       1.218596        33.1597 
 325   0.0000       1.223709        33.2988 
 326   0.0000       1.236605        33.6497 
 327   0.0000       1.240305        33.7504 
 328   0.0000       1.247745        33.9529 
 329   0.0000       1.263240        34.3745 
 330   0.0000       1.347976        36.6803 
 331   0.0000       1.366326        37.1796 
 332   0.0000       1.377291        37.4780 
 333   0.0000       1.443094        39.2686 
 334   0.0000       1.535419        41.7809 
 335   0.0000       1.550374        42.1878 
 336   0.0000       1.562979        42.5308 
 337   0.0000       1.574689        42.8495 
 338   0.0000       1.592202        43.3260 
 339   0.0000       1.594222        43.3810 
 340   0.0000       1.605951        43.7001 
 341   0.0000       1.607403        43.7397 
 342   0.0000       1.625153        44.2227 
 343   0.0000       1.628149        44.3042 
 344   0.0000       1.640295        44.6347 
 345   0.0000       1.646057        44.7915 
 346   0.0000       1.653363        44.9903 
 347   0.0000       1.658629        45.1336 
 348   0.0000       1.665894        45.3313 
 349   0.0000       1.671675        45.4886 
 350   0.0000       1.682810        45.7916 
 351   0.0000       1.691721        46.0341 
 352   0.0000       1.700825        46.2818 
 353   0.0000       1.706293        46.4306 
 354   0.0000       1.717903        46.7465 
 355   0.0000       1.727312        47.0026 
 356   0.0000       1.731650        47.1206 
 357   0.0000       1.737507        47.2800 
 358   0.0000       1.744032        47.4575 
 359   0.0000       1.748308        47.5739 
 360   0.0000       1.757994        47.8374 
 361   0.0000       1.764288        48.0087 
 362   0.0000       1.768370        48.1198 
 363   0.0000       1.776055        48.3289 
 364   0.0000       1.777187        48.3597 
 365   0.0000       1.783484        48.5311 
 366   0.0000       1.787321        48.6355 
 367   0.0000       1.790782        48.7296 
 368   0.0000       1.796960        48.8978 
 369   0.0000       1.797750        48.9193 
 370   0.0000       1.802241        49.0415 
 371   0.0000       1.803297        49.0702 
 372   0.0000       1.809097        49.2280 
 373   0.0000       1.809977        49.2520 
 374   0.0000       1.814808        49.3834 
 375   0.0000       1.821173        49.5566 
 376   0.0000       1.828532        49.7569 
 377   0.0000       1.829170        49.7742 
 378   0.0000       1.833276        49.8860 
 379   0.0000       1.836603        49.9765 
 380   0.0000       1.838232        50.0208 
 381   0.0000       1.840133        50.0726 
 382   0.0000       1.844371        50.1879 
 383   0.0000       1.850734        50.3610 
 384   0.0000       1.851161        50.3727 
 385   0.0000       1.851844        50.3912 
 386   0.0000       1.855868        50.5007 
 387   0.0000       1.857431        50.5433 
 388   0.0000       1.858883        50.5828 
 389   0.0000       1.861580        50.6562 
 390   0.0000       1.863010        50.6951 
 391   0.0000       1.863847        50.7179 
 392   0.0000       1.864459        50.7345 
 393   0.0000       1.865221        50.7553 
 394   0.0000       1.869563        50.8734 
 395   0.0000       1.869640        50.8755 
 396   0.0000       1.870123        50.8886 
 397   0.0000       1.872996        50.9668 
 398   0.0000       1.875577        51.0371 
 399   0.0000       1.877454        51.0881 
 400   0.0000       1.877611        51.0924 
 401   0.0000       1.877660        51.0937 
 402   0.0000       1.880895        51.1818 
 403   0.0000       1.881533        51.1991 
 404   0.0000       1.882373        51.2220 
 405   0.0000       1.884324        51.2751 
 406   0.0000       1.885930        51.3188 
 407   0.0000       1.887332        51.3569 
 408   0.0000       1.890398        51.4404 
 409   0.0000       1.890961        51.4557 
 410   0.0000       1.891792        51.4783 
 411   0.0000       1.893475        51.5241 
 412   0.0000       1.896511        51.6067 
 413   0.0000       1.899737        51.6945 
 414   0.0000       1.900731        51.7215 
 415   0.0000       1.901384        51.7393 
 416   0.0000       1.905141        51.8415 
 417   0.0000       1.905992        51.8647 
 418   0.0000       1.906300        51.8731 
 419   0.0000       1.907531        51.9066 
 420   0.0000       1.908373        51.9295 
 421   0.0000       1.911552        52.0160 
[...]
      f0      :     0.000906  f :     0.004789
      f+1     :     0.000474
      f-1     :     0.000545
      f+2     :     0.000546
      f-2     :     0.000935
      f+3     :     0.000522
      f-3     :     0.000860
  8 Aus       :     2.415319  s :     2.415319
      pz      :     2.104527  p :     6.591695
      px      :     2.281621
      py      :     2.205547
      dz2     :     1.982385  d :     9.988221
      dxz     :     2.010365
      dyz     :     1.993947
      dx2y2   :     2.006121
      dxy     :     1.995403
      f0      :     0.000576  f :     0.004807
      f+1     :     0.000584
      f-1     :     0.000544
      f+2     :     0.000536
      f-2     :     0.001032
      f+3     :     0.000607
      f-3     :     0.000929
  9 Aus       :     2.558170  s :     2.558170
      pz      :     2.117243  p :     6.430823
      px      :     2.176301
      py      :     2.137279
      dz2     :     2.007734  d :    10.019472
      dxz     :     2.015795
      dyz     :     1.995152
      dx2y2   :     1.997098
      dxy     :     2.003694
      f0      :     0.000718  f :     0.003649
      f+1     :     0.000459
      f-1     :     0.000441
      f+2     :     0.000386
      f-2     :     0.000544
      f+3     :     0.000457
      f-3     :     0.000643
 10 Aus       :     2.457202  s :     2.457202
      pz      :     2.216569  p :     6.601846
      px      :     2.287406
      py      :     2.097871
      dz2     :     2.010232  d :     9.999626
      dxz     :     1.997735
      dyz     :     2.000091
      dx2y2   :     1.991782
      dxy     :     1.999787
      f0      :     0.000931  f :     0.005287
      f+1     :     0.000629
      f-1     :     0.000504
      f+2     :     0.000734
      f-2     :     0.001065
      f+3     :     0.000717
      f-3     :     0.000707
 11 Aus       :     2.576485  s :     2.576485
      pz      :     2.175862  p :     6.379610
      px      :     2.080991
      py      :     2.122758
      dz2     :     2.001303  d :     9.973604
      dxz     :     1.994575
      dyz     :     1.998484
      dx2y2   :     1.993227
      dxy     :     1.986016
      f0      :     0.000659  f :     0.003415
      f+1     :     0.000403
      f-1     :     0.000457
      f+2     :     0.000432
      f-2     :     0.000515
      f+3     :     0.000333
      f-3     :     0.000616
 12 Aus       :     2.552684  s :     2.552684
      pz      :     2.154518  p :     6.433487
      px      :     2.102567
      py      :     2.176403
      dz2     :     2.007821  d :     9.983261
      dxz     :     1.987532
      dyz     :     1.991242
      dx2y2   :     2.002647
      dxy     :     1.994018
      f0      :     0.000767  f :     0.004235
      f+1     :     0.000443
      f-1     :     0.000512
      f+2     :     0.000438
      f-2     :     0.000640
      f+3     :     0.000516
      f-3     :     0.000921
 13 Aus       :     2.525097  s :     2.525097
      pz      :     2.175045  p :     6.444613
      px      :     2.067207
      py      :     2.202361
      dz2     :     2.000442  d :     9.972785
      dxz     :     1.985108
      dyz     :     1.996799
      dx2y2   :     1.998554
      dxy     :     1.991883
      f0      :     0.000728  f :     0.004079
      f+1     :     0.000459
      f-1     :     0.000582
      f+2     :     0.000482
      f-2     :     0.000604
      f+3     :     0.000456
      f-3     :     0.000768
 14 Mns       :     6.244633  s :     6.244633
      pz      :     4.198157  p :    12.580601
      px      :     4.204654
      py      :     4.177790
      dz2     :     1.310161  d :     6.454735
      dxz     :     1.391038
      dyz     :     1.216365
      dx2y2   :     1.205745
      dxy     :     1.331426
      f0      :     0.000157  f :     0.000739
      f+1     :     0.000082
      f-1     :     0.000075
      f+2     :     0.000064
      f-2     :     0.000155
      f+3     :     0.000060
      f-3     :     0.000145

SPIN
  0 Aus       :     0.002442  s :     0.002442
      pz      :     0.001174  p :     0.002326
      px      :     0.000783
      py      :     0.000368
      dz2     :     0.000081  d :     0.000561
      dxz     :     0.000109
      dyz     :     0.000138
      dx2y2   :     0.000164
      dxy     :     0.000070
      f0      :     0.000000  f :     0.000003
      f+1     :     0.000000
      f-1     :     0.000000
      f+2     :     0.000000
      f-2     :     0.000001
      f+3     :     0.000001
      f-3     :     0.000001
  1 Aus       :     0.001636  s :     0.001636
      pz      :     0.000874  p :     0.002918
      px      :     0.001877
      py      :     0.000168
      dz2     :     0.003668  d :     0.006520
      dxz     :     0.001229
      dyz     :     0.001378
      dx2y2   :     0.000156
      dxy     :     0.000088
      f0      :     0.000079  f :     0.000127
      f+1     :     0.000024
      f-1     :     0.000020
      f+2     :     0.000001
      f-2     :     0.000002
      f+3     :     0.000000
      f-3     :     0.000000
  2 Aus       :     0.002158  s :     0.002158
      pz      :     0.000829  p :     0.003163
      px      :     0.001007
      py      :     0.001327
      dz2     :     0.000700  d :     0.007619
      dxz     :     0.001726
      dyz     :     0.001388
      dx2y2   :     0.002079
      dxy     :     0.001727
      f0      :     0.000014  f :     0.000108
      f+1     :     0.000010
      f-1     :     0.000005
      f+2     :     0.000010
      f-2     :     0.000027
      f+3     :     0.000011
      f-3     :     0.000032
  3 Aus       :     0.001640  s :     0.001640
      pz      :     0.001050  p :     0.002919
      px      :     0.000415
      py      :     0.001454
      dz2     :     0.000570  d :     0.006523
      dxz     :     0.001554
      dyz     :     0.001444
      dx2y2   :     0.001410
      dxy     :     0.001544
      f0      :     0.000016  f :     0.000127
      f+1     :     0.000009
      f-1     :     0.000004
      f+2     :     0.000012
      f-2     :     0.000045
      f+3     :     0.000009
      f-3     :     0.000032
  4 Aus       :     0.002457  s :     0.002457
      pz      :     0.000215  p :     0.001915
      px      :     0.000770
      py      :     0.000930
      dz2     :     0.000648  d :     0.004663
      dxz     :     0.000064
      dyz     :     0.000870
      dx2y2   :     0.002534
      dxy     :     0.000547
      f0      :     0.000005  f :     0.000062
      f+1     :     0.000000
      f-1     :     0.000012
      f+2     :     0.000008
      f-2     :     0.000000
      f+3     :     0.000002
      f-3     :     0.000035
  5 Aus       :     0.002443  s :     0.002443
      pz      :     0.001376  p :     0.003142
      px      :     0.000725
      py      :     0.001041
      dz2     :     0.000518  d :     0.005777
      dxz     :     0.000944
      dyz     :     0.001758
      dx2y2   :     0.000904
      dxy     :     0.001653
      f0      :     0.000015  f :     0.000084
      f+1     :     0.000002
      f-1     :     0.000005
      f+2     :     0.000006
      f-2     :     0.000031
      f+3     :     0.000013
      f-3     :     0.000013
  6 Aus       :     0.002245  s :     0.002245
      pz      :     0.001320  p :     0.003051
      px      :     0.000634
      py      :     0.001097
      dz2     :     0.000981  d :     0.005764
      dxz     :     0.002259
      dyz     :     0.000814
      dx2y2   :     0.001208
      dxy     :     0.000502
      f0      :     0.000005  f :     0.000066
      f+1     :     0.000015
      f-1     :     0.000005
      f+2     :     0.000020
      f-2     :     0.000013
      f+3     :     0.000004
      f-3     :     0.000005
  7 Aus       :     0.001302  s :     0.001302
      pz      :     0.001482  p :     0.003660
      px      :     0.000231
      py      :     0.001947
      dz2     :     0.000637  d :     0.006173
      dxz     :     0.001438
      dyz     :     0.001379
      dx2y2   :     0.001132
      dxy     :     0.001588
      f0      :     0.000014  f :     0.000103
      f+1     :     0.000006
      f-1     :     0.000004
      f+2     :     0.000011
      f-2     :     0.000037
      f+3     :     0.000006
      f-3     :     0.000026
  8 Aus       :     0.001297  s :     0.001297
      pz      :     0.001187  p :     0.003664
      px      :     0.001907
      py      :     0.000570
      dz2     :     0.003451  d :     0.006132
      dxz     :     0.000917
      dyz     :     0.001613
      dx2y2   :     0.000111
      dxy     :     0.000040
      f0      :     0.000063  f :     0.000102
      f+1     :     0.000017
      f-1     :     0.000019
      f+2     :     0.000001
      f-2     :     0.000001
      f+3     :     0.000000
      f-3     :     0.000001
  9 Aus       :     0.002798  s :     0.002798
      pz      :     0.000725  p :     0.002921
      px      :     0.001267
      py      :     0.000930
      dz2     :     0.000097  d :     0.000585
      dxz     :     0.000062
      dyz     :     0.000223
      dx2y2   :     0.000078
      dxy     :     0.000126
      f0      :     0.000000  f :     0.000003
      f+1     :     0.000001
      f-1     :     0.000000
      f+2     :     0.000000
      f-2     :     0.000000
      f+3     :     0.000001
      f-3     :     0.000000
 10 Aus       :     0.002252  s :     0.002252
      pz      :     0.000614  p :     0.003046
      px      :     0.001185
      py      :     0.001247
      dz2     :     0.000793  d :     0.005719
      dxz     :     0.000127
      dyz     :     0.000975
      dx2y2   :     0.002547
      dxy     :     0.001278
      f0      :     0.000005  f :     0.000065
      f+1     :     0.000000
      f-1     :     0.000015
      f+2     :     0.000004
      f-2     :     0.000001
      f+3     :     0.000009
      f-3     :     0.000030
 11 Aus       :     0.002533  s :     0.002533
      pz      :     0.000882  p :     0.002180
      px      :     0.000962
      py      :     0.000336
      dz2     :     0.000923  d :     0.008206
      dxz     :     0.001725
      dyz     :     0.001195
      dx2y2   :     0.002163
      dxy     :     0.002200
      f0      :     0.000018  f :     0.000146
      f+1     :     0.000015
      f-1     :     0.000005
      f+2     :     0.000009
      f-2     :     0.000037
      f+3     :     0.000018
      f-3     :     0.000044
 12 Aus       :     0.002460  s :     0.002460
      pz      :     0.001066  p :     0.001922
      px      :     0.000461
      py      :     0.000396
      dz2     :     0.000592  d :     0.004702
      dxz     :     0.001650
      dyz     :     0.001305
      dx2y2   :     0.000487
      dxy     :     0.000668
      f0      :     0.000005  f :     0.000063
      f+1     :     0.000010
      f-1     :     0.000009
      f+2     :     0.000005
      f-2     :     0.000026
      f+3     :     0.000001
      f-3     :     0.000006
 13 Aus       :     0.002447  s :     0.002447
      pz      :     0.001096  p :     0.003146
      px      :     0.000425
      py      :     0.001625
      dz2     :     0.000602  d :     0.005741
      dxz     :     0.001112
      dyz     :     0.001511
      dx2y2   :     0.001060
      dxy     :     0.001455
      f0      :     0.000011  f :     0.000083
      f+1     :     0.000004
      f-1     :     0.000004
      f+2     :     0.000005
      f-2     :     0.000038
      f+3     :     0.000005
      f-3     :     0.000016
 14 Mns       :     0.000363  s :     0.000363
      pz      :     0.000198  p :     0.000670
      px      :     0.000180
      py      :     0.000292
      dz2     :     0.768117  d :     3.853052
      dxz     :     0.763771
      dyz     :     0.777235
      dx2y2   :     0.777309
      dxy     :     0.766619
      f0      :     0.000000  f :     0.000001
      f+1     :     0.000000
      f-1     :     0.000000
      f+2     :     0.000000
      f-2     :     0.000000
      f+3     :     0.000000
      f-3     :     0.000000


                      *****************************
                      * MAYER POPULATION ANALYSIS *
                      *****************************

  NA   - Mulliken gross atomic population
  ZA   - Total nuclear charge
  QA   - Mulliken gross atomic charge
  VA   - Mayer's total valence
  BVA  - Mayer's bonded valence
  FA   - Mayer's free valence

  ATOM       NA         ZA         QA         VA         BVA        FA
  0 Au    18.5620    19.0000     0.4380     1.1427     1.1407     0.0019
  1 Au    18.7194    19.0000     0.2806     1.3702     1.3666     0.0036
  2 Au    19.0835    19.0000    -0.0835     1.5973     1.5925     0.0048
  3 Au    18.7202    19.0000     0.2798     1.3711     1.3674     0.0037
  4 Au    18.7797    19.0000     0.2203     1.2901     1.2870     0.0030
  5 Au    18.7711    19.0000     0.2289     1.3881     1.3843     0.0037
  6 Au    19.1456    19.0000    -0.1456     1.8995     1.8958     0.0037
  7 Au    18.7717    19.0000     0.2283     1.5021     1.4986     0.0035
  8 Au    18.7734    19.0000     0.2266     1.5041     1.5006     0.0035
  9 Au    18.8846    19.0000     0.1154     1.3602     1.3579     0.0024
 10 Au    19.1461    19.0000    -0.1461     1.8992     1.8955     0.0037
 11 Au    18.8632    19.0000     0.1368     1.2712     1.2663     0.0048
 12 Au    18.7799    19.0000     0.2201     1.2899     1.2868     0.0031
 13 Au    18.7717    19.0000     0.2283     1.3880     1.3843     0.0037
 14 Mn    27.2280    25.0000    -2.2280     9.5068     4.7257     4.7811

  Mayer bond orders larger than 0.100000
B(  0-Au,  2-Au) :   0.2833 B(  0-Au,  6-Au) :   0.2667 B(  0-Au,  9-Au) :   0.1218 
B(  0-Au, 10-Au) :   0.2664 B(  1-Au,  2-Au) :   0.2026 B(  1-Au,  3-Au) :   0.2200 
B(  1-Au, 12-Au) :   0.2534 B(  1-Au, 13-Au) :   0.1385 B(  1-Au, 14-Mn) :   0.3712 
B(  2-Au,  3-Au) :   0.2034 B(  2-Au,  6-Au) :   0.1507 B(  2-Au, 10-Au) :   0.1497 
B(  2-Au, 14-Mn) :   0.4562 B(  3-Au,  4-Au) :   0.2535 B(  3-Au,  5-Au) :   0.1384 
B(  3-Au, 14-Mn) :   0.3712 B(  4-Au,  5-Au) :   0.2155 B(  4-Au, 11-Au) :   0.1232 
B(  4-Au, 12-Au) :   0.1806 B(  4-Au, 14-Mn) :   0.3284 B(  5-Au,  6-Au) :   0.3816 
B(  5-Au,  8-Au) :   0.1080 B(  5-Au, 14-Mn) :   0.3975 B(  6-Au,  8-Au) :   0.2753 
B(  6-Au,  9-Au) :   0.2121 B(  6-Au, 10-Au) :   0.1674 B(  6-Au, 14-Mn) :   0.3500 
B(  7-Au,  8-Au) :   0.1817 B(  7-Au,  9-Au) :   0.2584 B(  7-Au, 10-Au) :   0.2760 
B(  7-Au, 11-Au) :   0.1788 B(  7-Au, 13-Au) :   0.1079 B(  7-Au, 14-Mn) :   0.3475 
B(  8-Au,  9-Au) :   0.2604 B(  8-Au, 11-Au) :   0.1792 B(  8-Au, 14-Mn) :   0.3472 
B(  9-Au, 10-Au) :   0.2126 B(  9-Au, 14-Mn) :   0.1442 B( 10-Au, 13-Au) :   0.3821 
B( 10-Au, 14-Mn) :   0.3494 B( 11-Au, 12-Au) :   0.1227 B( 11-Au, 14-Mn) :   0.4688 
B( 12-Au, 13-Au) :   0.2157 B( 12-Au, 14-Mn) :   0.3289 B( 13-Au, 14-Mn) :   0.3971 



-------------------------------------------------------------
 Forming the transition density       ... done in 0.023975 sec
-------------------------------------------------------------



==========================================
CASSCF UV, CD spectra and dipole moments
==========================================
-------------------
ABSORPTION SPECTRUM
-------------------

Center of mass           = ( 14.4535, 13.7253, 14.2375)
Nuclear contribution to the dipole moment =     5.020161,  -13.670443,   -9.359254 au

Calculating the Dipole integrals                  ... done
Transforming integrals                            ... done
Calculating the Linear Momentum integrals         ... done
Transforming integrals                            ... done
Calculating the Angular Momentum integrals        ... done
Transforming integrals                            ... done

------------------------------------------------------------------------------
                                 DIPOLE MOMENTS
------------------------------------------------------------------------------
  Root  Block           TX        TY        TZ           |T|
                      (Debye)   (Debye)   (Debye)      (Debye)
------------------------------------------------------------------------------
    0    0           -0.28736   0.04918  -0.28839      0.41008

--------------
CASSCF TIMINGS
--------------

Total time                       ...      345.8 sec
Sum of individual times          ...      336.9 sec ( 97.4%)

Calculation of AO operators
   F(Core) operator              ...      162.6 sec ( 47.0%)
   G(Act) operator               ...      148.2 sec ( 42.9%)
   J(AO) operators               ...        0.0 sec (  0.0%)
Calculation of MO transformed quantities
   J(MO) operators               ...       19.3 sec (  5.6%)
   (pq|rs) integrals             ...        0.0 sec (  0.0%)
   AO->MO one electron integrals ...        1.4 sec (  0.4%)
Configuration interaction steps
   CI-setup phase                ...        0.0 sec (  0.0%)
   CI-solution phase             ...        0.2 sec (  0.1%)
   Generation of densities       ...        0.0 sec (  0.0%)
Orbital improvement steps
   Orbital gradient              ...        0.2 sec (  0.1%)
   O(1) converger                ...        4.9 sec (  1.4%)
Properties                       ...        0.0 sec (  0.0%)
   SOC integral calculation      ...        0.0 sec (  0.0%)
   SSC RMEs (incl. integrals)    ...        0.0 sec (  0.0%)
   SOC RMEs                      ...        0.0 sec (  0.0%)

Maximum memory used throughout the entire CASSCF-calculation: 307.4 MB

-------------------------   --------------------
FINAL SINGLE POINT ENERGY     -3037.179333625908
-------------------------   --------------------


                            ***************************************
                            *     ORCA property calculations      *
                            ***************************************

                                    ---------------------
                                    Active property flags
                                    ---------------------
   (+) Dipole Moment


------------------------------------------------------------------------------
                       ORCA ELECTRIC PROPERTIES CALCULATION
------------------------------------------------------------------------------

Dipole Moment Calculation                       ... on
Quadrupole Moment Calculation                   ... off
Polarizability Calculation                      ... off
GBWName                                         ... casscf.gbw
Electron density                                ... casscf.scfp
The origin for moment calculation is the CENTER OF MASS  = (14.453481, 13.725338 14.237532)

-------------
DIPOLE MOMENT
-------------
                                X             Y             Z
Electronic contribution:     -5.13322      13.68979       9.24580
Nuclear contribution   :      5.02016     -13.67044      -9.35925
                        -----------------------------------------
Total Dipole Moment    :     -0.11306       0.01935      -0.11346
                        -----------------------------------------
Magnitude (a.u.)       :      0.16133
Magnitude (Debye)      :      0.41008



--------------------
Rotational spectrum 
--------------------
 
Rotational constants in cm-1:     0.001238     0.000941     0.000935 
Rotational constants in MHz :    37.100535    28.221771    28.034831 

 Dipole components along the rotational axes: 
x,y,z [a.u.] :     0.015077    -0.160559    -0.004695 
x,y,z [Debye]:     0.038322    -0.408109    -0.011933 

 

Timings for individual modules:

Sum of individual times         ...      374.605 sec (=   6.243 min)
GTO integral calculation        ...       13.776 sec (=   0.230 min)   3.7 %
SCF iterations                  ...       10.621 sec (=   0.177 min)   2.8 %
CASSCF iterations               ...      350.208 sec (=   5.837 min)  93.5 %
                             ****ORCA TERMINATED NORMALLY****
TOTAL RUN TIME: 0 days 0 hours 6 minutes 16 seconds 169 msec
