
                                 *****************
                                 * O   R   C   A *
                                 *****************

                                            #,                                       
                                            ###                                      
                                            ####                                     
                                            #####                                    
                                            ######                                   
                                           ########,                                 
                                     ,,################,,,,,                         
                               ,,#################################,,                 
                          ,,##########################################,,             
                       ,#########################################, ''#####,          
                    ,#############################################,,   '####,        
                  ,##################################################,,,,####,       
                ,###########''''           ''''###############################       
              ,#####''   ,,,,##########,,,,          '''####'''          '####       
            ,##' ,,,,###########################,,,                        '##       
           ' ,,###''''                  '''############,,,                           
         ,,##''                                '''############,,,,        ,,,,,,###''
      ,#''                                            '''#######################'''  
     '                                                          ''''####''''         
             ,#######,   #######,   ,#######,      ##                                
            ,#'     '#,  ##    ##  ,#'     '#,    #''#        ######   ,####,        
            ##       ##  ##   ,#'  ##            #'  '#       #        #'  '#        
            ##       ##  #######   ##           ,######,      #####,   #    #        
            '#,     ,#'  ##    ##  '#,     ,#' ,#      #,         ##   #,  ,#        
             '#######'   ##     ##  '#######'  #'      '#     #####' # '####'        



                  #######################################################
                  #                        -***-                        #
                  #          Department of theory and spectroscopy      #
                  #    Directorship and core code : Frank Neese         #
                  #        Max Planck Institute fuer Kohlenforschung    #
                  #                Kaiser Wilhelm Platz 1               #
                  #                 D-45470 Muelheim/Ruhr               #
                  #                      Germany                        #
                  #                                                     #
                  #                  All rights reserved                #
                  #                        -***-                        #
                  #######################################################


                         Program Version 5.0.3 -  RELEASE  -


 With contributions from (in alphabetic order):
   Daniel Aravena         : Magnetic Suceptibility
   Michael Atanasov       : Ab Initio Ligand Field Theory (pilot matlab implementation)
   Alexander A. Auer      : GIAO ZORA, VPT2 properties, NMR spectrum
   Ute Becker             : Parallelization
   Giovanni Bistoni       : ED, misc. LED, open-shell LED, HFLD
   Martin Brehm           : Molecular dynamics
   Dmytro Bykov           : SCF Hessian
   Vijay G. Chilkuri      : MRCI spin determinant printing, contributions to CSF-ICE
   Dipayan Datta          : RHF DLPNO-CCSD density
   Achintya Kumar Dutta   : EOM-CC, STEOM-CC
   Dmitry Ganyushin       : Spin-Orbit,Spin-Spin,Magnetic field MRCI
   Miquel Garcia          : C-PCM and meta-GGA Hessian, CC/C-PCM, Gaussian charge scheme
   Yang Guo               : DLPNO-NEVPT2, F12-NEVPT2, CIM, IAO-localization
   Andreas Hansen         : Spin unrestricted coupled pair/coupled cluster methods
   Benjamin Helmich-Paris : MC-RPA, TRAH-SCF, COSX integrals
   Lee Huntington         : MR-EOM, pCC
   Robert Izsak           : Overlap fitted RIJCOSX, COSX-SCS-MP3, EOM
   Marcus Kettner         : VPT2
   Christian Kollmar      : KDIIS, OOCD, Brueckner-CCSD(T), CCSD density, CASPT2, CASPT2-K
   Simone Kossmann        : Meta GGA functionals, TD-DFT gradient, OOMP2, MP2 Hessian
   Martin Krupicka        : Initial AUTO-CI
   Lucas Lang             : DCDCAS
   Marvin Lechner         : AUTO-CI (C++ implementation), FIC-MRCC
   Dagmar Lenk            : GEPOL surface, SMD
   Dimitrios Liakos       : Extrapolation schemes; Compound Job, initial MDCI parallelization
   Dimitrios Manganas     : Further ROCIS development; embedding schemes
   Dimitrios Pantazis     : SARC Basis sets
   Anastasios Papadopoulos: AUTO-CI, single reference methods and gradients
   Taras Petrenko         : DFT Hessian,TD-DFT gradient, ASA, ECA, R-Raman, ABS, FL, XAS/XES, NRVS
   Peter Pinski           : DLPNO-MP2, DLPNO-MP2 Gradient
   Christoph Reimann      : Effective Core Potentials
   Marius Retegan         : Local ZFS, SOC
   Christoph Riplinger    : Optimizer, TS searches, QM/MM, DLPNO-CCSD(T), (RO)-DLPNO pert. Triples
   Tobias Risthaus        : Range-separated hybrids, TD-DFT gradient, RPA, STAB
   Michael Roemelt        : Original ROCIS implementation
   Masaaki Saitow         : Open-shell DLPNO-CCSD energy and density
   Barbara Sandhoefer     : DKH picture change effects
   Avijit Sen             : IP-ROCIS
   Kantharuban Sivalingam : CASSCF convergence, NEVPT2, FIC-MRCI
   Bernardo de Souza      : ESD, SOC TD-DFT
   Georgi Stoychev        : AutoAux, RI-MP2 NMR, DLPNO-MP2 response
   Willem Van den Heuvel  : Paramagnetic NMR
   Boris Wezisla          : Elementary symmetry handling
   Frank Wennmohs         : Technical directorship


 We gratefully acknowledge several colleagues who have allowed us to
 interface, adapt or use parts of their codes:
   Stefan Grimme, W. Hujo, H. Kruse, P. Pracht,  : VdW corrections, initial TS optimization,
                  C. Bannwarth, S. Ehlert          DFT functionals, gCP, sTDA/sTD-DF
   Ed Valeev, F. Pavosevic, A. Kumar             : LibInt (2-el integral package), F12 methods
   Garnet Chan, S. Sharma, J. Yang, R. Olivares  : DMRG
   Ulf Ekstrom                                   : XCFun DFT Library
   Mihaly Kallay                                 : mrcc  (arbitrary order and MRCC methods)
   Jiri Pittner, Ondrej Demel                    : Mk-CCSD
   Frank Weinhold                                : gennbo (NPA and NBO analysis)
   Christopher J. Cramer and Donald G. Truhlar   : smd solvation model
   Lars Goerigk                                  : TD-DFT with DH, B97 family of functionals
   V. Asgeirsson, H. Jonsson                     : NEB implementation
   FAccTs GmbH                                   : IRC, NEB, NEB-TS, DLPNO-Multilevel, CI-OPT
                                                   MM, QMMM, 2- and 3-layer-ONIOM, Crystal-QMMM,
                                                   LR-CPCM, SF, NACMEs, symmetry and pop. for TD-DFT,
                                                   nearIR, NL-DFT gradient (VV10), updates on ESD,
                                                   ML-optimized integration grids
   S Lehtola, MJT Oliveira, MAL Marques          : LibXC Library
   Liviu Ungur et al                             : ANISO software


 Your calculation uses the libint2 library for the computation of 2-el integrals
 For citations please refer to: http://libint.valeyev.net

 Your ORCA version has been built with support for libXC version: 5.1.0
 For citations please refer to: https://tddft.org/programs/libxc/

 This ORCA versions uses:
   CBLAS   interface :  Fast vector & matrix operations
   LAPACKE interface :  Fast linear algebra routines
   SCALAPACK package :  Parallel linear algebra routines
   Shared memory     :  Shared parallel matrices
   BLAS/LAPACK       :  OpenBLAS 0.3.15  USE64BITINT DYNAMIC_ARCH NO_AFFINITY Haswell SINGLE_THREADED
        Core in use  :  Haswell
   Copyright (c) 2011-2014, The OpenBLAS Project




***************************************
The coordinates will be read from file: pbe.xyz
***************************************


================================================================================

cite the ECPs for Au [Def2-ECP] as follows:
Ce-Yb(ecp-28): M. Dolg, H. Stoll, H.Preuss, J. Chem. Phys., 1989, 90, 1730-1734.
Y-Cd(ecp-28), Hf-Hg(ecp-46): D. Andrae,U. Haeussermann, M. Dolg, H. Stoll, H. Preuss, Theor. Chim. Acta, 1990, 77, 123-141.
In-Sb(ecp-28), Tl-Bi(ecp-46): B. Metz, H. Stoll, M. Dolg, J. Chem. Phys., 2000, 113, 2563-2569.
Te-Xe(ecp-28), Po-Rn(ecp-46): K. A. Peterson, D. Figgen, E. Goll, H. Stoll, M. Dolg, J. Chem. Phys., 2003, 119, 11113-11123.
Rb(ecp-28), Cs(ecp-46): T. Leininger, A. Nicklass, W. Kuechle, H. Stoll, M. Dolg, A. Bergner, Chem. Phys. Lett., 1996, 255, 274-280.
Sr(ecp-28), Ba(ecp-46): M. Kaupp, P. V. Schleyer, H. Stoll and H. Preuss, J. Chem. Phys., 1991, 94, 1360-1366.
La(ecp-46): M. Dolg, H. Stoll, A. Savin, H. Preuss, Theor. Chim. Acta, 1989, 75, 173-194.
Lu(ecp-28): X. Cao, M. Dolg, J. Chem. Phys., 2001, 115, 7348-7355.

ECP parameters for Au [Def2-ECP] have been obtained from:
TURBOMOLE (7.0.2)

----- Orbital basis set information -----
Your calculation utilizes the basis: def2-TZVP
   F. Weigend and R. Ahlrichs, Phys. Chem. Chem. Phys. 7, 3297 (2005).

----- AuxJ basis set information -----
Your calculation utilizes the auxiliary basis: def2/J
   F. Weigend, Phys. Chem. Chem. Phys. 8, 1057 (2006).

================================================================================
                                        WARNINGS
                       Please study these warnings very carefully!
================================================================================


WARNING: your system is open-shell and RHF/RKS was chosen
  ===> : WILL SWITCH to UHF/UKS


INFO   : the flag for use of the SHARK integral package has been found!



***************************************
The coordinates will be read from file: pbe.xyz
***************************************


================================================================================

cite the ECPs for Au [Def2-ECP] as follows:
Ce-Yb(ecp-28): M. Dolg, H. Stoll, H.Preuss, J. Chem. Phys., 1989, 90, 1730-1734.
Y-Cd(ecp-28), Hf-Hg(ecp-46): D. Andrae,U. Haeussermann, M. Dolg, H. Stoll, H. Preuss, Theor. Chim. Acta, 1990, 77, 123-141.
In-Sb(ecp-28), Tl-Bi(ecp-46): B. Metz, H. Stoll, M. Dolg, J. Chem. Phys., 2000, 113, 2563-2569.
Te-Xe(ecp-28), Po-Rn(ecp-46): K. A. Peterson, D. Figgen, E. Goll, H. Stoll, M. Dolg, J. Chem. Phys., 2003, 119, 11113-11123.
Rb(ecp-28), Cs(ecp-46): T. Leininger, A. Nicklass, W. Kuechle, H. Stoll, M. Dolg, A. Bergner, Chem. Phys. Lett., 1996, 255, 274-280.
Sr(ecp-28), Ba(ecp-46): M. Kaupp, P. V. Schleyer, H. Stoll and H. Preuss, J. Chem. Phys., 1991, 94, 1360-1366.
La(ecp-46): M. Dolg, H. Stoll, A. Savin, H. Preuss, Theor. Chim. Acta, 1989, 75, 173-194.
Lu(ecp-28): X. Cao, M. Dolg, J. Chem. Phys., 2001, 115, 7348-7355.

ECP parameters for Au [Def2-ECP] have been obtained from:
TURBOMOLE (7.0.2)

----- Orbital basis set information -----
Your calculation utilizes the basis: def2-TZVP
   F. Weigend and R. Ahlrichs, Phys. Chem. Chem. Phys. 7, 3297 (2005).

----- AuxJ basis set information -----
Your calculation utilizes the auxiliary basis: def2/J
   F. Weigend, Phys. Chem. Chem. Phys. 8, 1057 (2006).

================================================================================
                                        WARNINGS
                       Please study these warnings very carefully!
================================================================================


INFO   : the flag for use of the SHARK integral package has been found!

================================================================================
                                       INPUT FILE
================================================================================
NAME = pbeSP.inp
|  1> !PBE def2-TZVP VERYSLOWCONV
|  2> 
|  3> %scf
|  4>   AutoTRAHIter 200
|  5>   maxiter 400
|  6> end
|  7> 
|  8> 
|  9> %pal nprocs 6 end 
| 10> 
| 11> *xyzfile 0 5 pbe.xyz
| 12> 
| 13> $new_job
| 14> 
| 15> !PBE def2-TZVP VERYSLOWCONV
| 16> 
| 17> %scf
| 18>   AutoTRAHIter 200
| 19>   maxiter 400
| 20> end
| 21>  
| 22> 
| 23> %pal nprocs 6 end 
| 24> 
| 25> *xyzfile 0 3 pbe.xyz
| 26> 
| 27> 
| 28> 
| 29> 
| 30> 
| 31>                          ****END OF INPUT****
================================================================================


                 $$$$$$$$$$$$$$$$$$$$$$$$$$$$$$$$$$$$$$$$$$$$$$ 
                 $ THERE ARE  2 JOBS TO BE PROCESSED THIS RUN $
                 $$$$$$$$$$$$$$$$$$$$$$$$$$$$$$$$$$$$$$$$$$$$$$ 




                 $$$$$$$$$$$$$$$$  JOB NUMBER  1 $$$$$$$$$$$$$$


                       ****************************
                       * Single Point Calculation *
                       ****************************

---------------------------------
CARTESIAN COORDINATES (ANGSTROEM)
---------------------------------
  Au     6.306002    9.597163    7.790382
  Au    10.150131    7.480303    6.837522
  Au     8.038368    5.591456    6.531521
  Au     9.136330    9.822454    7.597557
  Au     5.878180    7.093630    6.973569
  Au     7.694604   11.157672    9.625667
  Au     9.334677    9.008829   10.436538
  Au     6.100856    6.231500    9.944000
  Au    10.371657    6.676603    9.675774
  Au     8.256341    4.817886    9.259542
  Au    10.476260    4.776562    7.588093
  Au     6.496317    8.808820   10.512517
  Cr     8.061433    7.534013    8.557181

----------------------------
CARTESIAN COORDINATES (A.U.)
----------------------------
  NO LB      ZA    FRAG     MASS         X           Y           Z
   0 Au   19.0000*   0   196.966   11.916617   18.136009   14.721688
   1 Au   19.0000*   0   196.966   19.180968   14.135725   12.921044
   2 Au   19.0000*   0   196.966   15.190315   10.566321   12.342786
   3 Au   19.0000*   0   196.966   17.265161   18.561747   14.357302
   4 Au   19.0000*   0   196.966   11.108150   13.405018   13.178135
   5 Au   19.0000*   0   196.966   14.540695   21.084943   18.189874
   6 Au   19.0000*   0   196.966   17.639982   17.024220   19.722198
   7 Au   19.0000*   0   196.966   11.528948   11.775829   18.791437
   8 Au   19.0000*   0   196.966   19.599590   12.616951   18.284563
   9 Au   19.0000*   0   196.966   15.602223    9.104486   17.497998
  10 Au   19.0000*   0   196.966   19.797262    9.026394   14.339418
  11 Au   19.0000*   0   196.966   12.276259   16.646257   19.865779
  12 Cr   24.0000    0    52.000   15.233900   14.237221   16.170729
* core charge reduced due to ECP

--------------------------------
INTERNAL COORDINATES (ANGSTROEM)
--------------------------------
 Au     0   0   0     0.000000000000     0.00000000     0.00000000
 Au     1   0   0     4.490697801599     0.00000000     0.00000000
 Au     2   1   0     2.849723122154    72.59534600     0.00000000
 Au     2   1   3     2.662914822399    36.76821843   180.82495028
 Au     1   2   3     2.667937749186    68.28233323   356.03554052
 Au     1   2   3     2.780588921853    88.68839490   147.66958404
 Au     6   1   2     2.822210489124    93.01169729   322.70399007
 Au     5   1   2     3.101018328299    87.48402202    89.65951273
 Au     7   6   1     2.663338183266   144.18782366    25.32988044
 Au     8   5   1     2.667002428956    87.68242181   243.55326953
 Au    10   8   5     2.779116452994   143.88302558    35.08423839
 Au     8   5   1     2.668740617422    86.91639002     0.29602134
 Cr     4   2   1     2.704300621912    60.54851807    38.03862361

---------------------------
INTERNAL COORDINATES (A.U.)
---------------------------
 Au     0   0   0     0.000000000000     0.00000000     0.00000000
 Au     1   0   0     8.486188995225     0.00000000     0.00000000
 Au     2   1   0     5.385196258374    72.59534600     0.00000000
 Au     2   1   3     5.032179732293    36.76821843   180.82495028
 Au     1   2   3     5.041671688311    68.28233323   356.03554052
 Au     1   2   3     5.254551553318    88.68839490   147.66958404
 Au     6   1   2     5.333204916725    93.01169729   322.70399007
 Au     5   1   2     5.860075376756    87.48402202    89.65951273
 Au     7   6   1     5.032979768389   144.18782366    25.32988044
 Au     8   5   1     5.039904189229    87.68242181   243.55326953
 Au    10   8   5     5.251768990432   143.88302558    35.08423839
 Au     8   5   1     5.043188889399    86.91639002     0.29602134
 Cr     4   2   1     5.110387559206    60.54851807    38.03862361

---------------------
BASIS SET INFORMATION
---------------------
There are 2 groups of distinct atoms

 Group   1 Type Au  : 8s7p6d1f contracted to 6s4p3d1f pattern {311111/4111/411/1}
 Group   2 Type Cr  : 17s11p7d1f contracted to 6s4p4d1f pattern {842111/6311/4111/1}

Atom   0Au   basis set group =>   1
Atom   1Au   basis set group =>   1
Atom   2Au   basis set group =>   1
Atom   3Au   basis set group =>   1
Atom   4Au   basis set group =>   1
Atom   5Au   basis set group =>   1
Atom   6Au   basis set group =>   1
Atom   7Au   basis set group =>   1
Atom   8Au   basis set group =>   1
Atom   9Au   basis set group =>   1
Atom  10Au   basis set group =>   1
Atom  11Au   basis set group =>   1
Atom  12Cr   basis set group =>   2
---------------------------------
AUXILIARY/J BASIS SET INFORMATION
---------------------------------
There are 2 groups of distinct atoms

 Group   1 Type Au  : 11s5p5d3f3g contracted to 8s5p5d2f3g pattern {41111111/11111/11111/21/111}
 Group   2 Type Cr  : 19s5p5d3f3g contracted to 8s5p5d2f3g pattern {121111111/11111/11111/21/111}

Atom   0Au   basis set group =>   1
Atom   1Au   basis set group =>   1
Atom   2Au   basis set group =>   1
Atom   3Au   basis set group =>   1
Atom   4Au   basis set group =>   1
Atom   5Au   basis set group =>   1
Atom   6Au   basis set group =>   1
Atom   7Au   basis set group =>   1
Atom   8Au   basis set group =>   1
Atom   9Au   basis set group =>   1
Atom  10Au   basis set group =>   1
Atom  11Au   basis set group =>   1
Atom  12Cr   basis set group =>   2
-------------------------
ECP PARAMETER INFORMATION
-------------------------

 Group 1, Type Au ECP Def2-ECP (replacing 60 core electrons, lmax=3)

Atom   0Au   ECP group =>   1
Atom   1Au   ECP group =>   1
Atom   2Au   ECP group =>   1
Atom   3Au   ECP group =>   1
Atom   4Au   ECP group =>   1
Atom   5Au   ECP group =>   1
Atom   6Au   ECP group =>   1
Atom   7Au   ECP group =>   1
Atom   8Au   ECP group =>   1
Atom   9Au   ECP group =>   1
Atom  10Au   ECP group =>   1
Atom  11Au   ECP group =>   1



           ************************************************************
           *        Program running with 6 parallel MPI-processes     *
           *              working on a common directory               *
           ************************************************************
------------------------------------------------------------------------------
                           ORCA GTO INTEGRAL CALCULATION
                           -- RI-GTO INTEGRALS CHOSEN --
------------------------------------------------------------------------------
------------------------------------------------------------------------------
                   ___                                                        
                  /   \      - P O W E R E D   B Y -                         
                 /     \                                                     
                 |  |  |   _    _      __       _____    __    __             
                 |  |  |  | |  | |    /  \     |  _  \  |  |  /  |          
                  \  \/   | |  | |   /    \    | | | |  |  | /  /          
                 / \  \   | |__| |  /  /\  \   | |_| |  |  |/  /          
                |  |  |   |  __  | /  /__\  \  |    /   |      \           
                |  |  |   | |  | | |   __   |  |    \   |  |\   \          
                \     /   | |  | | |  |  |  |  | |\  \  |  | \   \       
                 \___/    |_|  |_| |__|  |__|  |_| \__\ |__|  \__/        
                                                                              
                      - O R C A' S   B I G   F R I E N D -                    
                                      &                                       
                       - I N T E G R A L  F E E D E R -                       
                                                                              
 v1 FN, 2020, v2 2021                                                         
------------------------------------------------------------------------------


Reading SHARK input file pbeSP.SHARKINP.tmp ... ok
----------------------
SHARK INTEGRAL PACKAGE
----------------------

Number of atoms                             ...     13
Number of basis functions                   ...    525
Number of shells                            ...    183
Maximum angular momentum                    ...      3
Integral batch strategy                     ... SHARK/LIBINT Hybrid
RI-J (if used) integral strategy            ... SPLIT-RIJ (Revised 2003 algorithm where possible)
Printlevel                                  ...      1
Contraction scheme used                     ... SEGMENTED contraction
Coulomb Range Separation                    ... NOT USED
Exchange Range Separation                   ... NOT USED
Finite Nucleus Model                        ... NOT USED
Auxiliary Coulomb fitting basis             ... AVAILABLE
   # of basis functions in Aux-J            ...   1157
   # of shells in Aux-J                     ...    299
   Maximum angular momentum in Aux-J        ...      4
Auxiliary J/K fitting basis                 ... NOT available
Auxiliary Correlation fitting basis         ... NOT available
Auxiliary 'external' fitting basis          ... NOT available
Integral threshold                          ...     1.000000e-10
Primitive cut-off                           ...     1.000000e-11
Primitive pair pre-selection threshold      ...     1.000000e-11

Calculating pre-screening integrals         ... done (  0.2 sec) Dimension = 183
Organizing shell pair data                  ... done (  0.4 sec)
Shell pair information
Total number of shell pairs                 ...     16836
Shell pairs after pre-screening             ...     13574
Total number of primitive shell pairs       ...     45389
Primitive shell pairs kept                  ...     26643
          la=0 lb=0:   2131 shell pairs
          la=1 lb=0:   3102 shell pairs
          la=1 lb=1:   1167 shell pairs
          la=2 lb=0:   2674 shell pairs
          la=2 lb=1:   1912 shell pairs
          la=2 lb=2:    786 shell pairs
          la=3 lb=0:    720 shell pairs
          la=3 lb=1:    550 shell pairs
          la=3 lb=2:    464 shell pairs
          la=3 lb=3:     68 shell pairs

Calculating one electron integrals          ... done (  0.1 sec)
Calculating ECP integrals                   ... done ( 11.8 sec)
Calculating RI/J V-Matrix + Cholesky decomp.... done (  1.3 sec)
Calculating Nuclear repulsion               ... done (  0.0 sec) ENN=   4279.760120701425 Eh

SHARK setup successfully completed in  14.7 seconds

Maximum memory used throughout the entire GTOINT-calculation: 30.6 MB


           ************************************************************
           *        Program running with 6 parallel MPI-processes     *
           *              working on a common directory               *
           ************************************************************
-------------------------------------------------------------------------------
                                 ORCA SCF
-------------------------------------------------------------------------------

------------
SCF SETTINGS
------------
Hamiltonian:
 Density Functional     Method          .... DFT(GTOs)
 Exchange Functional    Exchange        .... PBE
   PBE kappa parameter   XKappa         ....  0.804000
   PBE mue parameter    XMuePBE         ....  0.219520
 Correlation Functional Correlation     .... PBE
   PBE beta parameter  CBetaPBE         ....  0.066725
 LDA part of GGA corr.  LDAOpt          .... PW91-LDA
 Gradients option       PostSCFGGA      .... off
   Density functional embedding theory  .... OFF
   NL short-range parameter             ....  6.400000
 RI-approximation to the Coulomb term is turned on
   Number of AuxJ basis functions       .... 1157


General Settings:
 Integral files         IntName         .... pbeSP
 Hartree-Fock type      HFTyp           .... UHF
 Total Charge           Charge          ....    0
 Multiplicity           Mult            ....    5
 Number of Electrons    NEL             ....  252
 Basis Dimension        Dim             ....  525
 Nuclear Repulsion      ENuc            ....   4279.7601207014 Eh

Convergence Acceleration:
 DIIS                   CNVDIIS         .... on
   Start iteration      DIISMaxIt       ....     0
   Startup error        DIISStart       ....  0.200000
   # of expansion vecs  DIISMaxEq       ....     5
   Bias factor          DIISBfac        ....   1.050
   Max. coefficient     DIISMaxC        ....  10.000
 Trust-Rad. Augm. Hess. CNVTRAH         .... auto
   Auto Start mean grad. ratio tolernc. ....  1.125000
   Auto Start start iteration           ....   200
   Auto Start num. interpolation iter.  ....    10
   Max. Number of Micro iterations      ....    16
   Max. Number of Macro iterations      .... Maxiter - #DIIS iter
   Number of Davidson start vectors     ....     2
   Converg. threshold I  (grad. norm)   ....   5.000e-05
   Converg. threshold II (energy diff.) ....   1.000e-06
   Grad. Scal. Fac. for Micro threshold ....   0.100
   Minimum threshold for Micro iter.    ....   0.010
   NR start threshold (gradient norm)   ....   0.001
   Initial trust radius                 ....   0.400
   Minimum AH scaling param. (alpha)    ....   1.000
   Maximum AH scaling param. (alpha)    .... 1000.000
   Orbital update algorithm             .... Taylor
   White noise on init. David. guess    .... on
   Maximum white noise                  ....   0.010
   Quad. conv. algorithm                .... NR
 SOSCF                  CNVSOSCF        .... off
 Level Shifting         CNVShift        .... on
   Level shift para.    LevelShift      ....    0.2500
   Turn off err/grad.   ShiftErr        ....    0.0000
 Zerner damping         CNVZerner       .... off
 Static damping         CNVDamp         .... on
   Fraction old density DampFac         ....    0.9200
   Max. Damping (<1)    DampMax         ....    0.9800
   Min. Damping (>=0)   DampMin         ....    0.0000
   Turn off err/grad.   DampErr         ....    0.0030
 Fernandez-Rico         CNVRico         .... off

SCF Procedure:
 Maximum # iterations   MaxIter         ....   400
 SCF integral mode      SCFMode         .... Direct
   Integral package                     .... SHARK and LIBINT hybrid scheme
 Reset frequency        DirectResetFreq ....    20
 Integral Threshold     Thresh          ....  1.000e-10 Eh
 Primitive CutOff       TCut            ....  1.000e-11 Eh

Convergence Tolerance:
 Convergence Check Mode ConvCheckMode   .... Total+1el-Energy
 Convergence forced     ConvForced      .... 0
 Energy Change          TolE            ....  1.000e-06 Eh
 1-El. energy change                    ....  1.000e-03 Eh
 DIIS Error             TolErr          ....  1.000e-06


Diagonalization of the overlap matrix:
Smallest eigenvalue                        ... 2.450e-04
Time for diagonalization                   ...    0.080 sec
Threshold for overlap eigenvalues          ... 1.000e-08
Number of eigenvalues below threshold      ... 0
Time for construction of square roots      ...    0.180 sec
Total time needed                          ...    0.520 sec

Time for model grid setup =    2.921 sec

------------------------------
INITIAL GUESS: MODEL POTENTIAL
------------------------------
Loading Hartree-Fock densities                     ... done
  calling /media/Programs/ORCA501/orca pbeSP_atom79.inp > pbeSP_atom79.out in order to generate an atomic fitting density for atom 0 (Au with ECP) on-the-fly... 
    atom 0 (Au), assumed electronic state with S=2: 1s2 2s2 2p6 3s2 3p6 4s2 3d10 4p6 5s2 4d10 5p6 6s1 4f14 5d10           ... done
Calculating cut-offs                               ... done
Initializing the effective Hamiltonian             ... done
Setting up the integral package (SHARK)            ... done
Starting the Coulomb interaction                   ... done (   1.2 sec)
Reading the grid                                   ... done
Mapping shells                                     ... done
Starting the XC term evaluation                    ... done (   0.7 sec)
  promolecular density results
     # of electrons  =    972.013258564
     EX              =  -4437.083038321
     EC              =    -59.138822503
     EX+EC           =  -4496.221860823
Transforming the Hamiltonian                       ... done (   0.5 sec)
Diagonalizing the Hamiltonian                      ... done (   0.5 sec)
Back transforming the eigenvectors                 ... done (   0.0 sec)
Now organizing SCF variables                       ... done
                      ------------------
                      INITIAL GUESS DONE (   7.0 sec)
                      ------------------
-------------------
DFT GRID GENERATION
-------------------

General Integration Accuracy     IntAcc      ... 4.388
Radial Grid Type                 RadialGrid  ... OptM3 with GC (2021)
Angular Grid (max. ang.)         AngularGrid ... 4 (Lebedev-302)
Angular grid pruning method      GridPruning ... 4 (adaptive)
Weight generation scheme         WeightScheme... Becke
Basis function cutoff            BFCut       ... 1.0000e-10
Integration weight cutoff        WCut        ... 1.0000e-14
Angular grids for H and He will be reduced by one unit
Partially contracted basis set               ... off
Rotationally invariant grid construction     ... off

Total number of grid points                  ...   144659
Total number of batches                      ...     2265
Average number of points per batch           ...       63
Average number of grid points per atom       ...    11128
Time for grid setup =    3.832 sec

--------------
SCF ITERATIONS
--------------
ITER       Energy         Delta-E        Max-DP      RMS-DP      [F,P]     Damp
               ***  Starting incremental Fock matrix formation  ***
  0  -2672.7028036545   0.000000000000 0.09329065  0.00069768  0.2851750 0.9200
  1  -2673.1383372524  -0.435533597937 0.09597937  0.00068134  0.2616962 0.9200
                               ***Turning on DIIS***
  2  -2673.3627940845  -0.224456832082 0.10816579  0.00056740  0.2398026 0.9200
  3  -2673.4390355183  -0.076241433758 0.05815007  0.00042032  0.2197346 0.9200
  4  -2673.4621417547  -0.023106236438 0.02150471  0.00027017  0.2013882 0.9200
  5  -2673.5183718244  -0.056230069730 0.02737030  0.00025615  0.1845077 0.9200
  6  -2673.5621076815  -0.043735857078 0.02551631  0.00021739  0.1694457 0.9200
  7  -2673.5943031072  -0.032195425703 0.02168648  0.00020064  0.1560033 0.9200
  8  -2673.6367007341  -0.042397626915 0.02175440  0.00022855  0.1435053 0.9200
  9  -2673.6751667376  -0.038466003492 0.03052396  0.00018296  0.1318706 0.9200
 10  -2673.7083104927  -0.033143755072 0.03032697  0.00015738  0.1212806 0.9200
 11  -2673.7420470793  -0.033736586656 0.02196485  0.00014625  0.1113701 0.9200
 12  -2673.7692153129  -0.027168233598 0.01872988  0.00013447  0.1023169 0.9200
 13  -2673.7966374047  -0.027422091745 0.01506669  0.00014223  0.0940981 0.9200
 14  -2673.8240338208  -0.027396416121 0.01540142  0.00012967  0.0865116 0.9200
 15  -2673.8478135820  -0.023779761198 0.02414168  0.00011173  0.0795829 0.9200
 16  -2673.8706051466  -0.022791564597 0.02248174  0.00010849  0.0731836 0.9200
 17  -2673.8905579078  -0.019952761221 0.02146457  0.00009974  0.0672101 0.9200
 18  -2673.9093395722  -0.018781664328 0.01615812  0.00009864  0.0617823 0.9200
 19  -2673.9277305138  -0.018390941646 0.01232872  0.00009543  0.0568152 0.9200
               *** Restarting incremental Fock matrix formation ***
                                   *** Resetting DIIS ***
 20  -2673.9441943544  -0.016463840638 0.01283283  0.00008286  0.0522583 0.9200
 21  -2673.9594185552  -0.015224200748 0.01423449  0.00007446  0.0479702 0.9200
 22  -2673.9737596070  -0.014341051831 0.01529309  0.00007054  0.0440395 0.9200
 23  -2673.9869872661  -0.013227659062 0.01522444  0.00006782  0.0404705 0.9200
 24  -2673.9991364507  -0.012149184578 0.01476923  0.00006501  0.0372230 0.9200
 25  -2674.0103067179  -0.011170267250 0.01399232  0.00006100  0.0342470 0.9200
 26  -2674.0206309236  -0.010324205646 0.01336282  0.00005680  0.0314979 0.9200
 27  -2674.0302318814  -0.009600957863 0.01254790  0.00005367  0.0289595 0.9200
 28  -2674.0390781980  -0.008846316598 0.01141898  0.00005083  0.0266272 0.9200
 29  -2674.0472166063  -0.008138408318 0.01037427  0.00004778  0.0244887 0.9200
 30  -2674.0547019746  -0.007485368272 0.00979362  0.00004412  0.0225248 0.9200
 31  -2674.0616393343  -0.006937359654 0.00931827  0.00004133  0.0207158 0.9200
 32  -2674.0680541879  -0.006414853659 0.00879645  0.00003896  0.0190486 0.9200
 33  -2674.0739632838  -0.005909095885 0.00805751  0.00003670  0.0175171 0.9200
 34  -2674.0794012691  -0.005437985320 0.00741133  0.00003409  0.0161108 0.9200
 35  -2674.0844147157  -0.005013446592 0.00698171  0.00003150  0.0148179 0.9200
 36  -2674.0890532365  -0.004638520783 0.00668673  0.00002957  0.0136268 0.9200
 37  -2674.0933308759  -0.004277639381 0.00633523  0.00002782  0.0125307 0.9200
 38  -2674.0972709916  -0.003940115676 0.00586941  0.00002607  0.0115242 0.9200
 39  -2674.1008979746  -0.003626983002 0.00287030  0.00002265  0.0105995 0.9200
               *** Restarting incremental Fock matrix formation ***
                                   *** Resetting DIIS ***
 40  -2674.1042477168  -0.003349742216 0.00267482  0.00002047  0.0097484 0.9200
 41  -2674.1073406208  -0.003092904017 0.00266758  0.00001894  0.0089508 0.9200
 42  -2674.1101899327  -0.002849311895 0.00280518  0.00001792  0.0082211 0.9200
 43  -2674.1128128635  -0.002622930782 0.00294789  0.00001708  0.0075573 0.9200
 44  -2674.1152283562  -0.002415492755 0.00304446  0.00001624  0.0069511 0.9200
 45  -2674.1174547123  -0.002226356038 0.00300623  0.00001534  0.0063944 0.9200
 46  -2674.1195065063  -0.002051794077 0.00282589  0.00001449  0.0058805 0.9200
 47  -2674.1213961273  -0.001889620994 0.00271663  0.00001367  0.0054077 0.9200
 48  -2674.1231359495  -0.001739822188 0.00283515  0.00001282  0.0049735 0.9200
 49  -2674.1247387412  -0.001602791714 0.00288653  0.00001204  0.0045745 0.9200
 50  -2674.1262157918  -0.001477050612 0.00282797  0.00001133  0.0042072 0.9200
 51  -2674.1275762747  -0.001360482832 0.00270051  0.00001063  0.0038692 0.9200
 52  -2674.1288290301  -0.001252755404 0.00256458  0.00000992  0.0035586 0.9200
 53  -2674.1299825438  -0.001153513712 0.00245414  0.00000922  0.0032730 0.9200
 54  -2674.1310451235  -0.001062579731 0.00233911  0.00000861  0.0030103 0.9200
 55  -2674.1320238473  -0.000978723822 0.02758840  0.00010065  0.0027685 0.0000
 56  -2674.1433513073  -0.011327459935 0.00377501  0.00001150  0.0004716 0.0000
 57  -2674.1433391013   0.000012205932 0.00172964  0.00000528  0.0015670 0.0000
 58  -2674.1433514366  -0.000012335218 0.00071027  0.00000305  0.0008687 0.0000
 59  -2674.1433556697  -0.000004233103 0.01917566  0.00003359  0.0004093 0.0000
               *** Restarting incremental Fock matrix formation ***
                                   *** Resetting DIIS ***
 60  -2674.1433574760  -0.000001806379 0.00182761  0.00000417  0.0001853 0.0000
 61  -2674.1433571647   0.000000311364 0.00060885  0.00000179  0.0003692 0.0000
 62  -2674.1433580904  -0.000000925762 0.00053999  0.00000146  0.0002840 0.0000
 63  -2674.1433584969  -0.000000406456 0.00084374  0.00000200  0.0002285 0.0000
 64  -2674.1433589263  -0.000000429433 0.00139207  0.00000294  0.0001745 0.0000
 65  -2674.1433592666  -0.000000340236 0.00153366  0.00000323  0.0000949 0.0000
 66  -2674.1433594792  -0.000000212606 0.00068195  0.00000119  0.0000410 0.0000
                 **** Energy Check signals convergence ****

               *****************************************************
               *                     SUCCESS                       *
               *           SCF CONVERGED AFTER  67 CYCLES          *
               *****************************************************


----------------
TOTAL SCF ENERGY
----------------

Total Energy       :        -2674.14335934 Eh          -72767.14022 eV

Components:
Nuclear Repulsion  :         4279.76012070 Eh          116458.19350 eV
Electronic Energy  :        -6953.90348004 Eh         -189225.33372 eV
One Electron Energy:       -12850.93460051 Eh         -349691.70846 eV
Two Electron Energy:         5897.03112047 Eh          160466.37474 eV

Virial components:
Potential Energy   :        -4266.23886574 Eh         -116090.26145 eV
Kinetic Energy     :         1592.09550639 Eh           43323.12123 eV
Virial Ratio       :            2.67963753


DFT components:
N(Alpha)           :      128.000018377156 electrons
N(Beta)            :      124.000017299270 electrons
N(Total)           :      252.000035676426 electrons
E(X)               :     -192.032708903328 Eh       
E(C)               :      -10.950138561243 Eh       
E(XC)              :     -202.982847464571 Eh       
DFET-embed. en.    :        0.000000000000 Eh       

---------------
SCF CONVERGENCE
---------------

  Last Energy change         ...    1.3566e-07  Tolerance :   1.0000e-06
  Last MAX-Density change    ...    4.1493e-04  Tolerance :   1.0000e-05
  Last RMS-Density change    ...    8.3336e-07  Tolerance :   1.0000e-06
  Last DIIS Error            ...    2.9451e-05  Tolerance :   1.0000e-06

             **** THE GBW FILE WAS UPDATED (pbeSP.gbw) ****
             **** DENSITY pbeSP.scfp WAS UPDATED ****
             **** ENERGY FILE WAS UPDATED (pbeSP.en.tmp) ****
----------------------
UHF SPIN CONTAMINATION
----------------------

Warning: in a DFT calculation there is little theoretical justification to 
         calculate <S**2> as in Hartree-Fock theory. We will do it anyways
         but you should keep in mind that the values have only limited relevance

Expectation value of <S**2>     :     6.236002
Ideal value S*(S+1) for S=2.0   :     6.000000
Deviation                       :     0.236002

             **** THE GBW FILE WAS UPDATED (pbeSP.gbw) ****
             **** DENSITY pbeSP.scfp WAS UPDATED ****
----------------
ORBITAL ENERGIES
----------------
                 SPIN UP ORBITALS
  NO   OCC          E(Eh)            E(eV) 
   0   1.0000    -214.493801     -5836.6730 
   1   1.0000     -24.295394      -661.1113 
   2   1.0000     -20.663010      -562.2691 
   3   1.0000     -20.656523      -562.0926 
   4   1.0000     -20.656121      -562.0816 
   5   1.0000      -4.024806      -109.5205 
   6   1.0000      -4.024757      -109.5192 
   7   1.0000      -4.024689      -109.5174 
   8   1.0000      -4.024676      -109.5170 
   9   1.0000      -4.024626      -109.5156 
  10   1.0000      -4.024588      -109.5146 
  11   1.0000      -4.024435      -109.5104 
  12   1.0000      -4.024381      -109.5090 
  13   1.0000      -4.023431      -109.4831 
  14   1.0000      -4.023380      -109.4817 
  15   1.0000      -4.022047      -109.4455 
  16   1.0000      -4.021893      -109.4413 
  17   1.0000      -2.799371       -76.1748 
  18   1.0000      -2.243977       -61.0617 
  19   1.0000      -2.243735       -61.0551 
  20   1.0000      -2.242858       -61.0313 
  21   1.0000      -2.242357       -61.0176 
  22   1.0000      -2.241984       -61.0075 
  23   1.0000      -2.241339       -60.9899 
  24   1.0000      -2.240248       -60.9602 
  25   1.0000      -2.240169       -60.9581 
  26   1.0000      -2.239381       -60.9367 
  27   1.0000      -2.239152       -60.9304 
  28   1.0000      -2.239071       -60.9282 
  29   1.0000      -2.238933       -60.9245 
  30   1.0000      -2.238913       -60.9239 
  31   1.0000      -2.238537       -60.9137 
  32   1.0000      -2.237522       -60.8861 
  33   1.0000      -2.237095       -60.8744 
  34   1.0000      -2.236939       -60.8702 
  35   1.0000      -2.236846       -60.8677 
  36   1.0000      -2.236636       -60.8619 
  37   1.0000      -2.236592       -60.8608 
  38   1.0000      -2.236291       -60.8526 
  39   1.0000      -2.236091       -60.8471 
  40   1.0000      -2.235327       -60.8263 
  41   1.0000      -2.235123       -60.8208 
  42   1.0000      -2.234801       -60.8120 
  43   1.0000      -2.234624       -60.8072 
  44   1.0000      -2.233502       -60.7767 
  45   1.0000      -2.233397       -60.7738 
  46   1.0000      -2.233386       -60.7735 
  47   1.0000      -2.233190       -60.7682 
  48   1.0000      -2.232669       -60.7540 
  49   1.0000      -2.232227       -60.7420 
  50   1.0000      -2.231776       -60.7297 
  51   1.0000      -2.231310       -60.7170 
  52   1.0000      -2.229963       -60.6804 
  53   1.0000      -2.229204       -60.6597 
  54   1.0000      -1.794784       -48.8386 
  55   1.0000      -1.786558       -48.6147 
  56   1.0000      -1.785300       -48.5805 
  57   1.0000      -0.414166       -11.2700 
  58   1.0000      -0.385962       -10.5026 
  59   1.0000      -0.370564       -10.0835 
  60   1.0000      -0.366909        -9.9841 
  61   1.0000      -0.363575        -9.8934 
  62   1.0000      -0.359401        -9.7798 
  63   1.0000      -0.357177        -9.7193 
  64   1.0000      -0.353509        -9.6195 
  65   1.0000      -0.351535        -9.5658 
  66   1.0000      -0.345809        -9.4099 
  67   1.0000      -0.345014        -9.3883 
  68   1.0000      -0.340588        -9.2679 
  69   1.0000      -0.338426        -9.2090 
  70   1.0000      -0.337723        -9.1899 
  71   1.0000      -0.337161        -9.1746 
  72   1.0000      -0.335615        -9.1326 
  73   1.0000      -0.331614        -9.0237 
  74   1.0000      -0.330821        -9.0021 
  75   1.0000      -0.329472        -8.9654 
  76   1.0000      -0.328960        -8.9515 
  77   1.0000      -0.325602        -8.8601 
  78   1.0000      -0.321951        -8.7607 
  79   1.0000      -0.319072        -8.6824 
  80   1.0000      -0.310061        -8.4372 
  81   1.0000      -0.307417        -8.3652 
  82   1.0000      -0.307076        -8.3560 
  83   1.0000      -0.305272        -8.3069 
  84   1.0000      -0.302810        -8.2399 
  85   1.0000      -0.302685        -8.2365 
  86   1.0000      -0.298113        -8.1121 
  87   1.0000      -0.297353        -8.0914 
  88   1.0000      -0.292346        -7.9551 
  89   1.0000      -0.290973        -7.9178 
  90   1.0000      -0.289998        -7.8913 
  91   1.0000      -0.289630        -7.8812 
  92   1.0000      -0.288508        -7.8507 
  93   1.0000      -0.288093        -7.8394 
  94   1.0000      -0.284749        -7.7484 
  95   1.0000      -0.281921        -7.6715 
  96   1.0000      -0.280937        -7.6447 
  97   1.0000      -0.280265        -7.6264 
  98   1.0000      -0.272050        -7.4029 
  99   1.0000      -0.269077        -7.3220 
 100   1.0000      -0.268867        -7.3163 
 101   1.0000      -0.264641        -7.2012 
 102   1.0000      -0.264091        -7.1863 
 103   1.0000      -0.261823        -7.1246 
 104   1.0000      -0.261364        -7.1121 
 105   1.0000      -0.260052        -7.0764 
 106   1.0000      -0.259890        -7.0720 
 107   1.0000      -0.258119        -7.0238 
 108   1.0000      -0.257407        -7.0044 
 109   1.0000      -0.257099        -6.9960 
 110   1.0000      -0.253339        -6.8937 
 111   1.0000      -0.251525        -6.8443 
 112   1.0000      -0.249719        -6.7952 
 113   1.0000      -0.248812        -6.7705 
 114   1.0000      -0.248304        -6.7567 
 115   1.0000      -0.244534        -6.6541 
 116   1.0000      -0.241275        -6.5654 
 117   1.0000      -0.240053        -6.5322 
 118   1.0000      -0.237114        -6.4522 
 119   1.0000      -0.233442        -6.3523 
 120   1.0000      -0.229660        -6.2494 
 121   1.0000      -0.227421        -6.1884 
 122   1.0000      -0.218669        -5.9503 
 123   1.0000      -0.212031        -5.7697 
 124   1.0000      -0.210389        -5.7250 
 125   1.0000      -0.209323        -5.6960 
 126   1.0000      -0.192918        -5.2496 
 127   1.0000      -0.177412        -4.8276 
 128   0.0000      -0.172105        -4.6832 
 129   0.0000      -0.165785        -4.5113 
 130   0.0000      -0.139538        -3.7970 
 131   0.0000      -0.133778        -3.6403 
 132   0.0000      -0.120323        -3.2741 
 133   0.0000      -0.117663        -3.2018 
 134   0.0000      -0.108422        -2.9503 
 135   0.0000      -0.081947        -2.2299 
 136   0.0000      -0.064318        -1.7502 
 137   0.0000      -0.062560        -1.7023 
 138   0.0000      -0.057011        -1.5513 
 139   0.0000      -0.045950        -1.2504 
 140   0.0000      -0.045713        -1.2439 
 141   0.0000      -0.029925        -0.8143 
 142   0.0000      -0.019406        -0.5281 
 143   0.0000      -0.009335        -0.2540 
 144   0.0000      -0.007388        -0.2010 
 145   0.0000       0.018525         0.5041 
 146   0.0000       0.023541         0.6406 
 147   0.0000       0.024919         0.6781 
 148   0.0000       0.025367         0.6903 
 149   0.0000       0.028213         0.7677 
 150   0.0000       0.041703         1.1348 
 151   0.0000       0.043745         1.1903 
 152   0.0000       0.050568         1.3760 
 153   0.0000       0.052891         1.4392 
 154   0.0000       0.054766         1.4903 
 155   0.0000       0.062174         1.6918 
 156   0.0000       0.063956         1.7403 
 157   0.0000       0.066581         1.8118 
 158   0.0000       0.069066         1.8794 
 159   0.0000       0.069158         1.8819 
 160   0.0000       0.080086         2.1793 
 161   0.0000       0.083815         2.2807 
 162   0.0000       0.090653         2.4668 
 163   0.0000       0.094775         2.5790 
 164   0.0000       0.104539         2.8446 
 165   0.0000       0.106354         2.8940 
 166   0.0000       0.108489         2.9521 
 167   0.0000       0.124205         3.3798 
 168   0.0000       0.125406         3.4125 
 169   0.0000       0.130511         3.5514 
 170   0.0000       0.132969         3.6183 
 171   0.0000       0.142136         3.8677 
 172   0.0000       0.143855         3.9145 
 173   0.0000       0.146721         3.9925 
 174   0.0000       0.154126         4.1940 
 175   0.0000       0.156630         4.2621 
 176   0.0000       0.163936         4.4609 
 177   0.0000       0.168967         4.5978 
 178   0.0000       0.174937         4.7603 
 179   0.0000       0.176386         4.7997 
 180   0.0000       0.201129         5.4730 
 181   0.0000       0.207637         5.6501 
 182   0.0000       0.209320         5.6959 
 183   0.0000       0.218761         5.9528 
 184   0.0000       0.227597         6.1932 
 185   0.0000       0.230329         6.2676 
 186   0.0000       0.232177         6.3179 
 187   0.0000       0.244542         6.6543 
 188   0.0000       0.244674         6.6579 
 189   0.0000       0.246876         6.7178 
 190   0.0000       0.254178         6.9165 
 191   0.0000       0.263966         7.1829 
 192   0.0000       0.264904         7.2084 
 193   0.0000       0.268942         7.3183 
 194   0.0000       0.273591         7.4448 
 195   0.0000       0.284640         7.7454 
 196   0.0000       0.285185         7.7603 
 197   0.0000       0.285308         7.7636 
 198   0.0000       0.293297         7.9810 
 199   0.0000       0.295697         8.0463 
 200   0.0000       0.301252         8.1975 
 201   0.0000       0.302192         8.2231 
 202   0.0000       0.302545         8.2327 
 203   0.0000       0.309550         8.4233 
 204   0.0000       0.312776         8.5111 
 205   0.0000       0.315913         8.5964 
 206   0.0000       0.322958         8.7881 
 207   0.0000       0.331074         9.0090 
 208   0.0000       0.340536         9.2665 
 209   0.0000       0.340594         9.2680 
 210   0.0000       0.348378         9.4799 
 211   0.0000       0.354158         9.6371 
 212   0.0000       0.357495         9.7279 
 213   0.0000       0.361794         9.8449 
 214   0.0000       0.365116         9.9353 
 215   0.0000       0.367905        10.0112 
 216   0.0000       0.374006        10.1772 
 217   0.0000       0.380675        10.3587 
 218   0.0000       0.386882        10.5276 
 219   0.0000       0.387305        10.5391 
 220   0.0000       0.387524        10.5451 
 221   0.0000       0.394841        10.7442 
 222   0.0000       0.402015        10.9394 
 223   0.0000       0.412145        11.2150 
 224   0.0000       0.415078        11.2949 
 225   0.0000       0.420793        11.4504 
 226   0.0000       0.421962        11.4822 
 227   0.0000       0.424151        11.5417 
 228   0.0000       0.434999        11.8369 
 229   0.0000       0.438122        11.9219 
 230   0.0000       0.440961        11.9992 
 231   0.0000       0.441519        12.0143 
 232   0.0000       0.448428        12.2024 
 233   0.0000       0.451127        12.2758 
 234   0.0000       0.461818        12.5667 
 235   0.0000       0.474583        12.9141 
 236   0.0000       0.483891        13.1673 
 237   0.0000       0.485598        13.2138 
 238   0.0000       0.485879        13.2214 
 239   0.0000       0.488609        13.2957 
 240   0.0000       0.488847        13.3022 
 241   0.0000       0.496898        13.5213 
 242   0.0000       0.506642        13.7864 
 243   0.0000       0.508219        13.8294 
 244   0.0000       0.515346        14.0233 
 245   0.0000       0.520011        14.1502 
 246   0.0000       0.525914        14.3108 
 247   0.0000       0.526417        14.3245 
 248   0.0000       0.542162        14.7530 
 249   0.0000       0.543642        14.7932 
 250   0.0000       0.549469        14.9518 
 251   0.0000       0.557958        15.1828 
 252   0.0000       0.564016        15.3477 
 253   0.0000       0.573805        15.6140 
 254   0.0000       0.584957        15.9175 
 255   0.0000       0.600855        16.3501 
 256   0.0000       0.604714        16.4551 
 257   0.0000       0.649580        17.6760 
 258   0.0000       0.671251        18.2657 
 259   0.0000       0.682318        18.5668 
 260   0.0000       0.688430        18.7331 
 261   0.0000       0.709303        19.3011 
 262   0.0000       0.728164        19.8143 
 263   0.0000       0.748193        20.3594 
 264   0.0000       0.748399        20.3650 
 265   0.0000       0.754815        20.5396 
 266   0.0000       0.759035        20.6544 
 267   0.0000       0.765578        20.8324 
 268   0.0000       0.774076        21.0637 
 269   0.0000       0.785979        21.3876 
 270   0.0000       0.805962        21.9313 
 271   0.0000       0.812681        22.1142 
 272   0.0000       0.813125        22.1263 
 273   0.0000       0.818745        22.2792 
 274   0.0000       0.824019        22.4227 
 275   0.0000       0.824685        22.4408 
 276   0.0000       0.834930        22.7196 
 277   0.0000       0.847458        23.0605 
 278   0.0000       0.862031        23.4571 
 279   0.0000       0.867449        23.6045 
 280   0.0000       0.871157        23.7054 
 281   0.0000       0.876818        23.8594 
 282   0.0000       0.890085        24.2205 
 283   0.0000       0.895677        24.3726 
 284   0.0000       0.916730        24.9455 
 285   0.0000       0.924046        25.1446 
 286   0.0000       0.924619        25.1602 
 287   0.0000       0.939583        25.5674 
 288   0.0000       0.981912        26.7192 
 289   0.0000       1.062579        28.9143 
 290   0.0000       1.070801        29.1380 
 291   0.0000       1.090981        29.6871 
 292   0.0000       1.146261        31.1914 
 293   0.0000       1.176097        32.0032 
 294   0.0000       1.204124        32.7659 
 295   0.0000       1.206946        32.8427 
 296   0.0000       1.232880        33.5484 
 297   0.0000       1.233453        33.5640 
 298   0.0000       1.255715        34.1698 
 299   0.0000       1.271540        34.6004 
 300   0.0000       1.286626        35.0109 
 301   0.0000       1.296086        35.2683 
 302   0.0000       1.310847        35.6700 
 303   0.0000       1.311961        35.7003 
 304   0.0000       1.325880        36.0790 
 305   0.0000       1.334092        36.3025 
 306   0.0000       1.342245        36.5243 
 307   0.0000       1.353671        36.8353 
 308   0.0000       1.362416        37.0732 
 309   0.0000       1.375647        37.4333 
 310   0.0000       1.377918        37.4950 
 311   0.0000       1.378502        37.5110 
 312   0.0000       1.380168        37.5563 
 313   0.0000       1.387905        37.7668 
 314   0.0000       1.390771        37.8448 
 315   0.0000       1.398346        38.0509 
 316   0.0000       1.400468        38.1087 
 317   0.0000       1.401910        38.1479 
 318   0.0000       1.405069        38.2339 
 319   0.0000       1.409992        38.3678 
 320   0.0000       1.411306        38.4036 
 321   0.0000       1.412744        38.4427 
 322   0.0000       1.415879        38.5280 
 323   0.0000       1.426293        38.8114 
 324   0.0000       1.429757        38.9057 
 325   0.0000       1.436622        39.0925 
 326   0.0000       1.437491        39.1161 
 327   0.0000       1.443860        39.2894 
 328   0.0000       1.448642        39.4196 
 329   0.0000       1.452430        39.5226 
 330   0.0000       1.455096        39.5952 
 331   0.0000       1.455396        39.6033 
 332   0.0000       1.465834        39.8874 
 333   0.0000       1.471851        40.0511 
 334   0.0000       1.472964        40.0814 
 335   0.0000       1.474066        40.1114 
 336   0.0000       1.474630        40.1267 
 337   0.0000       1.482911        40.3521 
 338   0.0000       1.484742        40.4019 
 339   0.0000       1.485259        40.4160 
 340   0.0000       1.485436        40.4208 
 341   0.0000       1.487064        40.4651 
 342   0.0000       1.489975        40.5443 
 343   0.0000       1.492946        40.6251 
 344   0.0000       1.495706        40.7002 
 345   0.0000       1.496192        40.7135 
 346   0.0000       1.496521        40.7224 
 347   0.0000       1.497269        40.7428 
 348   0.0000       1.497774        40.7565 
 349   0.0000       1.499584        40.8058 
 350   0.0000       1.500762        40.8378 
 351   0.0000       1.501179        40.8491 
 352   0.0000       1.501733        40.8642 
 353   0.0000       1.504215        40.9318 
 354   0.0000       1.504310        40.9343 
 355   0.0000       1.506423        40.9918 
 356   0.0000       1.509827        41.0845 
 357   0.0000       1.511928        41.1416 
 358   0.0000       1.514334        41.2071 
 359   0.0000       1.516705        41.2717 
 360   0.0000       1.518645        41.3244 
 361   0.0000       1.521394        41.3992 
 362   0.0000       1.523981        41.4696 
 363   0.0000       1.524243        41.4768 
 364   0.0000       1.524441        41.4821 
 365   0.0000       1.525243        41.5040 
 366   0.0000       1.528857        41.6023 
 367   0.0000       1.533552        41.7301 
 368   0.0000       1.535231        41.7758 
 369   0.0000       1.535847        41.7925 
 370   0.0000       1.537750        41.8443 
 371   0.0000       1.537926        41.8491 
 372   0.0000       1.543949        42.0130 
 373   0.0000       1.545884        42.0657 
 374   0.0000       1.547117        42.0992 
 375   0.0000       1.547801        42.1178 
 376   0.0000       1.548605        42.1397 
 377   0.0000       1.548986        42.1500 
 378   0.0000       1.551383        42.2153 
 379   0.0000       1.552016        42.2325 
 380   0.0000       1.552638        42.2494 
 381   0.0000       1.559058        42.4241 
 382   0.0000       1.565386        42.5963 
 383   0.0000       1.567002        42.6403 
 384   0.0000       1.567587        42.6562 
 385   0.0000       1.568273        42.6749 
 386   0.0000       1.570298        42.7300 
 387   0.0000       1.573681        42.8220 
 388   0.0000       1.575514        42.8719 
 389   0.0000       1.582140        43.0522 
 390   0.0000       1.584959        43.1289 
 391   0.0000       1.585675        43.1484 
 392   0.0000       1.585835        43.1528 
 393   0.0000       1.588349        43.2212 
 394   0.0000       1.591944        43.3190 
 395   0.0000       1.593859        43.3711 
 396   0.0000       1.597653        43.4744 
 397   0.0000       1.602368        43.6027 
 398   0.0000       1.603877        43.6437 
 399   0.0000       1.607181        43.7336 
 400   0.0000       1.612702        43.8839 
 401   0.0000       1.617208        44.0065 
 402   0.0000       1.622780        44.1581 
 403   0.0000       1.625132        44.2221 
 404   0.0000       1.625761        44.2392 
 405   0.0000       1.628280        44.3077 
 406   0.0000       1.629883        44.3514 
 407   0.0000       1.633001        44.4362 
 408   0.0000       1.634889        44.4876 
 409   0.0000       1.636643        44.5353 
 410   0.0000       1.647921        44.8422 
 411   0.0000       1.655997        45.0620 
 412   0.0000       1.659961        45.1698 
 413   0.0000       1.663493        45.2659 
 414   0.0000       1.666470        45.3470 
 415   0.0000       1.693197        46.0742 
 416   0.0000       1.693383        46.0793 
 417   0.0000       1.696126        46.1539 
 418   0.0000       1.723032        46.8861 
 419   0.0000       1.723959        46.9113 
 420   0.0000       1.739640        47.3380 
 421   0.0000       1.756991        47.8102 
 422   0.0000       1.773875        48.2696 
 423   0.0000       1.779394        48.4198 
 424   0.0000       1.779971        48.4355 
 425   0.0000       1.793243        48.7966 
 426   0.0000       1.804078        49.0915 
 427   0.0000       1.815936        49.4141 
 428   0.0000       1.825691        49.6796 
 429   0.0000       1.826344        49.6974 
 430   0.0000       1.834093        49.9082 
 431   0.0000       1.847811        50.2815 
 432   0.0000       1.861979        50.6670 
 433   0.0000       1.874872        51.0179 
 434   0.0000       1.928667        52.4817 
 435   0.0000       1.935481        52.6671 
 436   0.0000       1.947024        52.9812 
 437   0.0000       1.957782        53.2740 
 438   0.0000       2.067862        56.2694 
 439   0.0000       2.112186        57.4755 
 440   0.0000       2.175251        59.1916 
 441   0.0000       2.179321        59.3023 
 442   0.0000       2.253382        61.3176 
 443   0.0000       2.260396        61.5085 
 444   0.0000       2.264668        61.6247 
 445   0.0000       2.357509        64.1511 
 446   0.0000       2.359780        64.2129 
 447   0.0000       2.399728        65.2999 
 448   0.0000       2.407161        65.5022 
 449   0.0000       2.428431        66.0810 
 450   0.0000       2.446655        66.5769 
 451   0.0000       2.505703        68.1837 
 452   0.0000       2.510337        68.3097 
 453   0.0000       2.514709        68.4287 
 454   0.0000       2.523263        68.6615 
 455   0.0000       2.590488        70.4908 
 456   0.0000       2.685291        73.0705 
 457   0.0000       2.828885        76.9779 
 458   0.0000       2.829421        76.9925 
 459   0.0000       2.837479        77.2117 
 460   0.0000       2.840455        77.2927 
 461   0.0000       2.864519        77.9475 
 462   0.0000       2.869342        78.0788 
 463   0.0000       2.878004        78.3145 
 464   0.0000       2.888265        78.5937 
 465   0.0000      23.834284       648.5638 
 466   0.0000      23.839069       648.6940 
 467   0.0000      23.963217       652.0723 
 468   0.0000      24.003416       653.1661 
 469   0.0000      24.247765       659.8152 
 470   0.0000      24.578227       668.8076 
 471   0.0000      24.730100       672.9402 
 472   0.0000      24.748717       673.4468 
 473   0.0000      25.133708       683.9230 
 474   0.0000      25.365952       690.2427 
 475   0.0000      25.542235       695.0395 
 476   0.0000      25.690364       699.0704 
 477   0.0000      25.737465       700.3520 
 478   0.0000      26.021813       708.0895 
 479   0.0000      26.027390       708.2413 
 480   0.0000      26.120118       710.7645 
 481   0.0000      26.181522       712.4354 
 482   0.0000      26.209532       713.1976 
 483   0.0000      26.245030       714.1636 
 484   0.0000      26.268579       714.8044 
 485   0.0000      26.427466       719.1279 
 486   0.0000      26.459636       720.0033 
 487   0.0000      26.510251       721.3806 
 488   0.0000      26.602983       723.9040 
 489   0.0000      26.708477       726.7746 
 490   0.0000      26.777076       728.6413 
 491   0.0000      26.823342       729.9003 
 492   0.0000      27.008872       734.9488 
 493   0.0000      27.055367       736.2140 
 494   0.0000      27.129812       738.2397 
 495   0.0000      27.649733       752.3875 
 496   0.0000      27.796119       756.3709 
 497   0.0000      28.196190       767.2573 
 498   0.0000      28.437307       773.8185 
 499   0.0000      28.634267       779.1780 
 500   0.0000      28.922657       787.0255 
 501   0.0000      43.894671      1194.4347 
 502   0.0000      43.944195      1195.7823 
 503   0.0000      43.964375      1196.3315 
 504   0.0000      43.984849      1196.8886 
 505   0.0000      44.068036      1199.1522 
 506   0.0000      44.099189      1199.9999 
 507   0.0000      44.119706      1200.5582 
 508   0.0000      44.134989      1200.9741 
 509   0.0000      44.157886      1201.5972 
 510   0.0000      44.182852      1202.2765 
 511   0.0000      44.236215      1203.7286 
 512   0.0000      44.241524      1203.8731 
 513   0.0000     205.089768      5580.7763 
 514   0.0000     205.109385      5581.3101 
 515   0.0000     205.119496      5581.5852 
 516   0.0000     205.127003      5581.7895 
 517   0.0000     205.161436      5582.7265 
 518   0.0000     205.174377      5583.0786 
 519   0.0000     205.182702      5583.3052 
 520   0.0000     205.188560      5583.4646 
 521   0.0000     205.192639      5583.5756 
 522   0.0000     205.202578      5583.8460 
 523   0.0000     205.233892      5584.6981 
 524   0.0000     205.235795      5584.7499 

                 SPIN DOWN ORBITALS
  NO   OCC          E(Eh)            E(eV) 
   0   1.0000    -214.493369     -5836.6613 
   1   1.0000     -24.248662      -659.8397 
   2   1.0000     -20.629886      -561.3677 
   3   1.0000     -20.619982      -561.0982 
   4   1.0000     -20.618670      -561.0625 
   5   1.0000      -4.023764      -109.4922 
   6   1.0000      -4.023716      -109.4909 
   7   1.0000      -4.023624      -109.4884 
   8   1.0000      -4.023598      -109.4877 
   9   1.0000      -4.023548      -109.4863 
  10   1.0000      -4.023496      -109.4849 
  11   1.0000      -4.023306      -109.4797 
  12   1.0000      -4.023254      -109.4783 
  13   1.0000      -4.022363      -109.4540 
  14   1.0000      -4.022317      -109.4528 
  15   1.0000      -4.020985      -109.4166 
  16   1.0000      -4.020843      -109.4127 
  17   1.0000      -2.673410       -72.7472 
  18   1.0000      -2.242880       -61.0319 
  19   1.0000      -2.242638       -61.0253 
  20   1.0000      -2.241900       -61.0052 
  21   1.0000      -2.241410       -60.9919 
  22   1.0000      -2.240994       -60.9805 
  23   1.0000      -2.240374       -60.9637 
  24   1.0000      -2.238779       -60.9203 
  25   1.0000      -2.238729       -60.9189 
  26   1.0000      -2.237854       -60.8951 
  27   1.0000      -2.237828       -60.8944 
  28   1.0000      -2.237721       -60.8915 
  29   1.0000      -2.237509       -60.8857 
  30   1.0000      -2.237465       -60.8845 
  31   1.0000      -2.237162       -60.8763 
  32   1.0000      -2.236088       -60.8470 
  33   1.0000      -2.235625       -60.8345 
  34   1.0000      -2.235579       -60.8332 
  35   1.0000      -2.235394       -60.8282 
  36   1.0000      -2.235333       -60.8265 
  37   1.0000      -2.235248       -60.8242 
  38   1.0000      -2.235069       -60.8193 
  39   1.0000      -2.234876       -60.8141 
  40   1.0000      -2.234127       -60.7937 
  41   1.0000      -2.233973       -60.7895 
  42   1.0000      -2.233789       -60.7845 
  43   1.0000      -2.233683       -60.7816 
  44   1.0000      -2.232823       -60.7582 
  45   1.0000      -2.232597       -60.7520 
  46   1.0000      -2.232489       -60.7491 
  47   1.0000      -2.232392       -60.7465 
  48   1.0000      -2.231609       -60.7252 
  49   1.0000      -2.231176       -60.7134 
  50   1.0000      -2.230731       -60.7013 
  51   1.0000      -2.230288       -60.6892 
  52   1.0000      -2.228827       -60.6495 
  53   1.0000      -2.228088       -60.6294 
  54   1.0000      -1.679088       -45.6903 
  55   1.0000      -1.659387       -45.1542 
  56   1.0000      -1.655792       -45.0564 
  57   1.0000      -0.407192       -11.0803 
  58   1.0000      -0.383671       -10.4402 
  59   1.0000      -0.365554        -9.9472 
  60   1.0000      -0.365152        -9.9363 
  61   1.0000      -0.360850        -9.8192 
  62   1.0000      -0.356435        -9.6991 
  63   1.0000      -0.352765        -9.5992 
  64   1.0000      -0.350549        -9.5389 
  65   1.0000      -0.348868        -9.4932 
  66   1.0000      -0.343220        -9.3395 
  67   1.0000      -0.342876        -9.3301 
  68   1.0000      -0.336631        -9.1602 
  69   1.0000      -0.336130        -9.1466 
  70   1.0000      -0.335732        -9.1357 
  71   1.0000      -0.334066        -9.0904 
  72   1.0000      -0.333189        -9.0665 
  73   1.0000      -0.330493        -8.9932 
  74   1.0000      -0.329437        -8.9644 
  75   1.0000      -0.328418        -8.9367 
  76   1.0000      -0.319852        -8.7036 
  77   1.0000      -0.319175        -8.6852 
  78   1.0000      -0.318308        -8.6616 
  79   1.0000      -0.316837        -8.6216 
  80   1.0000      -0.309301        -8.4165 
  81   1.0000      -0.306890        -8.3509 
  82   1.0000      -0.305778        -8.3206 
  83   1.0000      -0.301928        -8.2159 
  84   1.0000      -0.300926        -8.1886 
  85   1.0000      -0.299728        -8.1560 
  86   1.0000      -0.297102        -8.0846 
  87   1.0000      -0.295919        -8.0524 
  88   1.0000      -0.291689        -7.9372 
  89   1.0000      -0.290493        -7.9047 
  90   1.0000      -0.287557        -7.8248 
  91   1.0000      -0.287492        -7.8231 
  92   1.0000      -0.286599        -7.7987 
  93   1.0000      -0.285830        -7.7778 
  94   1.0000      -0.283652        -7.7186 
  95   1.0000      -0.280880        -7.6431 
  96   1.0000      -0.280263        -7.6263 
  97   1.0000      -0.277631        -7.5547 
  98   1.0000      -0.270815        -7.3693 
  99   1.0000      -0.268066        -7.2944 
 100   1.0000      -0.267406        -7.2765 
 101   1.0000      -0.263192        -7.1618 
 102   1.0000      -0.262982        -7.1561 
 103   1.0000      -0.260733        -7.0949 
 104   1.0000      -0.260186        -7.0800 
 105   1.0000      -0.259237        -7.0542 
 106   1.0000      -0.259143        -7.0516 
 107   1.0000      -0.256760        -6.9868 
 108   1.0000      -0.256128        -6.9696 
 109   1.0000      -0.255431        -6.9506 
 110   1.0000      -0.252426        -6.8688 
 111   1.0000      -0.250431        -6.8146 
 112   1.0000      -0.248890        -6.7726 
 113   1.0000      -0.247574        -6.7368 
 114   1.0000      -0.245932        -6.6921 
 115   1.0000      -0.243673        -6.6307 
 116   1.0000      -0.240140        -6.5345 
 117   1.0000      -0.238419        -6.4877 
 118   1.0000      -0.235454        -6.4070 
 119   1.0000      -0.232288        -6.3209 
 120   1.0000      -0.228275        -6.2117 
 121   1.0000      -0.221883        -6.0377 
 122   1.0000      -0.199514        -5.4291 
 123   1.0000      -0.196359        -5.3432 
 124   0.0000      -0.192396        -5.2354 
 125   0.0000      -0.143783        -3.9125 
 126   0.0000      -0.132247        -3.5986 
 127   0.0000      -0.120350        -3.2749 
 128   0.0000      -0.118321        -3.2197 
 129   0.0000      -0.117441        -3.1957 
 130   0.0000      -0.110959        -3.0193 
 131   0.0000      -0.109159        -2.9704 
 132   0.0000      -0.099543        -2.7087 
 133   0.0000      -0.096289        -2.6202 
 134   0.0000      -0.094637        -2.5752 
 135   0.0000      -0.065544        -1.7835 
 136   0.0000      -0.059675        -1.6239 
 137   0.0000      -0.058226        -1.5844 
 138   0.0000      -0.054507        -1.4832 
 139   0.0000      -0.040970        -1.1149 
 140   0.0000      -0.040442        -1.1005 
 141   0.0000      -0.026991        -0.7345 
 142   0.0000      -0.017144        -0.4665 
 143   0.0000      -0.008160        -0.2220 
 144   0.0000      -0.005748        -0.1564 
 145   0.0000       0.018373         0.5000 
 146   0.0000       0.025467         0.6930 
 147   0.0000       0.029633         0.8063 
 148   0.0000       0.031031         0.8444 
 149   0.0000       0.033326         0.9068 
 150   0.0000       0.044761         1.2180 
 151   0.0000       0.046721         1.2714 
 152   0.0000       0.052082         1.4172 
 153   0.0000       0.055640         1.5140 
 154   0.0000       0.055915         1.5215 
 155   0.0000       0.062947         1.7129 
 156   0.0000       0.064263         1.7487 
 157   0.0000       0.069118         1.8808 
 158   0.0000       0.070254         1.9117 
 159   0.0000       0.070673         1.9231 
 160   0.0000       0.081392         2.2148 
 161   0.0000       0.084822         2.3081 
 162   0.0000       0.093345         2.5400 
 163   0.0000       0.096083         2.6146 
 164   0.0000       0.107523         2.9258 
 165   0.0000       0.107675         2.9300 
 166   0.0000       0.111292         3.0284 
 167   0.0000       0.127693         3.4747 
 168   0.0000       0.129611         3.5269 
 169   0.0000       0.130922         3.5626 
 170   0.0000       0.136803         3.7226 
 171   0.0000       0.145882         3.9697 
 172   0.0000       0.149572         4.0701 
 173   0.0000       0.150019         4.0822 
 174   0.0000       0.158230         4.3057 
 175   0.0000       0.159433         4.3384 
 176   0.0000       0.165284         4.4976 
 177   0.0000       0.170409         4.6371 
 178   0.0000       0.176401         4.8001 
 179   0.0000       0.185843         5.0570 
 180   0.0000       0.205438         5.5903 
 181   0.0000       0.211487         5.7549 
 182   0.0000       0.212123         5.7722 
 183   0.0000       0.219828         5.9818 
 184   0.0000       0.229428         6.2431 
 185   0.0000       0.231904         6.3104 
 186   0.0000       0.232284         6.3208 
 187   0.0000       0.246028         6.6948 
 188   0.0000       0.248307         6.7568 
 189   0.0000       0.253804         6.9064 
 190   0.0000       0.254542         6.9264 
 191   0.0000       0.265097         7.2136 
 192   0.0000       0.266397         7.2490 
 193   0.0000       0.268692         7.3115 
 194   0.0000       0.277294         7.5456 
 195   0.0000       0.284898         7.7525 
 196   0.0000       0.285112         7.7583 
 197   0.0000       0.286197         7.7878 
 198   0.0000       0.293435         7.9848 
 199   0.0000       0.296463         8.0672 
 200   0.0000       0.300731         8.1833 
 201   0.0000       0.303403         8.2560 
 202   0.0000       0.304024         8.2729 
 203   0.0000       0.309666         8.4264 
 204   0.0000       0.313552         8.5322 
 205   0.0000       0.317739         8.6461 
 206   0.0000       0.325637         8.8610 
 207   0.0000       0.333212         9.0672 
 208   0.0000       0.340637         9.2692 
 209   0.0000       0.341523         9.2933 
 210   0.0000       0.350764         9.5448 
 211   0.0000       0.358967         9.7680 
 212   0.0000       0.365056         9.9337 
 213   0.0000       0.365383         9.9426 
 214   0.0000       0.366001         9.9594 
 215   0.0000       0.367824        10.0090 
 216   0.0000       0.377971        10.2851 
 217   0.0000       0.381766        10.3884 
 218   0.0000       0.387345        10.5402 
 219   0.0000       0.389991        10.6122 
 220   0.0000       0.392498        10.6804 
 221   0.0000       0.395337        10.7577 
 222   0.0000       0.404496        11.0069 
 223   0.0000       0.414858        11.2889 
 224   0.0000       0.416262        11.3271 
 225   0.0000       0.421905        11.4806 
 226   0.0000       0.425436        11.5767 
 227   0.0000       0.426058        11.5936 
 228   0.0000       0.436235        11.8706 
 229   0.0000       0.438853        11.9418 
 230   0.0000       0.444203        12.0874 
 231   0.0000       0.447009        12.1637 
 232   0.0000       0.448499        12.2043 
 233   0.0000       0.454327        12.3629 
 234   0.0000       0.462593        12.5878 
 235   0.0000       0.479667        13.0524 
 236   0.0000       0.487489        13.2652 
 237   0.0000       0.489878        13.3303 
 238   0.0000       0.490930        13.3589 
 239   0.0000       0.494095        13.4450 
 240   0.0000       0.495561        13.4849 
 241   0.0000       0.499039        13.5796 
 242   0.0000       0.506792        13.7905 
 243   0.0000       0.509681        13.8691 
 244   0.0000       0.515392        14.0245 
 245   0.0000       0.520843        14.1729 
 246   0.0000       0.527079        14.3425 
 247   0.0000       0.543211        14.7815 
 248   0.0000       0.543640        14.7932 
 249   0.0000       0.544736        14.8230 
 250   0.0000       0.556425        15.1411 
 251   0.0000       0.560706        15.2576 
 252   0.0000       0.569736        15.5033 
 253   0.0000       0.578305        15.7365 
 254   0.0000       0.585133        15.9223 
 255   0.0000       0.604832        16.4583 
 256   0.0000       0.612095        16.6559 
 257   0.0000       0.656688        17.8694 
 258   0.0000       0.679661        18.4945 
 259   0.0000       0.689645        18.7662 
 260   0.0000       0.692432        18.8420 
 261   0.0000       0.709910        19.3176 
 262   0.0000       0.736061        20.0293 
 263   0.0000       0.747694        20.3458 
 264   0.0000       0.753347        20.4996 
 265   0.0000       0.755643        20.5621 
 266   0.0000       0.767834        20.8938 
 267   0.0000       0.770942        20.9784 
 268   0.0000       0.774231        21.0679 
 269   0.0000       0.787444        21.4274 
 270   0.0000       0.810604        22.0577 
 271   0.0000       0.813716        22.1423 
 272   0.0000       0.816142        22.2084 
 273   0.0000       0.819566        22.3015 
 274   0.0000       0.825976        22.4760 
 275   0.0000       0.829180        22.5631 
 276   0.0000       0.836607        22.7652 
 277   0.0000       0.849777        23.1236 
 278   0.0000       0.863274        23.4909 
 279   0.0000       0.868763        23.6403 
 280   0.0000       0.874119        23.7860 
 281   0.0000       0.877603        23.8808 
 282   0.0000       0.892326        24.2814 
 283   0.0000       0.898335        24.4449 
 284   0.0000       0.922849        25.1120 
 285   0.0000       0.925215        25.1764 
 286   0.0000       0.926377        25.2080 
 287   0.0000       0.946831        25.7646 
 288   0.0000       0.987170        26.8623 
 289   0.0000       1.070593        29.1323 
 290   0.0000       1.076682        29.2980 
 291   0.0000       1.098055        29.8796 
 292   0.0000       1.152884        31.3716 
 293   0.0000       1.177390        32.0384 
 294   0.0000       1.205725        32.8095 
 295   0.0000       1.209217        32.9045 
 296   0.0000       1.233795        33.5733 
 297   0.0000       1.234310        33.5873 
 298   0.0000       1.257724        34.2244 
 299   0.0000       1.272323        34.6217 
 300   0.0000       1.287600        35.0374 
 301   0.0000       1.306672        35.5563 
 302   0.0000       1.311698        35.6931 
 303   0.0000       1.312815        35.7235 
 304   0.0000       1.327603        36.1259 
 305   0.0000       1.337184        36.3866 
 306   0.0000       1.347331        36.6627 
 307   0.0000       1.354461        36.8568 
 308   0.0000       1.371096        37.3094 
 309   0.0000       1.375952        37.4416 
 310   0.0000       1.378157        37.5016 
 311   0.0000       1.386904        37.7396 
 312   0.0000       1.389075        37.7987 
 313   0.0000       1.391023        37.8517 
 314   0.0000       1.391867        37.8746 
 315   0.0000       1.400578        38.1117 
 316   0.0000       1.402039        38.1514 
 317   0.0000       1.402232        38.1567 
 318   0.0000       1.406595        38.2754 
 319   0.0000       1.412133        38.4261 
 320   0.0000       1.413702        38.4688 
 321   0.0000       1.416078        38.5335 
 322   0.0000       1.417272        38.5659 
 323   0.0000       1.427226        38.8368 
 324   0.0000       1.431588        38.9555 
 325   0.0000       1.438693        39.1488 
 326   0.0000       1.439802        39.1790 
 327   0.0000       1.444357        39.3030 
 328   0.0000       1.449656        39.4471 
 329   0.0000       1.453193        39.5434 
 330   0.0000       1.456661        39.6378 
 331   0.0000       1.457133        39.6506 
 332   0.0000       1.468747        39.9666 
 333   0.0000       1.472572        40.0707 
 334   0.0000       1.475083        40.1390 
 335   0.0000       1.476127        40.1674 
 336   0.0000       1.478159        40.2228 
 337   0.0000       1.484112        40.3847 
 338   0.0000       1.485881        40.4329 
 339   0.0000       1.486493        40.4495 
 340   0.0000       1.486624        40.4531 
 341   0.0000       1.490625        40.5620 
 342   0.0000       1.491623        40.5891 
 343   0.0000       1.494583        40.6697 
 344   0.0000       1.497232        40.7418 
 345   0.0000       1.498625        40.7797 
 346   0.0000       1.499182        40.7948 
 347   0.0000       1.499320        40.7986 
 348   0.0000       1.499735        40.8099 
 349   0.0000       1.501387        40.8548 
 350   0.0000       1.501577        40.8600 
 351   0.0000       1.502897        40.8959 
 352   0.0000       1.505557        40.9683 
 353   0.0000       1.505620        40.9700 
 354   0.0000       1.507391        41.0182 
 355   0.0000       1.509345        41.0714 
 356   0.0000       1.512976        41.1702 
 357   0.0000       1.514414        41.2093 
 358   0.0000       1.515696        41.2442 
 359   0.0000       1.517726        41.2994 
 360   0.0000       1.519737        41.3542 
 361   0.0000       1.522837        41.4385 
 362   0.0000       1.524588        41.4861 
 363   0.0000       1.525287        41.5052 
 364   0.0000       1.526327        41.5335 
 365   0.0000       1.528118        41.5822 
 366   0.0000       1.530110        41.6364 
 367   0.0000       1.536849        41.8198 
 368   0.0000       1.539551        41.8933 
 369   0.0000       1.539705        41.8975 
 370   0.0000       1.540109        41.9085 
 371   0.0000       1.543998        42.0143 
 372   0.0000       1.545342        42.0509 
 373   0.0000       1.548466        42.1359 
 374   0.0000       1.549207        42.1561 
 375   0.0000       1.549947        42.1762 
 376   0.0000       1.550346        42.1871 
 377   0.0000       1.551733        42.2248 
 378   0.0000       1.553256        42.2662 
[...]
----------------------------------------------------
CHARGE
  0 Aus       :     2.569283  s :     2.569283
      pz      :     2.159790  p :     6.473128
      px      :     2.134652
      py      :     2.178686
      dz2     :     1.990510  d :     9.883992
      dxz     :     1.983200
      dyz     :     1.977008
      dx2y2   :     1.989016
      dxy     :     1.944259
      f0      :     0.000920  f :     0.006226
      f+1     :     0.000685
      f-1     :     0.001019
      f+2     :     0.000812
      f-2     :     0.000824
      f+3     :     0.001005
      f-3     :     0.000960
  1 Aus       :     2.584060  s :     2.584060
      pz      :     2.110494  p :     6.448502
      px      :     2.090809
      py      :     2.247199
      dz2     :     1.989411  d :     9.859225
      dxz     :     1.950224
      dyz     :     1.988764
      dx2y2   :     1.953142
      dxy     :     1.977684
      f0      :     0.000867  f :     0.005900
      f+1     :     0.000556
      f-1     :     0.000905
      f+2     :     0.000703
      f-2     :     0.000635
      f+3     :     0.001048
      f-3     :     0.001186
  2 Aus       :     2.569525  s :     2.569525
      pz      :     2.113762  p :     6.473664
      px      :     2.226920
      py      :     2.132983
      dz2     :     1.987909  d :     9.882985
      dxz     :     1.990468
      dyz     :     1.962270
      dx2y2   :     1.960980
      dxy     :     1.981357
      f0      :     0.001049  f :     0.006221
      f+1     :     0.000786
      f-1     :     0.000768
      f+2     :     0.000579
      f-2     :     0.000759
      f+3     :     0.000997
      f-3     :     0.001283
  3 Aus       :     2.583685  s :     2.583685
      pz      :     2.150743  p :     6.449995
      px      :     2.155120
      py      :     2.144132
      dz2     :     1.994458  d :     9.859008
      dxz     :     1.985625
      dyz     :     1.952318
      dx2y2   :     1.981193
      dxy     :     1.945413
      f0      :     0.000792  f :     0.005924
      f+1     :     0.000674
      f-1     :     0.000937
      f+2     :     0.000671
      f-2     :     0.000855
      f+3     :     0.001108
      f-3     :     0.000887
  4 Aus       :     2.634995  s :     2.634995
      pz      :     2.110249  p :     6.360046
      px      :     2.084546
      py      :     2.165250
      dz2     :     1.984172  d :     9.852794
      dxz     :     1.953483
      dyz     :     1.984824
      dx2y2   :     1.958059
      dxy     :     1.972256
      f0      :     0.000719  f :     0.005183
      f+1     :     0.000575
      f-1     :     0.000648
      f+2     :     0.000696
      f-2     :     0.000564
      f+3     :     0.000922
      f-3     :     0.001059
  5 Aus       :     2.650643  s :     2.650643
      pz      :     2.125707  p :     6.350549
      px      :     2.114620
      py      :     2.110223
      dz2     :     1.984620  d :     9.897523
      dxz     :     1.961651
      dyz     :     1.983051
      dx2y2   :     1.984837
      dxy     :     1.983363
      f0      :     0.000534  f :     0.004667
      f+1     :     0.000469
      f-1     :     0.000731
      f+2     :     0.000511
      f-2     :     0.001024
      f+3     :     0.000875
      f-3     :     0.000524
  6 Aus       :     2.583940  s :     2.583940
      pz      :     2.107662  p :     6.449035
      px      :     2.159399
      py      :     2.181973
      dz2     :     1.985405  d :     9.859253
      dxz     :     1.966288
      dyz     :     1.972300
      dx2y2   :     1.978945
      dxy     :     1.956314
      f0      :     0.000884  f :     0.005915
      f+1     :     0.000656
      f-1     :     0.000825
      f+2     :     0.000616
      f-2     :     0.000730
      f+3     :     0.001319
      f-3     :     0.000883
  7 Aus       :     2.634638  s :     2.634638
      pz      :     2.110970  p :     6.360384
      px      :     2.086169
      py      :     2.163245
      dz2     :     1.985444  d :     9.852851
      dxz     :     1.971670
      dyz     :     1.969272
      dx2y2   :     1.972570
      dxy     :     1.953895
      f0      :     0.000715  f :     0.005185
      f+1     :     0.000451
      f-1     :     0.000755
      f+2     :     0.000572
      f-2     :     0.000651
      f+3     :     0.000946
      f-3     :     0.001094
  8 Aus       :     2.583616  s :     2.583616
      pz      :     2.152739  p :     6.449822
      px      :     2.085827
      py      :     2.211256
      dz2     :     1.996042  d :     9.859261
      dxz     :     1.953423
      dyz     :     1.978819
      dx2y2   :     1.950069
      dxy     :     1.980907
      f0      :     0.000819  f :     0.005912
      f+1     :     0.000530
      f-1     :     0.001079
      f+2     :     0.000831
      f-2     :     0.000731
      f+3     :     0.000970
      f-3     :     0.000951
  9 Aus       :     2.569421  s :     2.569421
      pz      :     2.153517  p :     6.472727
      px      :     2.218445
      py      :     2.100765
      dz2     :     1.989008  d :     9.883769
      dxz     :     1.985548
      dyz     :     1.977877
      dx2y2   :     1.942142
      dxy     :     1.989195
      f0      :     0.000929  f :     0.006231
      f+1     :     0.000847
      f-1     :     0.000779
      f+2     :     0.000840
      f-2     :     0.000754
      f+3     :     0.000961
      f-3     :     0.001122
 10 Aus       :     2.650799  s :     2.650799
      pz      :     2.125979  p :     6.350831
      px      :     2.111088
      py      :     2.113763
      dz2     :     1.983971  d :     9.897311
      dxz     :     1.969101
      dyz     :     1.975918
      dx2y2   :     1.983516
      dxy     :     1.984805
      f0      :     0.000551  f :     0.004673
      f+1     :     0.000530
      f-1     :     0.000618
      f+2     :     0.001040
      f-2     :     0.000530
      f+3     :     0.000638
      f-3     :     0.000766
 11 Aus       :     2.569175  s :     2.569175
      pz      :     2.114148  p :     6.473691
      px      :     2.134195
      py      :     2.225348
      dz2     :     1.990897  d :     9.883378
      dxz     :     1.967409
      dyz     :     1.982071
      dx2y2   :     1.980634
      dxy     :     1.962367
      f0      :     0.001027  f :     0.006219
      f+1     :     0.000626
      f-1     :     0.000950
      f+2     :     0.000750
      f-2     :     0.000540
      f+3     :     0.001261
      f-3     :     0.001065
 12 Crs       :     6.283010  s :     6.283010
      pz      :     4.200867  p :    12.601185
      px      :     4.213333
      py      :     4.186985
      dz2     :     1.147846  d :     6.278239
      dxz     :     1.278142
      dyz     :     1.266235
      dx2y2   :     1.285805
      dxy     :     1.300210
      f0      :     0.000221  f :     0.001808
      f+1     :     0.000228
      f-1     :     0.000206
      f+2     :     0.000336
      f-2     :     0.000331
      f+3     :     0.000238
      f-3     :     0.000249

SPIN
  0 Aus       :    -0.070525  s :    -0.070525
      pz      :    -0.010659  p :    -0.030211
      px      :    -0.015886
      py      :    -0.003666
      dz2     :    -0.005851  d :     0.006538
      dxz     :    -0.000631
      dyz     :     0.002134
      dx2y2   :     0.003956
      dxy     :     0.006929
      f0      :     0.000031  f :     0.000301
      f+1     :     0.000014
      f-1     :     0.000013
      f+2     :    -0.000004
      f-2     :     0.000105
      f+3     :     0.000072
      f-3     :     0.000069
  1 Aus       :    -0.053847  s :    -0.053847
      pz      :    -0.008372  p :    -0.027211
      px      :    -0.005524
      py      :    -0.013314
      dz2     :     0.005502  d :    -0.000615
      dxz     :     0.001214
      dyz     :    -0.002507
      dx2y2   :     0.000791
      dxy     :    -0.005615
      f0      :     0.000036  f :     0.000497
      f+1     :     0.000151
      f-1     :     0.000006
      f+2     :     0.000137
      f-2     :     0.000065
      f+3     :     0.000074
      f-3     :     0.000026
  2 Aus       :    -0.070658  s :    -0.070658
      pz      :    -0.012007  p :    -0.029818
      px      :    -0.018981
      py      :     0.001169
      dz2     :    -0.000221  d :     0.007225
      dxz     :    -0.000072
      dyz     :     0.006109
      dx2y2   :     0.002304
      dxy     :    -0.000895
      f0      :     0.000014  f :     0.000313
      f+1     :    -0.000010
      f-1     :     0.000149
      f+2     :     0.000105
      f-2     :     0.000029
      f+3     :    -0.000010
      f-3     :     0.000037
  3 Aus       :    -0.053634  s :    -0.053634
      pz      :    -0.009733  p :    -0.027234
      px      :    -0.008466
      py      :    -0.009034
      dz2     :    -0.004527  d :    -0.000706
      dxz     :    -0.001830
      dyz     :     0.000544
      dx2y2   :     0.000936
      dxy     :     0.004172
      f0      :     0.000057  f :     0.000500
      f+1     :     0.000006
      f-1     :     0.000071
      f+2     :     0.000075
      f-2     :     0.000087
      f+3     :     0.000140
      f-3     :     0.000065
  4 Aus       :    -0.042211  s :    -0.042211
      pz      :    -0.008911  p :    -0.050475
      px      :    -0.005961
      py      :    -0.035603
      dz2     :     0.006916  d :     0.005811
      dxz     :     0.005065
      dyz     :    -0.000610
      dx2y2   :    -0.004400
      dxy     :    -0.001160
      f0      :     0.000013  f :     0.000386
      f+1     :     0.000133
      f-1     :    -0.000027
      f+2     :     0.000135
      f-2     :     0.000020
      f+3     :     0.000035
      f-3     :     0.000076
  5 Aus       :    -0.002370  s :    -0.002370
      pz      :    -0.029133  p :    -0.050692
      px      :    -0.017159
      py      :    -0.004399
      dz2     :    -0.002941  d :    -0.019324
      dxz     :     0.000544
      dyz     :    -0.010510
      dx2y2   :     0.000185
      dxy     :    -0.006603
      f0      :    -0.000026  f :    -0.000057
      f+1     :    -0.000009
      f-1     :    -0.000013
      f+2     :    -0.000001
      f-2     :     0.000004
      f+3     :    -0.000010
      f-3     :    -0.000001
  6 Aus       :    -0.053658  s :    -0.053658
      pz      :    -0.008504  p :    -0.027277
      px      :    -0.009191
      py      :    -0.009582
      dz2     :     0.006018  d :    -0.000806
      dxz     :     0.000288
      dyz     :    -0.000821
      dx2y2   :    -0.006842
      dxy     :     0.000551
      f0      :     0.000044  f :     0.000495
      f+1     :     0.000072
      f-1     :     0.000112
      f+2     :     0.000064
      f-2     :     0.000129
      f+3     :     0.000060
      f-3     :     0.000014
  7 Aus       :    -0.042083  s :    -0.042083
      pz      :    -0.008527  p :    -0.050422
      px      :    -0.005440
      py      :    -0.036456
      dz2     :     0.005306  d :     0.005783
      dxz     :     0.004177
      dyz     :     0.000388
      dx2y2   :    -0.001017
      dxy     :    -0.003070
      f0      :     0.000021  f :     0.000387
      f+1     :     0.000071
      f-1     :     0.000012
      f+2     :     0.000013
      f-2     :     0.000132
      f+3     :     0.000016
      f-3     :     0.000122
  8 Aus       :    -0.053768  s :    -0.053768
      pz      :    -0.010171  p :    -0.027232
      px      :    -0.005731
      py      :    -0.011330
      dz2     :    -0.003239  d :    -0.000800
      dxz     :     0.000582
      dyz     :    -0.002974
      dx2y2   :     0.004507
      dxy     :     0.000323
      f0      :     0.000052  f :     0.000496
      f+1     :     0.000080
      f-1     :     0.000006
      f+2     :     0.000089
      f-2     :     0.000093
      f+3     :     0.000097
      f-3     :     0.000079
  9 Aus       :    -0.070345  s :    -0.070345
      pz      :    -0.010376  p :    -0.030109
      px      :    -0.019366
      py      :    -0.000367
      dz2     :    -0.006034  d :     0.006885
      dxz     :    -0.006350
      dyz     :     0.007592
      dx2y2   :     0.007532
      dxy     :     0.004145
      f0      :     0.000028  f :     0.000306
      f+1     :    -0.000004
      f-1     :     0.000037
      f+2     :     0.000101
      f-2     :    -0.000008
      f+3     :     0.000014
      f-3     :     0.000138
 10 Aus       :    -0.002185  s :    -0.002185
      pz      :    -0.029106  p :    -0.050693
      px      :    -0.018987
      py      :    -0.002600
      dz2     :    -0.002401  d :    -0.019250
      dxz     :    -0.005493
      dyz     :    -0.004809
      dx2y2   :    -0.006968
      dxy     :     0.000420
      f0      :    -0.000027  f :    -0.000057
      f+1     :    -0.000002
      f-1     :    -0.000019
      f+2     :     0.000003
      f-2     :    -0.000002
      f+3     :    -0.000010
      f-3     :     0.000000
 11 Aus       :    -0.070823  s :    -0.070823
      pz      :    -0.012165  p :    -0.029934
      px      :    -0.015440
      py      :    -0.002329
      dz2     :    -0.001109  d :     0.006847
      dxz     :     0.003170
      dyz     :     0.002234
      dx2y2   :     0.000119
      dxy     :     0.002433
      f0      :     0.000013  f :     0.000308
      f+1     :     0.000088
      f-1     :     0.000029
      f+2     :     0.000041
      f-2     :     0.000103
      f+3     :     0.000009
      f-3     :     0.000025
 12 Crs       :     0.019286  s :     0.019286
      pz      :     0.014421  p :     0.038322
      px      :     0.012606
      py      :     0.011295
      dz2     :     0.811474  d :     2.958290
      dxz     :     0.364536
      dyz     :     0.544333
      dx2y2   :     0.610785
      dxy     :     0.627163
      f0      :     0.000002  f :     0.000053
      f+1     :     0.000009
      f-1     :     0.000007
      f+2     :     0.000012
      f-2     :     0.000012
      f+3     :     0.000001
      f-3     :     0.000010


                      *****************************
                      * MAYER POPULATION ANALYSIS *
                      *****************************

  NA   - Mulliken gross atomic population
  ZA   - Total nuclear charge
  QA   - Mulliken gross atomic charge
  VA   - Mayer's total valence
  BVA  - Mayer's bonded valence
  FA   - Mayer's free valence

  ATOM       NA         ZA         QA         VA         BVA        FA
  0 Au    18.7094    19.0000     0.2906     1.7429     1.7264     0.0166
  1 Au    18.7263    19.0000     0.2737     1.8181     1.8056     0.0125
  2 Au    18.7101    19.0000     0.2899     1.7473     1.7307     0.0166
  3 Au    18.7299    19.0000     0.2701     1.8227     1.8103     0.0124
  4 Au    18.6117    19.0000     0.3883     1.6409     1.6350     0.0059
  5 Au    18.6332    19.0000     0.3668     1.4917     1.4896     0.0020
  6 Au    18.7262    19.0000     0.2738     1.8175     1.8050     0.0125
  7 Au    18.6101    19.0000     0.3899     1.6394     1.6336     0.0059
  8 Au    18.7290    19.0000     0.2710     1.8231     1.8106     0.0124
  9 Au    18.7098    19.0000     0.2902     1.7425     1.7260     0.0165
 10 Au    18.6326    19.0000     0.3674     1.4925     1.4904     0.0020
 11 Au    18.7099    19.0000     0.2901     1.7460     1.7293     0.0167
 12 Cr    27.7617    24.0000    -3.7617     9.3050     6.7630     2.5420

  Mayer bond orders larger than 0.100000
B(  0-Au,  3-Au) :   0.1712 B(  0-Au,  4-Au) :   0.3180 B(  0-Au,  5-Au) :   0.2596 
B(  0-Au, 11-Au) :   0.1640 B(  0-Au, 12-Cr) :   0.5071 B(  1-Au,  2-Au) :   0.1692 
B(  1-Au,  3-Au) :   0.3810 B(  1-Au,  8-Au) :   0.1136 B(  1-Au, 10-Au) :   0.2137 
B(  1-Au, 12-Cr) :   0.6768 B(  2-Au,  4-Au) :   0.3202 B(  2-Au,  9-Au) :   0.1616 
B(  2-Au, 10-Au) :   0.2599 B(  2-Au, 12-Cr) :   0.5113 B(  3-Au,  5-Au) :   0.2152 
B(  3-Au,  6-Au) :   0.1128 B(  3-Au, 12-Cr) :   0.6772 B(  4-Au, 12-Cr) :   0.6775 
B(  5-Au,  6-Au) :   0.2142 B(  5-Au, 11-Au) :   0.2586 B(  5-Au, 12-Cr) :   0.3320 
B(  6-Au,  8-Au) :   0.3802 B(  6-Au, 11-Au) :   0.1701 B(  6-Au, 12-Cr) :   0.6764 
B(  7-Au,  9-Au) :   0.3190 B(  7-Au, 11-Au) :   0.3178 B(  7-Au, 12-Cr) :   0.6774 
B(  8-Au,  9-Au) :   0.1717 B(  8-Au, 10-Au) :   0.2151 B(  8-Au, 12-Cr) :   0.6771 
B(  9-Au, 10-Au) :   0.2595 B(  9-Au, 12-Cr) :   0.5083 B( 10-Au, 12-Cr) :   0.3316 
B( 11-Au, 12-Cr) :   0.5104 

-------
TIMINGS
-------

Total SCF time: 0 days 0 hours 38 min 10 sec 

Total time                  ....    2290.358 sec
Sum of individual times     ....    2224.367 sec  ( 97.1%)

Fock matrix formation       ....    1058.256 sec  ( 46.2%)
  Split-RI-J                ....     395.906 sec  ( 37.4% of F)
  XC integration            ....     496.801 sec  ( 46.9% of F)
    Basis function eval.    ....      49.944 sec  ( 10.1% of XC)
    Density eval.           ....     158.626 sec  ( 31.9% of XC)
    XC-Functional eval.     ....       8.267 sec  (  1.7% of XC)
    XC-Potential eval.      ....     138.783 sec  ( 27.9% of XC)
Diagonalization             ....     444.515 sec  ( 19.4%)
Density matrix formation    ....      29.513 sec  (  1.3%)
Population analysis         ....       0.761 sec  (  0.0%)
Initial guess               ....       0.341 sec  (  0.0%)
Orbital Transformation      ....      86.820 sec  (  3.8%)
Orbital Orthonormalization  ....       0.247 sec  (  0.0%)
DIIS solution               ....     599.520 sec  ( 26.2%)
Grid generation             ....       2.748 sec  (  0.1%)

Maximum memory used throughout the entire SCF-calculation: 89.0 MB

-------------------------   --------------------
FINAL SINGLE POINT ENERGY     -2674.158303495407
-------------------------   --------------------


                            ***************************************
                            *     ORCA property calculations      *
                            ***************************************

                                    ---------------------
                                    Active property flags
                                    ---------------------
   (+) Dipole Moment


------------------------------------------------------------------------------
                       ORCA ELECTRIC PROPERTIES CALCULATION
------------------------------------------------------------------------------

Dipole Moment Calculation                       ... on
Quadrupole Moment Calculation                   ... off
Polarizability Calculation                      ... off
GBWName                                         ... pbeSP_job2.gbw
Electron density                                ... pbeSP_job2.scfp
The origin for moment calculation is the CENTER OF MASS  = (15.465421, 14.338106 16.184059)

-------------
DIPOLE MOMENT
-------------
                                X             Y             Z
Electronic contribution:      4.51916       1.96886       0.25965
Nuclear contribution   :     -4.39517      -1.91518      -0.25305
                        -----------------------------------------
Total Dipole Moment    :      0.12400       0.05368       0.00659
                        -----------------------------------------
Magnitude (a.u.)       :      0.13528
Magnitude (Debye)      :      0.34385



--------------------
Rotational spectrum 
--------------------
 
Rotational constants in cm-1:     0.001699     0.001131     0.001034 
Rotational constants in MHz :    50.926379    33.916632    31.006987 

 Dipole components along the rotational axes: 
x,y,z [a.u.] :    -0.001427     0.135272    -0.000150 
x,y,z [Debye]:    -0.003628     0.343833    -0.000381 

 

Timings for individual modules:

Sum of individual times         ...     2308.978 sec (=  38.483 min)
GTO integral calculation        ...       17.977 sec (=   0.300 min)   0.8 %
SCF iterations                  ...     2291.001 sec (=  38.183 min)  99.2 %



                             ****ORCA TERMINATED NORMALLY****
TOTAL RUN TIME: 0 days 0 hours 51 minutes 1 seconds 121 msec
